UNITED ATOM STRUCTURE FOR MOLECULE UNK
12340
    0X2IT   H18    1   3.092   2.352   2.583
    0X2IT    N4    2   3.026   2.419   2.548
    0X2IT   H17    3   3.059   2.484   2.478
    0X2IT   C14    4   2.895   2.380   2.546
    0X2IT    O5    5   2.849   2.285   2.607
    0X2IT    O4    6   2.822   2.466   2.469
    0X2IT   C13    7   2.680   2.441   2.463
    0X2IT   C10    8   2.607   2.502   2.584
    0X2IT    C9    9   2.457   2.484   2.578
    0X2IT    C4   10   2.394   2.607   2.582
    0X2IT    C5   11   2.245   2.625   2.577
    0X2IT    O1   12   2.197   2.739   2.585
    0X2IT    C6   13   2.166   2.505   2.564
    0X2IT   C12   14   2.015   2.516   2.558
    0X2IT    C7   15   2.229   2.382   2.561
    0X2IT    C8   16   2.381   2.365   2.567
    0X2IT    O2   17   2.427   2.250   2.559
    0X2IT    N3   18   2.164   2.265   2.551
    0X2IT   H15   19   2.064   2.258   2.544
    0X2IT   H16   20   2.221   2.180   2.548
    0X2IT    N2   21   2.482   2.709   2.599
    0X2IT    C3   22   2.473   2.846   2.546
    0X2IT    C2   23   2.599   2.856   2.461
    0X2IT    H2   24   2.639   2.954   2.435
    0X2IT    N1   25   2.611   2.744   2.365
    0X2IT   H14   26   2.674   2.771   2.289
    0X2IT    C1   27   2.688   2.741   2.491
    0X2IT    H1   28   2.796   2.748   2.490
    0X2IT   C11   29   2.622   2.658   2.600
    0X2IT    O3   30   2.691   2.695   2.718
    0X2IT   C15   31   2.628   2.664   2.843
    1X2IT   H18   32   0.361   0.715   4.321
    1X2IT    N4   33   0.291   0.674   4.380
    1X2IT   H17   34   0.229   0.606   4.338
    1X2IT   C14   35   0.323   0.662   4.513
    1X2IT    O5   36   0.415   0.720   4.568
    1X2IT    O4   37   0.234   0.578   4.575
    1X2IT   C13   38   0.252   0.561   4.717
    1X2IT   C10   39   0.186   0.676   4.796
    1X2IT    C9   40   0.196   0.658   4.946
    1X2IT    C4   41   0.070   0.656   5.002
    1X2IT    C5   42   0.044   0.639   5.149
    1X2IT    O1   43  -0.072   0.642   5.191
    1X2IT    C6   44   0.160   0.620   5.233
    1X2IT   C12   45   0.141   0.602   5.382
    1X2IT    C7   46   0.286   0.623   5.177
    1X2IT    C8   47   0.311   0.642   5.027
    1X2IT    O2   48   0.428   0.638   4.986
    1X2IT    N3   49   0.400   0.609   5.247
    1X2IT   H15   50   0.401   0.594   5.346
    1X2IT   H16   51   0.487   0.611   5.194
    1X2IT    N2   52  -0.028   0.679   4.910
    1X2IT    C3   53  -0.164   0.624   4.908
    1X2IT    C2   54  -0.167   0.549   4.775
    1X2IT    H2   55  -0.262   0.526   4.728
    1X2IT    N1   56  -0.053   0.456   4.762
    1X2IT   H14   57  -0.076   0.385   4.691
    1X2IT    C1   58  -0.048   0.587   4.695
    1X2IT    H1   59  -0.049   0.595   4.587
    1X2IT   C11   60   0.030   0.691   4.774
    1X2IT    O3   61  -0.004   0.814   4.713
    1X2IT   C15   62   0.022   0.934   4.787
    2X2IT   H18   63   3.996   3.394   3.727
    2X2IT    N4   64   4.002   3.403   3.827
    2X2IT   H17   65   3.954   3.333   3.882
    2X2IT   C14   66   4.116   3.460   3.876
    2X2IT    O5   67   4.196   3.525   3.811
    2X2IT    O4   68   4.125   3.438   4.011
    2X2IT   C13   69   4.237   3.499   4.078
    2X2IT   C10   70   4.208   3.646   4.113
    2X2IT    C9   71   4.321   3.711   4.190
    2X2IT    C4   72   4.275   3.759   4.311
    2X2IT    C5   73   4.361   3.828   4.412
    2X2IT    O1   74   4.310   3.871   4.517
    2X2IT    C6   75   4.501   3.842   4.379
    2X2IT   C12   76   4.594   3.911   4.477
    2X2IT    C7   77   4.547   3.796   4.258
    2X2IT    C8   78   4.458   3.725   4.155
    2X2IT    O2   79   4.510   3.684   4.051
    2X2IT    N3   80   4.674   3.806   4.217
    2X2IT   H15   81   4.747   3.847   4.273
    2X2IT   H16   82   4.698   3.766   4.126
    2X2IT    N2   83   4.141   3.742   4.325
    2X2IT    C3   84   4.065   3.715   4.448
    2X2IT    C2   85   3.999   3.582   4.417
    2X2IT    H2   86   3.911   3.551   4.474
    2X2IT    N1   87   4.096   3.480   4.371
    2X2IT   H14   88   4.057   3.387   4.385
    2X2IT    C1   89   4.013   3.552   4.273
    2X2IT    H1   90   3.938   3.500   4.215
    2X2IT   C11   91   4.084   3.670   4.208
    2X2IT    O3   92   3.981   3.743   4.145
    2X2IT   C15   93   4.009   3.878   4.108
    3X2IT   H18   94   2.824   1.732   4.302
    3X2IT    N4   95   2.780   1.648   4.333
    3X2IT   H17   96   2.808   1.562   4.289
    3X2IT   C14   97   2.740   1.645   4.464
    3X2IT    O5   98   2.728   1.743   4.536
    3X2IT    O4   99   2.710   1.517   4.501
    3X2IT   C13  100   2.659   1.500   4.635
    3X2IT   C10  101   2.508   1.528   4.642
    3X2IT    C9  102   2.450   1.504   4.780
    3X2IT    C4  103   2.349   1.409   4.773
    3X2IT    C5  104   2.271   1.362   4.892
    3X2IT    O1  105   2.180   1.280   4.877
    3X2IT    C6  106   2.308   1.418   5.020
    3X2IT   C12  107   2.233   1.375   5.144
    3X2IT    C7  108   2.408   1.514   5.026
    3X2IT    C8  109   2.486   1.562   4.904
    3X2IT    O2  110   2.577   1.644   4.922
    3X2IT    N3  111   2.448   1.573   5.140
    3X2IT   H15  112   2.408   1.551   5.230
    3X2IT   H16  113   2.524   1.641   5.133
    3X2IT    N2  114   2.324   1.370   4.646
    3X2IT    C3  115   2.280   1.238   4.599
    3X2IT    C2  116   2.394   1.198   4.505
    3X2IT    H2  117   2.377   1.122   4.429
    3X2IT    N1  118   2.527   1.210   4.569
    3X2IT   H14  119   2.594   1.152   4.518
    3X2IT    C1  120   2.479   1.317   4.478
    3X2IT    H1  121   2.528   1.334   4.383
    3X2IT   C11  122   2.419   1.435   4.551
    3X2IT    O3  123   2.351   1.507   4.449
    3X2IT   C15  124   2.252   1.603   4.491
    4X2IT   H18  125   4.177   2.301   1.998
    4X2IT    N4  126   4.234   2.221   1.980
    4X2IT   H17  127   4.216   2.170   1.895
    4X2IT   C14  128   4.361   2.224   2.029
    4X2IT    O5  129   4.402   2.301   2.115
    4X2IT    O4  130   4.436   2.125   1.972
    4X2IT   C13  131   4.572   2.113   2.020
    4X2IT   C10  132   4.578   2.030   2.150
    4X2IT    C9  133   4.719   2.008   2.199
    4X2IT    C4  134   4.746   1.873   2.208
    4X2IT    C5  135   4.878   1.817   2.254
    4X2IT    O1  136   4.892   1.694   2.263
    4X2IT    C6  137   4.981   1.913   2.286
    4X2IT   C12  138   5.117   1.863   2.332
    4X2IT    C7  139   4.954   2.048   2.277
    4X2IT    C8  140   4.819   2.104   2.232
    4X2IT    O2  141   4.807   2.227   2.223
    4X2IT    N3  142   5.043   2.144   2.306
    4X2IT   H15  143   5.137   2.125   2.336
    4X2IT   H16  144   5.012   2.241   2.295
    4X2IT    N2  145   4.638   1.797   2.180
    4X2IT    C3  146   4.634   1.665   2.115
    4X2IT    C2  147   4.551   1.691   1.991
    4X2IT    H2  148   4.502   1.608   1.940
    4X2IT    N1  149   4.601   1.806   1.913
    4X2IT   H14  150   4.567   1.800   1.817
    4X2IT    C1  151   4.486   1.824   2.003
    4X2IT    H1  152   4.387   1.846   1.963
    4X2IT   C11  153   4.523   1.883   2.138
    4X2IT    O3  154   4.409   1.860   2.218
    4X2IT   C15  155   4.425   1.869   2.360
    5X2IT   H18  156   1.814   2.834   1.112
    5X2IT    N4  157   1.769   2.919   1.141
    5X2IT   H17  158   1.770   2.997   1.076
    5X2IT   C14  159   1.662   2.905   1.225
    5X2IT    O5  160   1.635   2.804   1.289
    5X2IT    O4  161   1.592   3.022   1.231
    5X2IT   C13  162   1.480   3.024   1.322
    5X2IT   C10  163   1.524   3.054   1.466
    5X2IT    C9  164   1.409   3.063   1.563
    5X2IT    C4  165   1.409   3.187   1.625
    5X2IT    C5  166   1.307   3.230   1.726
    5X2IT    O1  167   1.317   3.342   1.779
    5X2IT    C6  168   1.202   3.135   1.757
    5X2IT   C12  169   1.096   3.172   1.858
    5X2IT    C7  170   1.203   3.011   1.696
    5X2IT    C8  171   1.308   2.968   1.593
    5X2IT    O2  172   1.297   2.856   1.542
    5X2IT    N3  173   1.111   2.916   1.719
    5X2IT   H15  174   1.034   2.928   1.783
    5X2IT   H16  175   1.121   2.828   1.667
    5X2IT    N2  176   1.516   3.262   1.589
    5X2IT    C3  177   1.523   3.409   1.574
    5X2IT    C2  178   1.562   3.425   1.428
    5X2IT    H2  179   1.607   3.518   1.394
    5X2IT    N1  180   1.473   3.349   1.337
    5X2IT   H14  181   1.479   3.388   1.243
    5X2IT    C1  182   1.604   3.293   1.374
    5X2IT    H1  183   1.682   3.282   1.299
    5X2IT   C11  184   1.598   3.191   1.487
    5X2IT    O3  185   1.733   3.177   1.527
    5X2IT   C15  186   1.756   3.118   1.656
    6X2IT   H18  187   3.485   0.109   4.127
    6X2IT    N4  188   3.409   0.093   4.064
    6X2IT   H17  189   3.315   0.104   4.099
    6X2IT   C14  190   3.434   0.120   3.932
    6X2IT    O5  191   3.545   0.135   3.883
    6X2IT    O4  192   3.317   0.123   3.862
    6X2IT   C13  193   3.328   0.143   3.720
    6X2IT   C10  194   3.358   0.012   3.646
    6X2IT    C9  195   3.363   0.028   3.496
    6X2IT    C4  196   3.271  -0.055   3.435
    6X2IT    C5  197   3.249  -0.062   3.287
    6X2IT    O1  198   3.167  -0.142   3.241
    6X2IT    C6  199   3.330   0.025   3.205
    6X2IT   C12  200   3.314   0.023   3.055
    6X2IT    C7  201   3.424   0.107   3.266
    6X2IT    C8  202   3.445   0.114   3.417
    6X2IT    O2  203   3.528   0.194   3.461
    6X2IT    N3  204   3.504   0.191   3.199
    6X2IT   H15  205   3.502   0.201   3.099
    6X2IT   H16  206   3.569   0.248   3.254
    6X2IT    N2  207   3.206  -0.134   3.525
    6X2IT    C3  208   3.068  -0.182   3.520
    6X2IT    C2  209   3.008  -0.124   3.647
    6X2IT    H2  210   2.918  -0.168   3.690
    6X2IT    N1  211   3.032   0.022   3.659
    6X2IT   H14  212   2.964   0.062   3.724
    6X2IT    C1  213   3.118  -0.072   3.733
    6X2IT    H1  214   3.115  -0.076   3.842
    6X2IT   C11  215   3.250  -0.102   3.664
    6X2IT    O3  216   3.300  -0.215   3.731
    6X2IT   C15  217   3.403  -0.290   3.665
    7X2IT   H18  218   0.644   4.517  -0.223
    7X2IT    N4  219   0.658   4.545  -0.128
    7X2IT   H17  220   0.655   4.644  -0.108
    7X2IT   C14  221   0.617   4.457  -0.032
    7X2IT    O5  222   0.592   4.339  -0.050
    7X2IT    O4  223   0.612   4.519   0.090
    7X2IT   C13  224   0.577   4.437   0.202
    7X2IT   C10  225   0.699   4.360   0.257
    7X2IT    C9  226   0.668   4.277   0.379
    7X2IT    C4  227   0.748   4.316   0.485
    7X2IT    C5  228   0.742   4.254   0.622
    7X2IT    O1  229   0.820   4.293   0.709
    7X2IT    C6  230   0.643   4.151   0.641
    7X2IT   C12  231   0.631   4.085   0.777
    7X2IT    C7  232   0.563   4.112   0.535
    7X2IT    C8  233   0.571   4.175   0.396
    7X2IT    O2  234   0.491   4.135   0.310
    7X2IT    N3  235   0.470   4.016   0.544
    7X2IT   H15  236   0.450   3.966   0.628
    7X2IT   H16  237   0.415   3.996   0.459
    7X2IT    N2  238   0.838   4.410   0.448
    7X2IT    C3  239   0.892   4.520   0.530
    7X2IT    C2  240   0.850   4.643   0.451
    7X2IT    H2  241   0.902   4.738   0.466
    7X2IT    N1  242   0.705   4.643   0.420
    7X2IT   H14  243   0.675   4.738   0.399
    7X2IT    C1  244   0.802   4.601   0.316
    7X2IT    H1  245   0.817   4.661   0.227
    7X2IT   C11  246   0.818   4.450   0.306
    7X2IT    O3  247   0.936   4.433   0.229
    7X2IT   C15  248   0.999   4.305   0.234
    8X2IT   H18  249   0.892   1.436   1.504
    8X2IT    N4  250   0.915   1.533   1.514
    8X2IT   H17  251   0.904   1.575   1.605
    8X2IT   C14  252   1.012   1.581   1.431
    8X2IT    O5  253   1.052   1.525   1.330
    8X2IT    O4  254   1.055   1.703   1.474
    8X2IT   C13  255   1.153   1.769   1.392
    8X2IT   C10  256   1.087   1.844   1.275
    8X2IT    C9  257   1.187   1.921   1.190
    8X2IT    C4  258   1.154   2.055   1.187
    8X2IT    C5  259   1.232   2.159   1.112
    8X2IT    O1  260   1.193   2.276   1.112
    8X2IT    C6  261   1.351   2.113   1.043
    8X2IT   C12  262   1.435   2.213   0.966
    8X2IT    C7  263   1.383   1.979   1.046
    8X2IT    C8  264   1.302   1.874   1.121
    8X2IT    O2  265   1.342   1.756   1.120
    8X2IT    N3  266   1.490   1.927   0.983
    8X2IT   H15  267   1.555   1.982   0.931
    8X2IT   H16  268   1.505   1.826   0.993
    8X2IT    N2  269   1.038   2.080   1.252
    8X2IT    C3  270   1.001   2.201   1.328
    8X2IT    C2  271   0.976   2.146   1.467
    8X2IT    H2  272   0.916   2.203   1.538
    8X2IT    N1  273   1.089   2.064   1.516
    8X2IT   H14  274   1.085   2.058   1.618
    8X2IT    C1  275   0.969   1.998   1.461
    8X2IT    H1  276   0.904   1.939   1.524
    8X2IT   C11  277   0.984   1.956   1.315
    8X2IT    O3  278   0.852   1.928   1.273
    8X2IT   C15  279   0.828   1.924   1.132
    9X2IT   H18  280   1.270   3.864  -0.188
    9X2IT    N4  281   1.295   3.844  -0.093
    9X2IT   H17  282   1.219   3.823  -0.029
    9X2IT   C14  283   1.417   3.788  -0.072
    9X2IT    O5  284   1.508   3.785  -0.154
    9X2IT    O4  285   1.425   3.739   0.055
    9X2IT   C13  286   1.552   3.682   0.093
    9X2IT   C10  287   1.652   3.790   0.139
    9X2IT    C9  288   1.783   3.734   0.186
    9X2IT    C4  289   1.808   3.773   0.317
    9X2IT    C5  290   1.930   3.734   0.394
    9X2IT    O1  291   1.946   3.777   0.510
    9X2IT    C6  292   2.024   3.647   0.327
    9X2IT   C12  293   2.149   3.603   0.400
    9X2IT    C7  294   2.000   3.609   0.197
    9X2IT    C8  295   1.875   3.650   0.118
    9X2IT    O2  296   1.862   3.606   0.003
    9X2IT    N3  297   2.082   3.530   0.126
    9X2IT   H15  298   2.168   3.492   0.163
    9X2IT   H16  299   2.054   3.507   0.030
    9X2IT    N2  300   1.713   3.858   0.363
    9X2IT    C3  301   1.662   3.871   0.501
    9X2IT    C2  302   1.514   3.839   0.484
    9X2IT    H2  303   1.443   3.872   0.560
    9X2IT    N1  304   1.492   3.712   0.412
    9X2IT   H14  305   1.398   3.677   0.433
    9X2IT    C1  306   1.480   3.840   0.340
    9X2IT    H1  307   1.384   3.873   0.302
    9X2IT   C11  308   1.605   3.877   0.262
    9X2IT    O3  309   1.586   4.014   0.229
    9X2IT   C15  310   1.702   4.088   0.190
   10X2IT   H18  311   4.127   1.171   1.822
   10X2IT    N4  312   4.055   1.154   1.890
   10X2IT   H17  313   3.974   1.100   1.859
   10X2IT   C14  314   4.095   1.145   2.020
   10X2IT    O5  315   4.202   1.182   2.064
   10X2IT    O4  316   3.994   1.091   2.096
   10X2IT   C13  317   4.020   1.082   2.238
   10X2IT   C10  318   3.991   1.215   2.309
   10X2IT    C9  319   4.010   1.207   2.459
   10X2IT    C4  320   3.893   1.241   2.524
   10X2IT    C5  321   3.877   1.243   2.673
   10X2IT    O1  322   3.769   1.278   2.723
   10X2IT    C6  323   3.993   1.203   2.751
   10X2IT   C12  324   3.984   1.203   2.902
   10X2IT    C7  325   4.110   1.170   2.686
   10X2IT    C8  326   4.125   1.170   2.533
   10X2IT    O2  327   4.234   1.134   2.486
   10X2IT    N3  328   4.223   1.134   2.749
   10X2IT   H15  329   4.230   1.127   2.849
   10X2IT   H16  330   4.303   1.110   2.691
   10X2IT    N2  331   3.796   1.280   2.437
   10X2IT    C3  332   3.651   1.261   2.450
   10X2IT    C2  333   3.618   1.179   2.326
   10X2IT    H2  334   3.516   1.176   2.288
   10X2IT    N1  335   3.704   1.059   2.314
   10X2IT   H14  336   3.659   0.991   2.253
   10X2IT    C1  337   3.735   1.180   2.234
   10X2IT    H1  338   3.726   1.179   2.126
   10X2IT   C11  339   3.843   1.267   2.297
   10X2IT    O3  340   3.833   1.389   2.226
   10X2IT   C15  341   3.894   1.505   2.286
   11X2IT   H18  342   2.382   0.557   1.804
   11X2IT    N4  343   2.456   0.605   1.851
   11X2IT   H17  344   2.467   0.589   1.950
   11X2IT   C14  345   2.568   0.633   1.777
   11X2IT    O5  346   2.573   0.629   1.655
   11X2IT    O4  347   2.671   0.670   1.858
   11X2IT   C13  348   2.793   0.708   1.792
   11X2IT   C10  349   2.789   0.855   1.747
   11X2IT    C9  350   2.918   0.902   1.684
   11X2IT    C4  351   2.969   1.010   1.753
   11X2IT    C5  352   3.096   1.080   1.717
   11X2IT    O1  353   3.132   1.179   1.782
   11X2IT    C6  354   3.170   1.027   1.605
   11X2IT   C12  355   3.300   1.092   1.563
   11X2IT    C7  356   3.119   0.919   1.535
   11X2IT    C8  357   2.988   0.849   1.573
   11X2IT    O2  358   2.954   0.750   1.506
   11X2IT    N3  359   3.179   0.863   1.429
   11X2IT   H15  360   3.267   0.895   1.392
   11X2IT   H16  361   3.133   0.782   1.386
   11X2IT    N2  362   2.885   1.051   1.852
   11X2IT    C3  363   2.922   1.110   1.982
   11X2IT    C2  364   2.862   1.010   2.080
   11X2IT    H2  365   2.842   1.041   2.183
   11X2IT    N1  366   2.904   0.871   2.052
   11X2IT   H14  367   2.892   0.814   2.136
   11X2IT    C1  368   2.771   0.918   2.008
   11X2IT    H1  369   2.681   0.877   2.052
   11X2IT   C11  370   2.767   0.961   1.862
   11X2IT    O3  371   2.645   1.031   1.850
   11X2IT   C15  372   2.630   1.117   1.736
   12X2IT   H18  373   4.401   0.542  -0.546
   12X2IT    N4  374   4.339   0.514  -0.473
   12X2IT   H17  375   4.274   0.439  -0.494
   12X2IT   C14  376   4.384   0.529  -0.345
   12X2IT    O5  377   4.480   0.597  -0.312
   12X2IT    O4  378   4.304   0.461  -0.259
   12X2IT   C13  379   4.336   0.473  -0.118
   12X2IT   C10  380   4.276   0.601  -0.058
   12X2IT    C9  381   4.302   0.614   0.090
   12X2IT    C4  382   4.182   0.624   0.159
   12X2IT    C5  383   4.172   0.637   0.308
   12X2IT    O1  384   4.061   0.649   0.361
   12X2IT    C6  385   4.296   0.636   0.382
   12X2IT   C12  386   4.293   0.649   0.533
   12X2IT    C7  387   4.416   0.628   0.313
   12X2IT    C8  388   4.425   0.615   0.161
   12X2IT    O2  389   4.538   0.603   0.110
   12X2IT    N3  390   4.536   0.628   0.372
   12X2IT   H15  391   4.549   0.634   0.472
   12X2IT   H16  392   4.618   0.619   0.312
   12X2IT    N2  393   4.076   0.628   0.075
   12X2IT    C3  394   3.941   0.574   0.098
   12X2IT    C2  395   3.926   0.474  -0.016
   12X2IT    H2  396   3.827   0.441  -0.047
   12X2IT    N1  397   4.040   0.379  -0.022
   12X2IT   H14  398   4.012   0.295  -0.073
   12X2IT    C1  399   4.036   0.494  -0.114
   12X2IT    H1  400   4.023   0.480  -0.220
   12X2IT   C11  401   4.119   0.612  -0.066
   12X2IT    O3  402   4.076   0.720  -0.147
   12X2IT   C15  403   4.107   0.852  -0.102
   13X2IT   H18  404   3.852   2.640   2.838
   13X2IT    N4  405   3.787   2.715   2.824
   13X2IT   H17  406   3.780   2.784   2.898
   13X2IT   C14  407   3.762   2.752   2.695
   13X2IT    O5  408   3.791   2.686   2.597
   13X2IT    O4  409   3.697   2.872   2.693
   13X2IT   C13  410   3.659   2.921   2.562
   13X2IT   C10  411   3.527   2.858   2.515
   13X2IT    C9  412   3.479   2.912   2.382
   13X2IT    C4  413   3.354   2.968   2.395
   13X2IT    C5  414   3.278   3.031   2.282
   13X2IT    O1  415   3.164   3.075   2.302
   13X2IT    C6  416   3.345   3.035   2.154
   13X2IT   C12  417   3.275   3.098   2.035
   13X2IT    C7  418   3.470   2.978   2.141
   13X2IT    C8  419   3.546   2.913   2.257
   13X2IT    O2  420   3.660   2.870   2.235
   13X2IT    N3  421   3.539   2.976   2.026
   13X2IT   H15  422   3.505   3.016   1.940
   13X2IT   H16  423   3.632   2.932   2.028
   13X2IT    N2  424   3.303   2.952   2.520
   13X2IT    C3  425   3.214   3.043   2.594
   13X2IT    C2  426   3.298   3.076   2.717
   13X2IT    H2  427   3.249   3.114   2.807
   13X2IT    N1  428   3.434   3.123   2.682
   13X2IT   H14  429   3.473   3.175   2.761
   13X2IT    C1  430   3.413   2.983   2.725
   13X2IT    H1  431   3.454   2.947   2.819
   13X2IT   C11  432   3.403   2.885   2.609
   13X2IT    O3  433   3.351   2.767   2.667
   13X2IT   C15  434   3.293   2.670   2.579
   14X2IT   H18  435   0.165   3.040   4.500
   14X2IT    N4  436   0.264   3.052   4.505
   14X2IT   H17  437   0.303   3.080   4.594
   14X2IT   C14  438   0.340   2.975   4.421
   14X2IT    O5  439   0.297   2.915   4.324
   14X2IT    O4  440   0.471   2.980   4.458
   14X2IT   C13  441   0.563   2.908   4.374
   14X2IT   C10  442   0.605   2.992   4.252
   14X2IT    C9  443   0.707   2.923   4.165
   14X2IT    C4  444   0.821   3.000   4.154
   14X2IT    C5  445   0.943   2.961   4.075
   14X2IT    O1  446   1.039   3.039   4.068
   14X2IT    C6  447   0.938   2.832   4.010
   14X2IT   C12  448   1.058   2.785   3.930
   14X2IT    C7  449   0.824   2.754   4.020
   14X2IT    C8  450   0.701   2.796   4.101
   14X2IT    O2  451   0.606   2.717   4.106
   14X2IT    N3  452   0.810   2.634   3.963
   14X2IT   H15  453   0.882   2.591   3.908
   14X2IT   H16  454   0.722   2.585   3.978
   14X2IT    N2  455   0.807   3.120   4.216
   14X2IT    C3  456   0.911   3.199   4.284
   14X2IT    C2  457   0.856   3.208   4.426
   14X2IT    H2  458   0.892   3.287   4.493
   14X2IT    N1  459   0.821   3.075   4.481
   14X2IT   H14  460   0.819   3.080   4.584
   14X2IT    C1  461   0.715   3.163   4.428
   14X2IT    H1  462   0.640   3.205   4.493
   14X2IT   C11  463   0.675   3.129   4.285
   14X2IT    O3  464   0.600   3.241   4.242
   14X2IT   C15  465   0.582   3.257   4.101
   15X2IT   H18  466   1.011   3.437   2.324
   15X2IT    N4  467   1.090   3.483   2.365
   15X2IT   H17  468   1.152   3.533   2.303
   15X2IT   C14  469   1.075   3.527   2.493
   15X2IT    O5  470   0.987   3.493   2.570
   15X2IT    O4  471   1.177   3.613   2.525
   15X2IT   C13  472   1.177   3.663   2.660
   15X2IT   C10  473   1.244   3.563   2.757
   15X2IT    C9  474   1.253   3.615   2.899
   15X2IT    C4  475   1.385   3.617   2.940
   15X2IT    C5  476   1.429   3.664   3.076
   15X2IT    O1  477   1.549   3.658   3.106
   15X2IT    C6  478   1.325   3.712   3.165
   15X2IT   C12  479   1.363   3.761   3.303
   15X2IT    C7  480   1.194   3.709   3.123
   15X2IT    C8  481   1.150   3.660   2.985
   15X2IT    O2  482   1.029   3.666   2.957
   15X2IT    N3  483   1.091   3.750   3.199
   15X2IT   H15  484   1.102   3.786   3.292
   15X2IT   H16  485   0.997   3.744   3.157
   15X2IT    N2  486   1.468   3.564   2.848
   15X2IT    C3  487   1.608   3.603   2.819
   15X2IT    C2  488   1.600   3.646   2.673
   15X2IT    H2  489   1.690   3.648   2.613
   15X2IT    N1  490   1.493   3.745   2.649
   15X2IT   H14  491   1.512   3.796   2.562
   15X2IT    C1  492   1.469   3.603   2.616
   15X2IT    H1  493   1.457   3.571   2.513
   15X2IT   C11  494   1.394   3.527   2.724
   15X2IT    O3  495   1.412   3.391   2.690
   15X2IT   C15  496   1.386   3.294   2.792
   16X2IT   H18  497   2.805   2.238   0.239
   16X2IT    N4  498   2.718   2.230   0.287
   16X2IT   H17  499   2.687   2.137   0.311
   16X2IT   C14  500   2.684   2.334   0.369
   16X2IT    O5  501   2.735   2.445   0.366
   16X2IT    O4  502   2.581   2.298   0.451
   16X2IT   C13  503   2.530   2.400   0.539
   16X2IT   C10  504   2.428   2.490   0.466
   16X2IT    C9  505   2.366   2.595   0.557
   16X2IT    C4  506   2.229   2.581   0.559
   16X2IT    C5  507   2.137   2.668   0.640
   16X2IT    O1  508   2.015   2.651   0.633
   16X2IT    C6  509   2.200   2.770   0.721
   16X2IT   C12  510   2.113   2.861   0.805
   16X2IT    C7  511   2.337   2.784   0.717
   16X2IT    C8  512   2.430   2.695   0.634
   16X2IT    O2  513   2.552   2.714   0.642
   16X2IT    N3  514   2.404   2.877   0.788
   16X2IT   H15  515   2.360   2.943   0.849
   16X2IT   H16  516   2.506   2.878   0.779
   16X2IT    N2  517   2.186   2.484   0.474
   16X2IT    C3  518   2.070   2.394   0.491
   16X2IT    C2  519   2.135   2.257   0.489
   16X2IT    H2  520   2.075   2.169   0.465
   16X2IT    N1  521   2.247   2.246   0.586
   16X2IT   H14  522   2.264   2.147   0.607
   16X2IT    C1  523   2.276   2.269   0.443
   16X2IT    H1  524   2.326   2.194   0.383
   16X2IT   C11  525   2.301   2.416   0.409
   16X2IT    O3  526   2.293   2.421   0.268
   16X2IT   C15  527   2.274   2.550   0.208
   17X2IT   H18  528   4.820   1.361   1.636
   17X2IT    N4  529   4.738   1.419   1.633
   17X2IT   H17  530   4.693   1.440   1.720
   17X2IT   C14  531   4.733   1.511   1.532
   17X2IT    O5  532   4.803   1.510   1.432
   17X2IT    O4  533   4.635   1.602   1.557
   17X2IT   C13  534   4.613   1.702   1.455
   17X2IT   C10  535   4.523   1.649   1.342
   17X2IT    C9  536   4.492   1.753   1.236
   17X2IT    C4  537   4.356   1.771   1.226
   17X2IT    C5  538   4.291   1.868   1.131
   17X2IT    O1  539   4.168   1.875   1.125
   17X2IT    C6  540   4.380   1.948   1.049
   17X2IT   C12  541   4.322   2.048   0.952
   17X2IT    C7  542   4.517   1.928   1.060
   17X2IT    C8  543   4.581   1.829   1.156
   17X2IT    O2  544   4.705   1.823   1.160
   17X2IT    N3  545   4.607   1.996   0.987
   17X2IT   H15  546   4.583   2.067   0.920
   17X2IT   H16  547   4.706   1.975   1.004
   17X2IT    N2  548   4.286   1.686   1.305
   17X2IT    C3  549   4.158   1.710   1.374
   17X2IT    C2  550   4.196   1.691   1.520
   17X2IT    H2  551   4.118   1.670   1.593
   17X2IT    N1  552   4.313   1.773   1.559
   17X2IT   H14  553   4.313   1.785   1.661
   17X2IT    C1  554   4.330   1.629   1.529
   17X2IT    H1  555   4.358   1.559   1.606
   17X2IT   C11  556   4.379   1.603   1.387
   17X2IT    O3  557   4.357   1.464   1.368
   17X2IT   C15  558   4.356   1.416   1.233
   18X2IT   H18  559   0.821   1.339   0.392
   18X2IT    N4  560   0.856   1.372   0.305
   18X2IT   H17  561   0.789   1.391   0.232
   18X2IT   C14  562   0.971   1.446   0.309
   18X2IT    O5  563   1.047   1.451   0.404
   18X2IT    O4  564   0.990   1.510   0.190
   18X2IT   C13  565   1.112   1.587   0.178
   18X2IT   C10  566   1.231   1.498   0.139
   18X2IT    C9  567   1.359   1.576   0.119
   18X2IT    C4  568   1.407   1.555  -0.009
   18X2IT    C5  569   1.533   1.619  -0.062
   18X2IT    O1  570   1.571   1.592  -0.177
   18X2IT    C6  571   1.602   1.709   0.027
   18X2IT   C12  572   1.729   1.776  -0.021
   18X2IT    C7  573   1.554   1.728   0.155
   18X2IT    C8  574   1.427   1.662   0.208
   18X2IT    O2  575   1.391   1.691   0.323
   18X2IT    N3  576   1.613   1.808   0.245
   18X2IT   H15  577   1.697   1.861   0.226
   18X2IT   H16  578   1.568   1.817   0.336
   18X2IT    N2  579   1.333   1.465  -0.078
   18X2IT    C3  580   1.306   1.462  -0.223
   18X2IT    C2  581   1.154   1.472  -0.227
   18X2IT    H2  582   1.100   1.439  -0.316
   18X2IT    N1  583   1.103   1.586  -0.148
   18X2IT   H14  584   1.009   1.610  -0.180
   18X2IT    C1  585   1.099   1.450  -0.090
   18X2IT    H1  586   1.005   1.401  -0.072
   18X2IT   C11  587   1.216   1.421   0.003
   18X2IT    O3  588   1.213   1.280   0.019
   18X2IT   C15  589   1.331   1.217   0.069
   19X2IT   H18  590   2.299   3.379   2.271
   19X2IT    N4  591   2.314   3.477   2.255
   19X2IT   H17  592   2.368   3.528   2.324
   19X2IT   C14  593   2.320   3.517   2.124
   19X2IT    O5  594   2.281   3.451   2.029
   19X2IT    O4  595   2.371   3.643   2.116
   19X2IT   C13  596   2.376   3.701   1.984
   19X2IT   C10  597   2.241   3.763   1.944
   19X2IT    C9  598   2.245   3.831   1.809
   19X2IT    C4  599   2.209   3.964   1.821
   19X2IT    C5  600   2.203   4.060   1.706
   19X2IT    O1  601   2.166   4.177   1.726
   19X2IT    C6  602   2.241   4.008   1.577
   19X2IT   C12  603   2.238   4.100   1.456
   19X2IT    C7  604   2.276   3.875   1.564
   19X2IT    C8  605   2.281   3.778   1.682
   19X2IT    O2  606   2.318   3.662   1.660
   19X2IT    N3  607   2.311   3.818   1.448
   19X2IT   H15  608   2.315   3.868   1.361
   19X2IT   H16  609   2.336   3.719   1.451
   19X2IT    N2  610   2.172   3.995   1.948
   19X2IT    C3  611   2.191   4.123   2.019
   19X2IT    C2  612   2.276   4.082   2.138
   19X2IT    H2  613   2.280   4.146   2.226
   19X2IT    N1  614   2.396   4.006   2.097
   19X2IT   H14  615   2.466   4.011   2.172
   19X2IT    C1  616   2.278   3.934   2.148
   19X2IT    H1  617   2.282   3.881   2.243
   19X2IT   C11  618   2.189   3.878   2.038
   19X2IT    O3  619   2.069   3.844   2.105
   19X2IT   C15  620   1.952   3.825   2.024
   20X2IT   H18  621   4.175   0.414   1.581
   20X2IT    N4  622   4.163   0.331   1.635
   20X2IT   H17  623   4.136   0.247   1.586
   20X2IT   C14  624   4.240   0.320   1.748
   20X2IT    O5  625   4.299   0.411   1.802
   20X2IT    O4  626   4.236   0.191   1.794
   20X2IT   C13  627   4.307   0.166   1.917
   20X2IT   C10  628   4.223   0.203   2.040
   20X2IT    C9  629   4.291   0.171   2.171
   20X2IT    C4  630   4.214   0.085   2.246
   20X2IT    C5  631   4.253   0.033   2.381
   20X2IT    O1  632   4.175  -0.042   2.443
   20X2IT    C6  633   4.381   0.075   2.432
   20X2IT   C12  634   4.428   0.026   2.567
   20X2IT    C7  635   4.458   0.162   2.357
   20X2IT    C8  636   4.417   0.215   2.220
   20X2IT    O2  637   4.496   0.290   2.160
   20X2IT    N3  638   4.578   0.208   2.397
   20X2IT   H15  639   4.621   0.182   2.483
   20X2IT   H16  640   4.627   0.271   2.333
   20X2IT    N2  641   4.094   0.058   2.187
   20X2IT    C3  642   4.016  -0.066   2.191
   20X2IT    C2  643   4.009  -0.105   2.044
   20X2IT    H2  644   3.931  -0.173   2.010
   20X2IT    N1  645   4.142  -0.108   1.980
   20X2IT   H14  646   4.138  -0.166   1.896
   20X2IT    C1  647   4.054   0.009   1.961
   20X2IT    H1  648   4.012   0.031   1.863
   20X2IT   C11  649   4.086   0.125   2.054
   20X2IT    O3  650   3.973   0.210   2.044
   20X2IT   C15  651   3.955   0.308   2.147
   21X2IT   H18  652   4.784   0.343   3.930
   21X2IT    N4  653   4.827   0.365   3.843
   21X2IT   H17  654   4.921   0.332   3.828
   21X2IT   C14  655   4.743   0.378   3.735
   21X2IT    O5  656   4.622   0.392   3.742
   21X2IT    O4  657   4.815   0.377   3.619
   21X2IT   C13  658   4.740   0.396   3.498
   21X2IT   C10  659   4.715   0.545   3.470
   21X2IT    C9  660   4.643   0.570   3.339
   21X2IT    C4  661   4.719   0.651   3.257
   21X2IT    C5  662   4.676   0.695   3.120
   21X2IT    O1  663   4.749   0.771   3.055
   21X2IT    C6  664   4.550   0.644   3.072
   21X2IT   C12  665   4.501   0.684   2.934
   21X2IT    C7  666   4.474   0.563   3.155
   21X2IT    C8  667   4.518   0.520   3.295
   21X2IT    O2  668   4.443   0.444   3.358
   21X2IT    N3  669   4.354   0.513   3.120
   21X2IT   H15  670   4.311   0.529   3.031
   21X2IT   H16  671   4.307   0.453   3.188
   21X2IT    N2  672   4.832   0.694   3.319
   21X2IT    C3  673   4.963   0.722   3.257
   21X2IT    C2  674   5.054   0.624   3.331
   21X2IT    H2  675   5.162   0.642   3.333
   21X2IT    N1  676   5.003   0.486   3.327
   21X2IT   H14  677   5.079   0.420   3.345
   21X2IT    C1  678   4.982   0.568   3.448
   21X2IT    H1  679   5.031   0.543   3.541
   21X2IT   C11  680   4.845   0.633   3.454
   21X2IT    O3  681   4.858   0.731   3.555
   21X2IT   C15  682   4.759   0.835   3.559
   22X2IT   H18  683   3.033   5.240   2.665
   22X2IT    N4  684   3.056   5.153   2.710
   22X2IT   H17  685   3.149   5.116   2.694
   22X2IT   C14  686   2.993   5.127   2.828
   22X2IT    O5  687   2.894   5.184   2.870
   22X2IT    O4  688   3.055   5.023   2.892
   22X2IT   C13  689   2.996   4.979   3.016
   22X2IT   C10  690   2.879   4.882   2.991
   22X2IT    C9  691   2.818   4.829   3.119
   22X2IT    C4  692   2.825   4.691   3.121
   22X2IT    C5  693   2.774   4.606   3.234
   22X2IT    O1  694   2.781   4.482   3.225
   22X2IT    C6  695   2.719   4.676   3.347
   22X2IT   C12  696   2.666   4.596   3.465
   22X2IT    C7  697   2.711   4.814   3.344
   22X2IT    C8  698   2.762   4.899   3.228
   22X2IT    O2  699   2.755   5.022   3.238
   22X2IT    N3  700   2.659   4.888   3.444
   22X2IT   H15  701   2.623   4.848   3.529
   22X2IT   H16  702   2.660   4.989   3.432
   22X2IT    N2  703   2.876   4.640   3.005
   22X2IT    C3  704   2.958   4.519   2.987
   22X2IT    C2  705   3.085   4.576   2.926
   22X2IT    H2  706   3.153   4.510   2.871
   22X2IT    N1  707   3.141   4.688   3.006
   22X2IT   H14  708   3.240   4.699   2.983
   22X2IT    C1  709   3.062   4.716   2.884
   22X2IT    H1  710   3.109   4.760   2.797
   22X2IT   C11  711   2.917   4.750   2.913
   22X2IT    O3  712   2.853   4.740   2.787
   22X2IT   C15  713   2.710   4.729   2.787
   23X2IT   H18  714   3.284   3.348   0.899
   23X2IT    N4  715   3.248   3.375   0.809
   23X2IT   H17  716   3.148   3.377   0.797
   23X2IT   C14  717   3.325   3.463   0.738
   23X2IT    O5  718   3.442   3.489   0.760
   23X2IT    O4  719   3.252   3.514   0.634
   23X2IT   C13  720   3.323   3.604   0.545
   23X2IT   C10  721   3.403   3.526   0.439
   23X2IT    C9  722   3.473   3.617   0.340
   23X2IT    C4  723   3.431   3.588   0.211
   23X2IT    C5  724   3.481   3.659   0.089
   23X2IT    O1  725   3.441   3.624  -0.023
   23X2IT    C6  726   3.574   3.767   0.111
   23X2IT   C12  727   3.628   3.844  -0.008
   23X2IT    C7  728   3.616   3.796   0.239
   23X2IT    C8  729   3.566   3.721   0.363
   23X2IT    O2  730   3.607   3.758   0.474
   23X2IT    N3  731   3.704   3.893   0.269
   23X2IT   H15  732   3.746   3.953   0.200
   23X2IT   H16  733   3.727   3.906   0.368
   23X2IT    N2  734   3.347   3.481   0.208
   23X2IT    C3  735   3.235   3.458   0.115
   23X2IT    C2  736   3.117   3.448   0.211
   23X2IT    H2  737   3.025   3.399   0.178
   23X2IT    N1  738   3.109   3.563   0.303
   23X2IT   H14  739   3.014   3.572   0.339
   23X2IT    C1  740   3.166   3.436   0.350
   23X2IT    H1  741   3.116   3.377   0.426
   23X2IT   C11  742   3.318   3.432   0.346
   23X2IT    O3  743   3.350   3.295   0.361
   23X2IT   C15  744   3.482   3.254   0.323
   24X2IT   H18  745   3.261   0.736   0.962
   24X2IT    N4  746   3.292   0.762   0.870
   24X2IT   H17  747   3.377   0.816   0.864
   24X2IT   C14  748   3.261   0.676   0.768
   24X2IT    O5  749   3.177   0.587   0.774
   24X2IT    O4  750   3.335   0.706   0.658
   24X2IT   C13  751   3.308   0.627   0.540
   24X2IT   C10  752   3.186   0.681   0.463
   24X2IT    C9  753   3.158   0.606   0.335
   24X2IT    C4  754   3.162   0.692   0.227
   24X2IT    C5  755   3.139   0.649   0.084
   24X2IT    O1  756   3.140   0.734  -0.006
   24X2IT    C6  757   3.116   0.508   0.063
   24X2IT   C12  758   3.093   0.458  -0.079
   24X2IT    C7  759   3.112   0.422   0.171
   24X2IT    C8  760   3.134   0.467   0.315
   24X2IT    O2  761   3.133   0.381   0.404
   24X2IT    N3  762   3.089   0.290   0.160
   24X2IT   H15  763   3.075   0.244   0.073
   24X2IT   H16  764   3.090   0.236   0.247
   24X2IT    N2  765   3.180   0.821   0.265
   24X2IT    C3  766   3.252   0.927   0.192
   24X2IT    C2  767   3.361   0.965   0.292
   24X2IT    H2  768   3.410   1.062   0.283
   24X2IT    N1  769   3.438   0.848   0.338
   24X2IT   H14  770   3.528   0.879   0.375
   24X2IT    C1  771   3.331   0.904   0.424
   24X2IT    H1  772   3.355   0.952   0.518
   24X2IT   C11  773   3.199   0.830   0.412
   24X2IT    O3  774   3.105   0.917   0.472
   24X2IT   C15  775   2.967   0.894   0.444
   25X2IT   H18  776   0.371   0.210   0.390
   25X2IT    N4  777   0.379   0.138   0.459
   25X2IT   H17  778   0.422   0.051   0.430
   25X2IT   C14  779   0.393   0.178   0.589
   25X2IT    O5  780   0.369   0.291   0.630
   25X2IT    O4  781   0.433   0.074   0.666
   25X2IT   C13  782   0.446   0.100   0.807
   25X2IT   C10  783   0.310   0.089   0.879
   25X2IT    C9  784   0.320   0.109   1.029
   25X2IT    C4  785   0.272  -0.002   1.095
   25X2IT    C5  786   0.268  -0.015   1.245
   25X2IT    O1  787   0.220  -0.117   1.296
   25X2IT    C6  788   0.322   0.095   1.320
   25X2IT   C12  789   0.322   0.089   1.472
   25X2IT    C7  790   0.370   0.207   1.254
   25X2IT    C8  791   0.372   0.219   1.101
   25X2IT    O2  792   0.421   0.322   1.052
   25X2IT    N3  793   0.420   0.315   1.315
   25X2IT   H15  794   0.427   0.323   1.415
   25X2IT   H16  795   0.454   0.391   1.256
   25X2IT    N2  796   0.221  -0.095   1.010
   25X2IT    C3  797   0.222  -0.241   1.024
   25X2IT    C2  798   0.299  -0.285   0.901
   25X2IT    H2  799   0.289  -0.388   0.865
   25X2IT    N1  800   0.429  -0.215   0.888
   25X2IT   H14  801   0.491  -0.270   0.828
   25X2IT    C1  802   0.313  -0.171   0.808
   25X2IT    H1  803   0.313  -0.181   0.700
   25X2IT   C11  804   0.240  -0.052   0.868
   25X2IT    O3  805   0.117  -0.047   0.798
   25X2IT   C15  806   0.011   0.029   0.856
   26X2IT   H18  807   3.673   4.845   2.281
   26X2IT    N4  808   3.710   4.877   2.193
   26X2IT   H17  809   3.792   4.936   2.196
   26X2IT   C14  810   3.690   4.794   2.086
   26X2IT    O5  811   3.611   4.702   2.082
   26X2IT    O4  812   3.770   4.834   1.982
   26X2IT   C13  813   3.755   4.759   1.859
   26X2IT   C10  814   3.637   4.811   1.776
   26X2IT    C9  815   3.622   4.740   1.643
   26X2IT    C4  816   3.629   4.832   1.540
   26X2IT    C5  817   3.619   4.794   1.395
   26X2IT    O1  818   3.622   4.883   1.308
   26X2IT    C6  819   3.605   4.654   1.365
   26X2IT   C12  820   3.594   4.609   1.220
   26X2IT    C7  821   3.597   4.563   1.469
   26X2IT    C8  822   3.607   4.602   1.616
   26X2IT    O2  823   3.603   4.511   1.701
   26X2IT    N3  824   3.582   4.431   1.451
   26X2IT   H15  825   3.576   4.387   1.360
   26X2IT   H16  826   3.579   4.372   1.535
   26X2IT    N2  827   3.637   4.959   1.585
   26X2IT    C3  828   3.708   5.072   1.523
   26X2IT    C2  829   3.808   5.111   1.631
   26X2IT    H2  830   3.853   5.211   1.630
   26X2IT    N1  831   3.888   4.995   1.678
   26X2IT   H14  832   3.974   5.029   1.722
   26X2IT    C1  833   3.772   5.042   1.758
   26X2IT    H1  834   3.787   5.087   1.855
   26X2IT   C11  835   3.645   4.962   1.733
   26X2IT    O3  836   3.543   5.042   1.790
   26X2IT   C15  837   3.408   5.013   1.751
   27X2IT   H18  838   2.033   2.465   1.572
   27X2IT    N4  839   1.997   2.380   1.531
   27X2IT   H17  840   1.929   2.389   1.458
   27X2IT   C14  841   2.082   2.273   1.530
   27X2IT    O5  842   2.184   2.264   1.596
   27X2IT    O4  843   2.034   2.176   1.447
   27X2IT   C13  844   2.110   2.054   1.440
   27X2IT   C10  845   2.074   1.959   1.556
   27X2IT    C9  846   2.147   1.827   1.549
   27X2IT    C4  847   2.057   1.723   1.545
   27X2IT    C5  848   2.096   1.578   1.536
   27X2IT    O1  849   2.007   1.491   1.536
   27X2IT    C6  850   2.237   1.550   1.530
   27X2IT   C12  851   2.283   1.406   1.521
   27X2IT    C7  852   2.328   1.654   1.536
   27X2IT    C8  853   2.286   1.801   1.545
   27X2IT    O2  854   2.376   1.887   1.545
   27X2IT    N3  855   2.461   1.637   1.532
   27X2IT   H15  856   2.505   1.547   1.524
   27X2IT   H16  857   2.518   1.722   1.535
   27X2IT    N2  858   1.928   1.766   1.556
   27X2IT    C3  859   1.808   1.709   1.495
   27X2IT    C2  860   1.756   1.825   1.411
   27X2IT    H2  861   1.652   1.827   1.379
   27X2IT    N1  862   1.861   1.881   1.322
   27X2IT   H14  863   1.816   1.933   1.246
   27X2IT    C1  864   1.828   1.949   1.449
   27X2IT    H1  865   1.781   2.047   1.449
   27X2IT   C11  866   1.924   1.915   1.563
   27X2IT    O3  867   1.857   1.961   1.679
   27X2IT   C15  868   1.903   1.909   1.805
   28X2IT   H18  869   4.211   3.008   3.890
   28X2IT    N4  870   4.118   3.044   3.903
   28X2IT   H17  871   4.046   3.012   3.839
   28X2IT   C14  872   4.083   3.077   4.031
   28X2IT    O5  873   4.161   3.092   4.124
   28X2IT    O4  874   3.948   3.094   4.040
   28X2IT   C13  875   3.897   3.136   4.168
   28X2IT   C10  876   3.908   3.288   4.186
   28X2IT    C9  877   3.850   3.337   4.317
   28X2IT    C4  878   3.750   3.430   4.293
   28X2IT    C5  879   3.671   3.498   4.401
   28X2IT    O1  880   3.586   3.583   4.371
   28X2IT    C6  881   3.701   3.458   4.537
   28X2IT   C12  882   3.624   3.522   4.651
   28X2IT    C7  883   3.801   3.366   4.561
   28X2IT    C8  884   3.881   3.298   4.450
   28X2IT    O2  885   3.966   3.214   4.483
   28X2IT    N3  886   3.837   3.325   4.683
   28X2IT   H15  887   3.792   3.358   4.768
   28X2IT   H16  888   3.911   3.255   4.689
   28X2IT    N2  889   3.738   3.459   4.161
   28X2IT    C3  890   3.616   3.494   4.087
   28X2IT    C2  891   3.609   3.384   3.983
   28X2IT    H2  892   3.550   3.399   3.892
   28X2IT    N1  893   3.618   3.249   4.043
   28X2IT   H14  894   3.579   3.180   3.978
   28X2IT    C1  895   3.737   3.309   3.980
   28X2IT    H1  896   3.779   3.267   3.890
   28X2IT   C11  897   3.831   3.375   4.080
   28X2IT    O3  898   3.917   3.454   4.000
   28X2IT   C15  899   3.992   3.557   4.066
   29X2IT   H18  900   2.222   0.560   2.789
   29X2IT    N4  901   2.214   0.571   2.690
   29X2IT   H17  902   2.274   0.640   2.647
   29X2IT   C14  903   2.180   0.460   2.619
   29X2IT    O5  904   2.131   0.358   2.666
   29X2IT    O4  905   2.203   0.480   2.486
   29X2IT   C13  906   2.165   0.373   2.397
   29X2IT   C10  907   2.015   0.380   2.362
   29X2IT    C9  908   1.973   0.273   2.263
   29X2IT    C4  909   1.918   0.332   2.151
   29X2IT    C5  910   1.866   0.254   2.033
   29X2IT    O1  911   1.815   0.315   1.938
   29X2IT    C6  912   1.878   0.111   2.040
   29X2IT   C12  913   1.828   0.026   1.924
   29X2IT    C7  914   1.932   0.052   2.153
   29X2IT    C8  915   1.984   0.133   2.273
   29X2IT    O2  916   2.035   0.070   2.367
   29X2IT    N3  917   1.947  -0.080   2.169
   29X2IT   H15  918   1.920  -0.147   2.100
   29X2IT   H16  919   1.989  -0.112   2.256
   29X2IT    N2  920   1.909   0.467   2.162
   29X2IT    C3  921   1.921   0.568   2.056
   29X2IT    C2  922   2.040   0.650   2.103
   29X2IT    H2  923   2.054   0.751   2.065
   29X2IT    N1  924   2.158   0.567   2.135
   29X2IT   H14  925   2.242   0.624   2.132
   29X2IT    C1  926   2.071   0.615   2.244
   29X2IT    H1  927   2.108   0.687   2.316
   29X2IT   C11  928   1.969   0.513   2.291
   29X2IT    O3  929   1.878   0.588   2.368
   29X2IT   C15  930   1.750   0.529   2.394
   30X2IT   H18  931   3.177   1.981   1.388
   30X2IT    N4  932   3.273   2.000   1.413
   30X2IT   H17  933   3.320   2.074   1.362
   30X2IT   C14  934   3.308   1.977   1.543
   30X2IT    O5  935   3.243   1.911   1.622
   30X2IT    O4  936   3.428   2.036   1.570
   30X2IT   C13  937   3.481   2.014   1.702
   30X2IT   C10  938   3.555   1.879   1.712
   30X2IT    C9  939   3.618   1.855   1.847
   30X2IT    C4  940   3.754   1.835   1.833
   30X2IT    C5  941   3.847   1.810   1.948
   30X2IT    O1  942   3.967   1.789   1.926
   30X2IT    C6  943   3.788   1.810   2.080
   30X2IT   C12  944   3.876   1.785   2.201
   30X2IT    C7  945   3.652   1.829   2.094
   30X2IT    C8  946   3.558   1.854   1.975
   30X2IT    O2  947   3.438   1.874   2.000
   30X2IT    N3  948   3.588   1.829   2.212
   30X2IT   H15  949   3.634   1.816   2.300
   30X2IT   H16  950   3.487   1.846   2.210
   30X2IT    N2  951   3.793   1.833   1.703
   30X2IT    C3  952   3.920   1.879   1.646
   30X2IT    C2  953   3.875   1.987   1.549
   30X2IT    H2  954   3.940   2.018   1.467
   30X2IT    N1  955   3.786   2.087   1.613
   30X2IT   H14  956   3.786   2.173   1.558
   30X2IT    C1  957   3.727   1.979   1.531
   30X2IT    H1  958   3.678   2.002   1.438
   30X2IT   C11  959   3.677   1.862   1.614
   30X2IT    O3  960   3.657   1.759   1.518
   30X2IT   C15  961   3.647   1.625   1.568
   31X2IT   H18  962   4.123   1.155   3.383
   31X2IT    N4  963   4.130   1.248   3.419
   31X2IT   H17  964   4.218   1.296   3.406
   31X2IT   C14  965   4.015   1.321   3.424
   31X2IT    O5  966   3.902   1.275   3.414
   31X2IT    O4  967   4.044   1.452   3.446
   31X2IT   C13  968   3.930   1.541   3.460
   31X2IT   C10  969   3.874   1.538   3.603
   31X2IT    C9  970   3.760   1.635   3.623
   31X2IT    C4  971   3.790   1.724   3.725
   31X2IT    C5  972   3.698   1.834   3.770
   31X2IT    O1  973   3.732   1.907   3.864
   31X2IT    C6  974   3.573   1.847   3.699
   31X2IT   C12  975   3.476   1.956   3.739
   31X2IT    C7  976   3.543   1.757   3.599
   31X2IT    C8  977   3.637   1.645   3.554
   31X2IT    O2  978   3.601   1.573   3.460
   31X2IT    N3  979   3.428   1.759   3.529
   31X2IT   H15  980   3.356   1.828   3.543
   31X2IT   H16  981   3.417   1.689   3.455
   31X2IT    N2  982   3.909   1.696   3.784
   31X2IT    C3  983   4.006   1.791   3.841
   31X2IT    C2  984   4.131   1.764   3.758
   31X2IT    H2  985   4.229   1.793   3.796
   31X2IT    N1  986   4.104   1.770   3.613
   31X2IT   H14  987   4.191   1.787   3.562
   31X2IT    C1  988   4.112   1.639   3.680
   31X2IT    H1  989   4.192   1.570   3.657
   31X2IT   C11  990   3.976   1.581   3.716
   31X2IT    O3  991   4.006   1.476   3.806
   31X2IT   C15  992   3.898   1.428   3.888
   32X2IT   H18  993   4.677   0.773   0.461
   32X2IT    N4  994   4.738   0.805   0.535
   32X2IT   H17  995   4.784   0.894   0.521
   32X2IT   C14  996   4.705   0.765   0.661
   32X2IT    O5  997   4.629   0.674   0.689
   32X2IT    O4  998   4.775   0.839   0.753
   32X2IT   C13  999   4.756   0.803   0.891
   32X2IT   C10 1000   4.846   0.685   0.932
   32X2IT    C9 1001   4.834   0.649   1.078
   32X2IT    C4 1002   4.958   0.658   1.140
   32X2IT    C5 1003   4.981   0.629   1.285
   32X2IT    O1 1004   5.096   0.636   1.331
   32X2IT    C6 1005   4.865   0.594   1.363
   32X2IT   C12 1006   4.881   0.565   1.511
   32X2IT    C7 1007   4.742   0.585   1.302
   32X2IT    C8 1008   4.719   0.613   1.153
   32X2IT    O2 1009   4.604   0.606   1.109
   32X2IT    N3 1010   4.629   0.551   1.366
   32X2IT   H15 1011   4.625   0.531   1.464
   32X2IT   H16 1012   4.543   0.548   1.310
   32X2IT    N2 1013   5.057   0.687   1.051
   32X2IT    C3 1014   5.178   0.766   1.075
   32X2IT    C2 1015   5.163   0.880   0.975
   32X2IT    H2 1016   5.251   0.937   0.944
   32X2IT    N1 1017   5.032   0.948   0.987
   32X2IT   H14 1018   5.038   1.041   0.945
   32X2IT    C1 1019   5.054   0.848   0.880
   32X2IT    H1 1020   5.055   0.877   0.776
   32X2IT   C11 1021   5.001   0.710   0.915
   32X2IT    O3 1022   5.060   0.624   0.819
   32X2IT   C15 1023   5.061   0.484   0.848
   33X2IT   H18 1024   1.180   4.207   3.943
   33X2IT    N4 1025   1.144   4.278   3.881
   33X2IT   H17 1026   1.069   4.250   3.819
   33X2IT   C14 1027   1.150   4.407   3.926
   33X2IT    O5 1028   1.218   4.446   4.019
   33X2IT    O4 1029   1.071   4.487   3.848
   33X2IT   C13 1030   1.073   4.627   3.880
   33X2IT   C10 1031   1.193   4.698   3.815
   33X2IT    C9 1032   1.194   4.847   3.840
   33X2IT    C4 1033   1.194   4.916   3.719
   33X2IT    C5 1034   1.194   5.066   3.708
   33X2IT    O1 1035   1.197   5.119   3.596
   33X2IT    C6 1036   1.191   5.139   3.832
   33X2IT   C12 1037   1.191   5.291   3.828
   33X2IT    C7 1038   1.193   5.071   3.952
   33X2IT    C8 1039   1.193   4.918   3.962
   33X2IT    O2 1040   1.190   4.867   4.075
   33X2IT    N3 1041   1.192   5.131   4.072
   33X2IT   H15 1042   1.190   5.231   4.084
   33X2IT   H16 1043   1.192   5.070   4.155
   33X2IT    N2 1044   1.201   4.832   3.613
   33X2IT    C3 1045   1.140   4.849   3.480
   33X2IT    C2 1046   1.050   4.727   3.469
   33X2IT    H2 1047   1.016   4.693   3.372
   33X2IT    N1 1048   0.960   4.714   3.586
   33X2IT   H14 1049   0.880   4.655   3.561
   33X2IT    C1 1050   1.083   4.632   3.578
   33X2IT    H1 1051   1.077   4.525   3.567
   33X2IT   C11 1052   1.199   4.690   3.657
   33X2IT    O3 1053   1.312   4.618   3.610
   33X2IT   C15 1054   1.441   4.675   3.636
   34X2IT   H18 1055   0.613   0.760   2.423
   34X2IT    N4 1056   0.552   0.832   2.388
   34X2IT   H17 1057   0.528   0.906   2.452
   34X2IT   C14 1058   0.560   0.860   2.255
   34X2IT    O5 1059   0.612   0.788   2.171
   34X2IT    O4 1060   0.497   0.978   2.228
   34X2IT   C13 1061   0.492   1.017   2.089
   34X2IT   C10 1062   0.375   0.949   2.016
   34X2IT    C9 1063   0.362   0.992   1.872
   34X2IT    C4 1064   0.236   1.046   1.849
   34X2IT    C5 1065   0.190   1.100   1.717
   34X2IT    O1 1066   0.075   1.143   1.705
   34X2IT    C6 1067   0.286   1.096   1.609
   34X2IT   C12 1068   0.247   1.149   1.473
   34X2IT    C7 1069   0.411   1.041   1.631
   34X2IT    C8 1070   0.456   0.986   1.767
   34X2IT    O2 1071   0.572   0.943   1.776
   34X2IT    N3 1072   0.506   1.032   1.537
   34X2IT   H15 1073   0.494   1.065   1.443
   34X2IT   H16 1074   0.596   0.991   1.565
   34X2IT    N2 1075   0.157   1.038   1.959
   34X2IT    C3 1076   0.053   1.132   2.003
   34X2IT    C2 1077   0.103   1.175   2.140
   34X2IT    H2 1078   0.034   1.218   2.212
   34X2IT    N1 1079   0.244   1.222   2.136
   34X2IT   H14 1080   0.262   1.281   2.217
   34X2IT    C1 1081   0.214   1.085   2.182
   34X2IT    H1 1082   0.231   1.057   2.285
   34X2IT   C11 1083   0.232   0.980   2.074
   34X2IT    O3 1084   0.168   0.865   2.127
   34X2IT   C15 1085   0.134   0.761   2.034
   35X2IT   H18 1086   3.467   1.125   3.388
   35X2IT    N4 1087   3.455   1.182   3.470
   35X2IT   H17 1088   3.524   1.253   3.488
   35X2IT   C14 1089   3.326   1.203   3.510
   35X2IT    O5 1090   3.229   1.139   3.473
   35X2IT    O4 1091   3.321   1.305   3.601
   35X2IT   C13 1092   3.192   1.335   3.657
   35X2IT   C10 1093   3.158   1.241   3.774
   35X2IT    C9 1094   3.026   1.273   3.840
   35X2IT    C4 1095   3.045   1.300   3.974
   35X2IT    C5 1096   2.935   1.336   4.069
   35X2IT    O1 1097   2.960   1.355   4.189
   35X2IT    C6 1098   2.802   1.346   4.013
   35X2IT   C12 1099   2.686   1.383   4.103
   35X2IT    C7 1100   2.783   1.319   3.879
   35X2IT    C8 1101   2.897   1.281   3.783
   35X2IT    O2 1102   2.869   1.262   3.664
   35X2IT    N3 1103   2.663   1.323   3.818
   35X2IT   H15 1104   2.579   1.349   3.865
   35X2IT   H16 1105   2.661   1.303   3.718
   35X2IT    N2 1106   3.174   1.282   4.012
   35X2IT    C3 1107   3.250   1.355   4.115
   35X2IT    C2 1108   3.364   1.415   4.034
   35X2IT    H2 1109   3.455   1.447   4.085
   35X2IT    N1 1110   3.317   1.489   3.915
   35X2IT   H14 1111   3.390   1.554   3.885
   35X2IT    C1 1112   3.369   1.351   3.900
   35X2IT    H1 1113   3.461   1.332   3.847
   35X2IT   C11 1114   3.259   1.246   3.895
   35X2IT    O3 1115   3.328   1.123   3.915
   35X2IT   C15 1116   3.249   1.010   3.954
   36X2IT   H18 1117   4.268   4.073   3.112
   36X2IT    N4 1118   4.323   4.004   3.064
   36X2IT   H17 1119   4.305   3.991   2.966
   36X2IT   C14 1120   4.449   3.983   3.112
   36X2IT    O5 1121   4.490   4.019   3.221
   36X2IT    O4 1122   4.522   3.912   3.021
   36X2IT   C13 1123   4.656   3.876   3.061
   36X2IT   C10 1124   4.657   3.748   3.148
   36X2IT    C9 1125   4.796   3.703   3.186
   36X2IT    C4 1126   4.818   3.574   3.141
   36X2IT    C5 1127   4.947   3.500   3.162
   36X2IT    O1 1128   4.957   3.383   3.122
   36X2IT    C6 1129   5.052   3.571   3.230
   36X2IT   C12 1130   5.185   3.502   3.253
   36X2IT    C7 1131   5.030   3.700   3.275
   36X2IT    C8 1132   4.898   3.774   3.254
   36X2IT    O2 1133   4.890   3.891   3.295
   36X2IT    N3 1134   5.121   3.773   3.341
   36X2IT   H15 1135   5.214   3.740   3.361
   36X2IT   H16 1136   5.094   3.868   3.368
   36X2IT    N2 1137   4.708   3.520   3.084
   36X2IT    C3 1138   4.701   3.424   2.973
   36X2IT    C2 1139   4.621   3.501   2.868
   36X2IT    H2 1140   4.571   3.447   2.788
   36X2IT    N1 1141   4.678   3.635   2.842
   36X2IT   H14 1142   4.645   3.669   2.751
   36X2IT    C1 1143   4.561   3.621   2.931
   36X2IT    H1 1144   4.464   3.660   2.902
   36X2IT   C11 1145   4.597   3.620   3.079
   36X2IT    O3 1146   4.480   3.572   3.143
   36X2IT   C15 1147   4.494   3.523   3.277
   37X2IT   H18 1148   1.575   4.229   4.227
   37X2IT    N4 1149   1.559   4.175   4.144
   37X2IT   H17 1150   1.497   4.096   4.152
   37X2IT   C14 1151   1.566   4.243   4.025
   37X2IT    O5 1152   1.616   4.353   4.010
   37X2IT    O4 1153   1.513   4.167   3.925
   37X2IT   C13 1154   1.520   4.223   3.792
   37X2IT   C10 1155   1.657   4.197   3.727
   37X2IT    C9 1156   1.666   4.248   3.585
   37X2IT    C4 1157   1.698   4.145   3.499
   37X2IT    C5 1158   1.713   4.161   3.351
   37X2IT    O1 1159   1.745   4.064   3.282
   37X2IT    C6 1160   1.690   4.294   3.298
   37X2IT   C12 1161   1.704   4.317   3.149
   37X2IT    C7 1162   1.660   4.397   3.384
   37X2IT    C8 1163   1.645   4.379   3.535
   37X2IT    O2 1164   1.613   4.478   3.603
   37X2IT    N3 1165   1.639   4.524   3.345
   37X2IT   H15 1166   1.643   4.553   3.248
   37X2IT   H16 1167   1.615   4.592   3.417
   37X2IT    N2 1168   1.720   4.028   3.565
   37X2IT    C3 1169   1.692   3.891   3.520
   37X2IT    C2 1170   1.595   3.841   3.626
   37X2IT    H2 1171   1.581   3.734   3.640
   37X2IT    N1 1172   1.482   3.934   3.647
   37X2IT   H14 1173   1.404   3.883   3.691
   37X2IT    C1 1174   1.595   3.936   3.741
   37X2IT    H1 1175   1.583   3.904   3.844
   37X2IT   C11 1176   1.697   4.045   3.711
   37X2IT    O3 1177   1.810   4.009   3.788
   37X2IT   C15 1178   1.935   4.070   3.753
   38X2IT   H18 1179   0.727   3.325   1.008
   38X2IT    N4 1180   0.759   3.269   0.931
   38X2IT   H17 1181   0.801   3.180   0.954
   38X2IT   C14 1182   0.691   3.282   0.813
   38X2IT    O5 1183   0.615   3.373   0.786
   38X2IT    O4 1184   0.724   3.180   0.729
   38X2IT   C13 1185   0.664   3.185   0.597
   38X2IT   C10 1186   0.744   3.277   0.503
   38X2IT    C9 1187   0.688   3.279   0.362
   38X2IT    C4 1188   0.786   3.240   0.272
   38X2IT    C5 1189   0.764   3.230   0.124
   38X2IT    O1 1190   0.858   3.197   0.050
   38X2IT    C6 1191   0.631   3.261   0.076
   38X2IT   C12 1192   0.602   3.253  -0.072
   38X2IT    C7 1193   0.534   3.302   0.166
   38X2IT    C8 1194   0.558   3.312   0.317
   38X2IT    O2 1195   0.463   3.345   0.389
   38X2IT    N3 1196   0.409   3.335   0.131
   38X2IT   H15 1197   0.376   3.332   0.037
   38X2IT   H16 1198   0.345   3.362   0.207
   38X2IT    N2 1199   0.905   3.218   0.332
   38X2IT    C3 1200   1.009   3.120   0.296
   38X2IT    C2 1201   1.019   3.036   0.422
   38X2IT    H2 1202   1.108   2.976   0.440
   38X2IT    N1 1203   0.887   2.986   0.468
   38X2IT   H14 1204   0.901   2.905   0.528
   38X2IT    C1 1205   0.947   3.104   0.533
   38X2IT    H1 1206   0.980   3.099   0.636
   38X2IT   C11 1207   0.894   3.236   0.480
   38X2IT    O3 1208   0.986   3.332   0.529
   38X2IT   C15 1209   0.986   3.461   0.465
   39X2IT   H18 1210  -0.127   4.907   3.785
   39X2IT    N4 1211  -0.073   4.888   3.702
   39X2IT   H17 1212  -0.117   4.831   3.631
   39X2IT   C14 1213   0.017   4.983   3.664
   39X2IT    O5 1214   0.057   5.074   3.735
   39X2IT    O4 1215   0.059   4.960   3.537
   39X2IT   C13 1216   0.160   5.049   3.486
   39X2IT   C10 1217   0.301   5.007   3.530
   39X2IT    C9 1218   0.410   5.094   3.473
   39X2IT    C4 1219   0.500   5.018   3.400
   39X2IT    C5 1220   0.620   5.074   3.329
   39X2IT    O1 1221   0.697   4.997   3.270
   39X2IT    C6 1222   0.638   5.216   3.337
   39X2IT   C12 1223   0.757   5.279   3.267
   39X2IT    C7 1224   0.550   5.293   3.410
   39X2IT    C8 1225   0.428   5.235   3.483
   39X2IT    O2 1226   0.352   5.313   3.542
   39X2IT    N3 1227   0.560   5.426   3.424
   39X2IT   H15 1228   0.632   5.481   3.382
   39X2IT   H16 1229   0.487   5.473   3.480
   39X2IT    N2 1230   0.471   4.885   3.407
   39X2IT    C3 1231   0.491   4.783   3.304
   39X2IT    C2 1232   0.350   4.732   3.280
   39X2IT    H2 1233   0.334   4.634   3.234
   39X2IT    N1 1234   0.254   4.842   3.253
   39X2IT   H14 1235   0.172   4.804   3.204
   39X2IT    C1 1236   0.261   4.783   3.388
   39X2IT    H1 1237   0.177   4.726   3.427
   39X2IT   C11 1238   0.346   4.863   3.485
   39X2IT    O3 1239   0.366   4.775   3.594
   39X2IT   C15 1240   0.473   4.805   3.684
   40X2IT   H18 1241   3.423   2.302   3.260
   40X2IT    N4 1242   3.520   2.291   3.287
   40X2IT   H17 1243   3.550   2.338   3.371
   40X2IT   C14 1244   3.580   2.174   3.251
   40X2IT    O5 1245   3.537   2.095   3.168
   40X2IT    O4 1246   3.698   2.159   3.318
   40X2IT   C13 1247   3.776   2.042   3.285
   40X2IT   C10 1248   3.861   2.065   3.159
   40X2IT    C9 1249   3.950   1.948   3.125
   40X2IT    C4 1250   4.082   1.987   3.122
   40X2IT    C5 1251   4.196   1.894   3.093
   40X2IT    O1 1252   4.312   1.939   3.089
   40X2IT    C6 1253   4.163   1.756   3.069
   40X2IT   C12 1254   4.273   1.657   3.039
   40X2IT    C7 1255   4.030   1.717   3.071
   40X2IT    C8 1256   3.914   1.813   3.101
   40X2IT    O2 1257   3.800   1.766   3.104
   40X2IT    N3 1258   3.989   1.591   3.048
   40X2IT   H15 1259   4.052   1.515   3.029
   40X2IT   H16 1260   3.888   1.573   3.054
   40X2IT    N2 1261   4.096   2.120   3.142
   40X2IT    C3 1262   4.207   2.191   3.209
   40X2IT    C2 1263   4.135   2.261   3.324
   40X2IT    H2 1264   4.182   2.347   3.372
   40X2IT    N1 1265   4.051   2.169   3.403
   40X2IT   H14 1266   4.034   2.210   3.495
   40X2IT    C1 1267   3.988   2.255   3.301
   40X2IT    H1 1268   3.921   2.334   3.330
   40X2IT   C11 1269   3.964   2.184   3.169
   40X2IT    O3 1270   3.936   2.289   3.078
   40X2IT   C15 1271   3.947   2.259   2.938
   41X2IT   H18 1272   1.461   1.283   2.890
   41X2IT    N4 1273   1.361   1.278   2.894
   41X2IT   H17 1274   1.316   1.214   2.831
   41X2IT   C14 1275   1.305   1.302   3.016
   41X2IT    O5 1276   1.361   1.356   3.110
   41X2IT    O4 1277   1.175   1.262   3.016
   41X2IT   C13 1278   1.100   1.288   3.137
   41X2IT   C10 1279   1.046   1.432   3.140
   41X2IT    C9 1280   0.961   1.462   3.262
   41X2IT    C4 1281   0.835   1.502   3.223
   41X2IT    C5 1282   0.725   1.538   3.320
   41X2IT    O1 1283   0.616   1.577   3.276
   41X2IT    C6 1284   0.757   1.526   3.460
   41X2IT   C12 1285   0.651   1.560   3.563
   41X2IT    C7 1286   0.883   1.486   3.498
   41X2IT    C8 1287   0.994   1.450   3.399
   41X2IT    O2 1288   1.103   1.412   3.445
   41X2IT    N3 1289   0.922   1.473   3.626
   41X2IT   H15 1290   0.861   1.491   3.704
   41X2IT   H16 1291   1.018   1.442   3.643
   41X2IT    N2 1292   0.823   1.513   3.088
   41X2IT    C3 1293   0.704   1.488   3.005
   41X2IT    C2 1294   0.753   1.377   2.913
   41X2IT    H2 1295   0.701   1.358   2.819
   41X2IT    N1 1296   0.811   1.263   2.988
   41X2IT   H14 1297   0.810   1.180   2.929
   41X2IT    C1 1298   0.900   1.363   2.925
   41X2IT    H1 1299   0.964   1.336   2.841
   41X2IT   C11 1300   0.949   1.470   3.021
   41X2IT    O3 1301   1.002   1.571   2.937
   41X2IT   C15 1302   1.021   1.701   2.995
   42X2IT   H18 1303   3.393   2.851   4.229
   42X2IT    N4 1304   3.325   2.894   4.288
   42X2IT   H17 1305   3.231   2.902   4.251
   42X2IT   C14 1306   3.343   2.881   4.422
   42X2IT    O5 1307   3.447   2.846   4.476
   42X2IT    O4 1308   3.229   2.916   4.489
   42X2IT   C13 1309   3.236   2.913   4.633
   42X2IT   C10 1310   3.298   3.043   4.689
   42X2IT    C9 1311   3.301   3.046   4.840
   42X2IT    C4 1312   3.231   3.157   4.886
   42X2IT    C5 1313   3.214   3.190   5.032
   42X2IT    O1 1314   3.154   3.293   5.064
   42X2IT    C6 1315   3.271   3.097   5.126
   42X2IT   C12 1316   3.257   3.125   5.275
   42X2IT    C7 1317   3.341   2.988   5.080
   42X2IT    C8 1318   3.359   2.955   4.931
   42X2IT    O2 1319   3.420   2.851   4.901
   42X2IT    N3 1320   3.400   2.897   5.160
   42X2IT   H15 1321   3.396   2.902   5.260
   42X2IT   H16 1322   3.448   2.819   5.115
   42X2IT    N2 1323   3.188   3.236   4.785
   42X2IT    C3 1324   3.065   3.317   4.780
   42X2IT    C2 1325   2.992   3.258   4.660
   42X2IT    H2 1326   2.915   3.316   4.609
   42X2IT    N1 1327   2.979   3.111   4.669
   42X2IT   H14 1328   2.903   3.080   4.608
   42X2IT    C1 1329   3.085   3.170   4.584
   42X2IT    H1 1330   3.082   3.159   4.477
   42X2IT   C11 1331   3.221   3.175   4.653
   42X2IT    O3 1332   3.297   3.263   4.572
   42X2IT   C15 1333   3.416   3.319   4.630
   43X2IT   H18 1334   4.759   3.937   0.239
   43X2IT    N4 1335   4.734   4.025   0.196
   43X2IT   H17 1336   4.636   4.041   0.178
   43X2IT   C14 1337   4.816   4.131   0.223
   43X2IT    O5 1338   4.928   4.123   0.271
   43X2IT    O4 1339   4.755   4.247   0.185
   43X2IT   C13 1340   4.832   4.368   0.202
   43X2IT   C10 1341   4.928   4.390   0.084
   43X2IT    C9 1342   5.006   4.519   0.094
   43X2IT    C4 1343   4.983   4.598  -0.017
   43X2IT    C5 1344   5.044   4.734  -0.038
   43X2IT    O1 1345   5.020   4.796  -0.142
   43X2IT    C6 1346   5.130   4.783   0.067
   43X2IT   C12 1347   5.195   4.919   0.053
   43X2IT    C7 1348   5.154   4.703   0.178
   43X2IT    C8 1349   5.092   4.565   0.197
   43X2IT    O2 1350   5.117   4.504   0.302
   43X2IT    N3 1351   5.234   4.739   0.279
   43X2IT   H15 1352   5.282   4.827   0.284
   43X2IT   H16 1353   5.244   4.672   0.357
   43X2IT    N2 1354   4.904   4.536  -0.108
   43X2IT    C3 1355   4.805   4.597  -0.199
   43X2IT    C2 1356   4.676   4.528  -0.157
   43X2IT    H2 1357   4.591   4.526  -0.225
   43X2IT    N1 1358   4.652   4.536  -0.011
   43X2IT   H14 1359   4.553   4.521   0.008
   43X2IT    C1 1360   4.708   4.412  -0.069
   43X2IT    H1 1361   4.651   4.321  -0.069
   43X2IT   C11 1362   4.859   4.403  -0.057
   43X2IT    O3 1363   4.894   4.298  -0.146
   43X2IT   C15 1364   5.031   4.290  -0.187
   44X2IT   H18 1365   2.438   4.369   3.772
   44X2IT    N4 1366   2.493   4.411   3.844
   44X2IT   H17 1367   2.552   4.489   3.818
   44X2IT   C14 1368   2.443   4.406   3.971
   44X2IT    O5 1369   2.353   4.333   4.008
   44X2IT    O4 1370   2.511   4.492   4.052
   44X2IT   C13 1371   2.473   4.492   4.191
   44X2IT   C10 1372   2.542   4.378   4.269
   44X2IT    C9 1373   2.510   4.379   4.416
   44X2IT    C4 1374   2.627   4.390   4.490
   44X2IT    C5 1375   2.630   4.394   4.640
   44X2IT    O1 1376   2.740   4.400   4.699
   44X2IT    C6 1377   2.503   4.390   4.708
   44X2IT   C12 1378   2.500   4.395   4.860
   44X2IT    C7 1379   2.387   4.379   4.634
   44X2IT    C8 1380   2.384   4.374   4.481
   44X2IT    O2 1381   2.274   4.368   4.425
   44X2IT    N3 1382   2.264   4.373   4.688
   44X2IT   H15 1383   2.247   4.377   4.787
   44X2IT   H16 1384   2.185   4.366   4.624
   44X2IT    N2 1385   2.737   4.387   4.412
   44X2IT    C3 1386   2.865   4.457   4.434
   44X2IT    C2 1387   2.876   4.545   4.310
   44X2IT    H2 1388   2.973   4.584   4.279
   44X2IT    N1 1389   2.754   4.626   4.288
   44X2IT   H14 1390   2.777   4.706   4.229
   44X2IT    C1 1391   2.774   4.502   4.210
   44X2IT    H1 1392   2.790   4.506   4.104
   44X2IT   C11 1393   2.700   4.382   4.268
   44X2IT    O3 1394   2.757   4.271   4.202
   44X2IT   C15 1395   2.737   4.142   4.261
   45X2IT   H18 1396   1.377   4.813   1.794
   45X2IT    N4 1397   1.444   4.827   1.720
   45X2IT   H17 1398   1.510   4.903   1.732
   45X2IT   C14 1399   1.482   4.716   1.650
   45X2IT    O5 1400   1.423   4.610   1.650
   45X2IT    O4 1401   1.593   4.744   1.576
   45X2IT   C13 1402   1.641   4.637   1.491
   45X2IT   C10 1403   1.565   4.634   1.357
   45X2IT    C9 1404   1.617   4.528   1.263
   45X2IT    C4 1405   1.657   4.586   1.144
   45X2IT    C5 1406   1.715   4.509   1.028
   45X2IT    O1 1407   1.745   4.569   0.924
   45X2IT    C6 1408   1.730   4.367   1.047
   45X2IT   C12 1409   1.788   4.283   0.934
   45X2IT    C7 1410   1.689   4.309   1.165
   45X2IT    C8 1411   1.630   4.388   1.282
   45X2IT    O2 1412   1.600   4.326   1.385
   45X2IT    N3 1413   1.697   4.177   1.191
   45X2IT   H15 1414   1.736   4.111   1.126
   45X2IT   H16 1415   1.665   4.145   1.283
   45X2IT    N2 1416   1.632   4.719   1.141
   45X2IT    C3 1417   1.709   4.825   1.074
   45X2IT    C2 1418   1.748   4.915   1.190
   45X2IT    H2 1419   1.778   5.018   1.171
   45X2IT    N1 1420   1.812   4.840   1.301
   45X2IT   H14 1421   1.866   4.904   1.359
   45X2IT    C1 1422   1.669   4.877   1.310
   45X2IT    H1 1423   1.636   4.949   1.384
   45X2IT   C11 1424   1.575   4.765   1.271
   45X2IT    O3 1425   1.450   4.829   1.254
   45X2IT   C15 1426   1.349   4.759   1.180
   46X2IT   H18 1427   4.010   2.452  -0.434
   46X2IT    N4 1428   4.000   2.378  -0.367
   46X2IT   H17 1429   4.019   2.284  -0.398
   46X2IT   C14 1430   4.025   2.411  -0.236
   46X2IT    O5 1431   4.031   2.524  -0.192
   46X2IT    O4 1432   4.038   2.297  -0.162
   46X2IT   C13 1433   4.058   2.316  -0.020
   46X2IT   C10 1434   3.924   2.338   0.053
   46X2IT    C9 1435   3.940   2.351   0.203
   46X2IT    C4 1436   3.866   2.254   0.268
   46X2IT    C5 1437   3.860   2.239   0.417
   46X2IT    O1 1438   3.787   2.152   0.467
   46X2IT    C6 1439   3.941   2.330   0.494
   46X2IT   C12 1440   3.940   2.320   0.645
   46X2IT    C7 1441   4.014   2.428   0.430
   46X2IT    C8 1442   4.019   2.443   0.277
   46X2IT    O2 1443   4.092   2.531   0.230
   46X2IT    N3 1444   4.091   2.518   0.493
   46X2IT   H15 1445   4.101   2.521   0.593
   46X2IT   H16 1446   4.142   2.585   0.435
   46X2IT    N2 1447   3.792   2.180   0.181
   46X2IT    C3 1448   3.756   2.038   0.192
   46X2IT    C2 1449   3.818   1.979   0.067
   46X2IT    H2 1450   3.782   1.883   0.029
   46X2IT    N1 1451   3.962   2.014   0.054
   46X2IT   H14 1452   4.007   1.946  -0.008
   46X2IT    C1 1453   3.861   2.088  -0.024
   46X2IT    H1 1454   3.857   2.080  -0.132
   46X2IT   C11 1455   3.820   2.220   0.040
   46X2IT    O3 1456   3.703   2.258  -0.029
   46X2IT   C15 1457   3.619   2.356   0.033
   47X2IT   H18 1458   3.309   2.652   4.179
   47X2IT    N4 1459   3.230   2.650   4.116
   47X2IT   H17 1460   3.139   2.664   4.156
   47X2IT   C14 1461   3.254   2.690   3.988
   47X2IT    O5 1462   3.364   2.702   3.937
   47X2IT    O4 1463   3.135   2.711   3.923
   47X2IT   C13 1464   3.144   2.748   3.784
   47X2IT   C10 1465   3.161   2.624   3.694
   47X2IT    C9 1466   3.164   2.658   3.547
   47X2IT    C4 1467   3.063   2.591   3.480
   47X2IT    C5 1468   3.037   2.602   3.333
   47X2IT    O1 1469   2.946   2.535   3.281
   47X2IT    C6 1470   3.122   2.693   3.260
   47X2IT   C12 1471   3.102   2.710   3.110
   47X2IT    C7 1472   3.224   2.759   3.326
   47X2IT    C8 1473   3.250   2.745   3.476
   47X2IT    O2 1474   3.341   2.813   3.526
   47X2IT    N3 1475   3.309   2.843   3.266
   47X2IT   H15 1476   3.306   2.865   3.168
   47X2IT   H16 1477   3.380   2.888   3.325
   47X2IT    N2 1478   2.995   2.507   3.562
   47X2IT    C3 1479   2.852   2.470   3.557
   47X2IT    C2 1480   2.802   2.517   3.693
   47X2IT    H2 1481   2.709   2.476   3.733
   47X2IT    N1 1482   2.837   2.658   3.720
   47X2IT   H14 1483   2.775   2.696   3.792
   47X2IT    C1 1484   2.917   2.549   3.780
   47X2IT    H1 1485   2.917   2.533   3.887
   47X2IT   C11 1486   3.044   2.518   3.702
   47X2IT    O3 1487   3.087   2.393   3.754
   47X2IT   C15 1488   3.181   2.319   3.676
   48X2IT   H18 1489   2.713   4.293   1.579
   48X2IT    N4 1490   2.812   4.306   1.580
   48X2IT   H17 1491   2.855   4.336   1.493
   48X2IT   C14 1492   2.869   4.343   1.698
   48X2IT    O5 1493   2.815   4.336   1.807
   48X2IT    O4 1494   2.997   4.386   1.677
   48X2IT   C13 1495   3.071   4.423   1.795
   48X2IT   C10 1496   3.134   4.300   1.863
   48X2IT    C9 1497   3.218   4.335   1.983
   48X2IT    C4 1498   3.347   4.288   1.966
   48X2IT    C5 1499   3.458   4.306   2.066
   48X2IT    O1 1500   3.569   4.258   2.044
   48X2IT    C6 1501   3.424   4.381   2.185
   48X2IT   C12 1502   3.531   4.404   2.291
   48X2IT    C7 1503   3.295   4.427   2.203
   48X2IT    C8 1504   3.184   4.406   2.101
   48X2IT    O2 1505   3.072   4.456   2.125
   48X2IT    N3 1506   3.254   4.495   2.311
   48X2IT   H15 1507   3.315   4.519   2.388
   48X2IT   H16 1508   3.157   4.525   2.313
   48X2IT    N2 1509   3.361   4.216   1.851
   48X2IT    C3 1510   3.479   4.207   1.764
   48X2IT    C2 1511   3.425   4.260   1.632
   48X2IT    H2 1512   3.477   4.235   1.539
   48X2IT    N1 1513   3.360   4.391   1.647
   48X2IT   H14 1514   3.357   4.439   1.556
   48X2IT    C1 1515   3.277   4.269   1.638
   48X2IT    H1 1516   3.213   4.251   1.553
   48X2IT   C11 1517   3.233   4.217   1.774
   48X2IT    O3 1518   3.187   4.085   1.747
   48X2IT   C15 1519   3.175   3.996   1.859
   49X2IT   H18 1520   1.076   0.641   3.733
   49X2IT    N4 1521   1.052   0.726   3.780
   49X2IT   H17 1522   1.122   0.766   3.842
   49X2IT   C14 1523   0.967   0.810   3.714
   49X2IT    O5 1524   0.898   0.779   3.618
   49X2IT    O4 1525   0.968   0.934   3.772
   49X2IT   C13 1526   0.878   1.031   3.717
   49X2IT   C10 1527   0.736   1.015   3.774
   49X2IT    C9 1528   0.639   1.120   3.723
   49X2IT    C4 1529   0.585   1.190   3.829
   49X2IT    C5 1530   0.486   1.302   3.814
   49X2IT    O1 1531   0.440   1.357   3.915
   49X2IT    C6 1532   0.450   1.338   3.679
   49X2IT   C12 1533   0.351   1.450   3.656
   49X2IT    C7 1534   0.503   1.267   3.573
   49X2IT    C8 1535   0.603   1.152   3.590
   49X2IT    O2 1536   0.648   1.099   3.488
   49X2IT    N3 1537   0.474   1.292   3.444
   49X2IT   H15 1538   0.411   1.365   3.415
   49X2IT   H16 1539   0.521   1.234   3.374
   49X2IT    N2 1540   0.626   1.141   3.949
   49X2IT    C3 1541   0.649   1.215   4.074
   49X2IT    C2 1542   0.796   1.187   4.101
   49X2IT    H2 1543   0.836   1.199   4.202
   49X2IT    N1 1544   0.882   1.217   3.984
   49X2IT   H14 1545   0.978   1.230   4.016
   49X2IT    C1 1546   0.843   1.077   4.013
   49X2IT    H1 1547   0.916   1.004   4.043
   49X2IT   C11 1548   0.724   1.030   3.930
   49X2IT    O3 1549   0.682   0.911   3.994
   49X2IT   C15 1550   0.550   0.864   3.965
   50X2IT   H18 1551   0.821   2.014   3.104
   50X2IT    N4 1552   0.754   2.088   3.095
   50X2IT   H17 1553   0.675   2.073   3.034
   50X2IT   C14 1554   0.738   2.168   3.205
   50X2IT    O5 1555   0.815   2.174   3.299
   50X2IT    O4 1556   0.625   2.243   3.192
   50X2IT   C13 1557   0.599   2.338   3.297
   50X2IT   C10 1558   0.677   2.469   3.277
   50X2IT    C9 1559   0.647   2.573   3.382
   50X2IT    C4 1560   0.599   2.688   3.322
   50X2IT    C5 1561   0.559   2.812   3.398
   50X2IT    O1 1562   0.521   2.912   3.336
   50X2IT    C6 1563   0.569   2.805   3.542
   50X2IT   C12 1564   0.530   2.925   3.625
   50X2IT    C7 1565   0.618   2.690   3.601
   50X2IT    C8 1566   0.659   2.565   3.523
   50X2IT    O2 1567   0.697   2.466   3.587
   50X2IT    N3 1568   0.632   2.675   3.734
   50X2IT   H15 1569   0.608   2.746   3.800
   50X2IT   H16 1570   0.668   2.584   3.767
   50X2IT    N2 1571   0.601   2.680   3.187
   50X2IT    C3 1572   0.507   2.741   3.091
   50X2IT    C2 1573   0.450   2.620   3.019
   50X2IT    H2 1574   0.403   2.632   2.922
   50X2IT    N1 1575   0.398   2.518   3.114
   50X2IT   H14 1576   0.332   2.457   3.065
   50X2IT    C1 1577   0.532   2.500   3.052
   50X2IT    H1 1578   0.550   2.420   2.982
   50X2IT   C11 1579   0.646   2.545   3.143
   50X2IT    O3 1580   0.757   2.552   3.056
   50X2IT   C15 1581   0.870   2.628   3.101
   51X2IT   H18 1582   1.463   4.824   2.608
   51X2IT    N4 1583   1.427   4.790   2.695
   51X2IT   H17 1584   1.409   4.859   2.767
   51X2IT   C14 1585   1.350   4.678   2.690
   51X2IT    O5 1586   1.343   4.601   2.595
   51X2IT    O4 1587   1.284   4.661   2.808
   51X2IT   C13 1588   1.203   4.542   2.820
   51X2IT   C10 1589   1.288   4.420   2.860
   51X2IT    C9 1590   1.206   4.295   2.880
   51X2IT    C4 1591   1.223   4.246   3.008
   51X2IT    C5 1592   1.155   4.123   3.061
   51X2IT    O1 1593   1.179   4.085   3.177
   51X2IT    C6 1594   1.064   4.056   2.971
   51X2IT   C12 1595   0.992   3.932   3.018
   51X2IT    C7 1596   1.048   4.104   2.843
   51X2IT    C8 1597   1.118   4.229   2.790
   51X2IT    O2 1598   1.093   4.266   2.674
   51X2IT    N3 1599   0.967   4.047   2.751
   51X2IT   H15 1600   0.912   3.966   2.770
   51X2IT   H16 1601   0.962   4.092   2.660
   51X2IT    N2 1602   1.314   4.318   3.078
   51X2IT    C3 1603   1.316   4.346   3.223
   51X2IT    C2 1604   1.310   4.498   3.226
   51X2IT    H2 1605   1.343   4.552   3.315
   51X2IT    N1 1606   1.199   4.552   3.145
   51X2IT   H14 1607   1.177   4.647   3.177
   51X2IT    C1 1608   1.336   4.552   3.090
   51X2IT    H1 1609   1.389   4.644   3.072
   51X2IT   C11 1610   1.363   4.434   2.998
   51X2IT    O3 1611   1.504   4.433   2.984
   51X2IT   C15 1612   1.564   4.312   2.935
   52SOL     OW 1613   0.019   0.368   0.647
   52SOL    HW1 1614  -0.063   0.411   0.686
   52SOL    HW2 1615  -0.009   0.295   0.584
   53SOL     OW 1616   0.569   1.275   1.165
   53SOL    HW1 1617   0.476   1.268   1.128
   53SOL    HW2 1618   0.580   1.364   1.209
   54SOL     OW 1619   1.555   1.511   0.703
   54SOL    HW1 1620   1.498   1.495   0.784
   54SOL    HW2 1621   1.496   1.521   0.623
   55SOL     OW 1622   1.135   0.703   0.717
   55SOL    HW1 1623   1.192   0.781   0.692
   55SOL    HW2 1624   1.075   0.729   0.793
   56SOL     OW 1625   1.755   0.607   0.231
   56SOL    HW1 1626   1.743   0.594   0.132
   56SOL    HW2 1627   1.725   0.526   0.280
   57SOL     OW 1628   0.768   1.144   1.023
   57SOL    HW1 1629   0.690   1.161   1.083
   57SOL    HW2 1630   0.802   1.231   0.987
   58SOL     OW 1631   0.850   0.798   1.823
   58SOL    HW1 1632   0.846   0.874   1.888
   58SOL    HW2 1633   0.872   0.834   1.732
   59SOL     OW 1634   0.685   1.012   0.665
   59SOL    HW1 1635   0.754   0.996   0.735
   59SOL    HW2 1636   0.612   1.069   0.703
   60SOL     OW 1637   0.686   1.161   1.803
   60SOL    HW1 1638   0.746   1.240   1.817
   60SOL    HW2 1639   0.600   1.192   1.762
   61SOL     OW 1640   0.335   1.435   1.061
   61SOL    HW1 1641   0.257   1.404   1.008
   61SOL    HW2 1642   0.393   1.493   1.004
   62SOL     OW 1643   1.460   1.505   1.339
   62SOL    HW1 1644   1.484   1.599   1.365
   62SOL    HW2 1645   1.444   1.451   1.421
   63SOL     OW 1646   1.603   0.447   0.737
   63SOL    HW1 1647   1.529   0.493   0.687
   63SOL    HW2 1648   1.654   0.515   0.790
   64SOL     OW 1649   0.231   1.713   0.483
   64SOL    HW1 1650   0.265   1.790   0.537
   64SOL    HW2 1651   0.275   1.713   0.393
   65SOL     OW 1652   1.127   1.341   1.690
   65SOL    HW1 1653   1.174   1.341   1.778
   65SOL    HW2 1654   1.079   1.254   1.679
   66SOL     OW 1655   0.230   1.434   0.538
   66SOL    HW1 1656   0.204   1.530   0.538
   66SOL    HW2 1657   0.159   1.380   0.583
   67SOL     OW 1658   0.620   1.786   1.439
   67SOL    HW1 1659   0.528   1.769   1.474
   67SOL    HW2 1660   0.648   1.878   1.465
   68SOL     OW 1661   0.606   0.964   0.123
   68SOL    HW1 1662   0.613   1.048   0.069
   68SOL    HW2 1663   0.652   0.977   0.211
   69SOL     OW 1664   1.594   0.114   1.480
   69SOL    HW1 1665   1.576   0.181   1.408
   69SOL    HW2 1666   1.591   0.160   1.569
   70SOL     OW 1667   0.122   0.643   0.563
   70SOL    HW1 1668   0.077   0.555   0.580
   70SOL    HW2 1669   0.121   0.697   0.647
   71SOL     OW 1670   1.842   1.767   0.359
   71SOL    HW1 1671   1.896   1.738   0.439
   71SOL    HW2 1672   1.872   1.857   0.330
   72SOL     OW 1673   0.027   1.596   0.117
   72SOL    HW1 1674   0.008   1.500   0.138
   72SOL    HW2 1675  -0.006   1.654   0.192
   73SOL     OW 1676   1.689   0.922   0.612
   73SOL    HW1 1677   1.784   0.893   0.620
   73SOL    HW2 1678   1.681   0.987   0.537
   74SOL     OW 1679   1.641   1.108   0.432
   74SOL    HW1 1680   1.727   1.110   0.380
   74SOL    HW2 1681   1.655   1.155   0.520
   75SOL     OW 1682   0.113   0.737   1.597
   75SOL    HW1 1683   0.201   0.724   1.642
   75SOL    HW2 1684   0.100   0.834   1.575
   76SOL     OW 1685   0.613   1.365   0.726
   76SOL    HW1 1686   0.564   1.278   0.735
   76SOL    HW2 1687   0.590   1.408   0.639
   77SOL     OW 1688   1.293   1.228   1.423
   77SOL    HW1 1689   1.330   1.155   1.365
   77SOL    HW2 1690   1.345   1.233   1.508
   78SOL     OW 1691   0.809   0.004   0.502
   78SOL    HW1 1692   0.849   0.095   0.493
   78SOL    HW2 1693   0.709   0.012   0.508
   79SOL     OW 1694   0.197   0.976   1.264
   79SOL    HW1 1695   0.286   0.931   1.250
   79SOL    HW2 1696   0.124   0.911   1.245
   80SOL     OW 1697   1.525   0.999   0.190
   80SOL    HW1 1698   1.462   0.923   0.203
   80SOL    HW2 1699   1.573   1.017   0.276
   81SOL     OW 1700   1.187   1.792   1.616
   81SOL    HW1 1701   1.211   1.852   1.540
   81SOL    HW2 1702   1.194   1.697   1.586
   82SOL     OW 1703   0.317   0.251   1.801
   82SOL    HW1 1704   0.388   0.322   1.807
   82SOL    HW2 1705   0.229   0.290   1.829
   83SOL     OW 1706   1.466   1.417   0.953
   83SOL    HW1 1707   1.407   1.423   1.033
   83SOL    HW2 1708   1.451   1.329   0.907
   84SOL     OW 1709   1.667   1.714   0.572
   84SOL    HW1 1710   1.626   1.691   0.484
   84SOL    HW2 1711   1.649   1.640   0.637
   85SOL     OW 1712   0.598   0.729   0.270
   85SOL    HW1 1713   0.622   0.798   0.202
   85SOL    HW2 1714   0.520   0.762   0.324
   86SOL     OW 1715   1.281   0.345   0.944
   86SOL    HW1 1716   1.195   0.295   0.931
   86SOL    HW2 1717   1.343   0.291   1.000
   87SOL     OW 1718   0.807   0.605   1.465
   87SOL    HW1 1719   0.760   0.602   1.554
   87SOL    HW2 1720   0.756   0.550   1.399
   88SOL     OW 1721   1.394   0.469   1.674
   88SOL    HW1 1722   1.374   0.512   1.762
   88SOL    HW2 1723   1.472   0.407   1.683
   89SOL     OW 1724   0.973   0.890   1.572
   89SOL    HW1 1725   1.019   0.806   1.543
   89SOL    HW2 1726   0.917   0.924   1.497
   90SOL     OW 1727   0.991   0.410   1.242
   90SOL    HW1 1728   0.914   0.444   1.296
   90SOL    HW2 1729   0.957   0.359   1.163
   91SOL     OW 1730   1.041   0.701   0.429
   91SOL    HW1 1731   1.067   0.697   0.525
   91SOL    HW2 1732   0.956   0.650   0.415
   92SOL     OW 1733   0.130   1.821   1.571
   92SOL    HW1 1734   0.120   1.806   1.670
   92SOL    HW2 1735   0.044   1.857   1.535
   93SOL     OW 1736   0.865   0.348   0.195
   93SOL    HW1 1737   0.924   0.411   0.146
   93SOL    HW2 1738   0.884   0.254   0.166
   94SOL     OW 1739   1.719   0.585   1.831
   94SOL    HW1 1740   1.693   0.674   1.795
   94SOL    HW2 1741   1.717   0.517   1.758
   95SOL     OW 1742   1.362   1.144   0.545
   95SOL    HW1 1743   1.445   1.115   0.497
   95SOL    HW2 1744   1.313   1.211   0.489
   96SOL     OW 1745   0.351   1.801   0.853
   96SOL    HW1 1746   0.401   1.715   0.859
   96SOL    HW2 1747   0.416   1.878   0.850
   97SOL     OW 1748   1.795   1.066   0.873
   97SOL    HW1 1749   1.733   1.051   0.797
   97SOL    HW2 1750   1.743   1.077   0.958
   98SOL     OW 1751   1.227   1.550   1.506
   98SOL    HW1 1752   1.233   1.473   1.570
   98SOL    HW2 1753   1.175   1.524   1.426
   99SOL     OW 1754   0.321   0.943   0.242
   99SOL    HW1 1755   0.403   0.982   0.200
   99SOL    HW2 1756   0.294   0.861   0.193
  100SOL     OW 1757   1.458   0.735   0.728
  100SOL    HW1 1758   1.453   0.670   0.803
  100SOL    HW2 1759   1.538   0.794   0.741
  101SOL     OW 1760   0.461   1.266   1.727
  101SOL    HW1 1761   0.411   1.267   1.641
  101SOL    HW2 1762   0.398   1.248   1.803
  102SOL     OW 1763   0.202   0.285   1.498
  102SOL    HW1 1764   0.122   0.345   1.485
  102SOL    HW2 1765   0.192   0.236   1.584
  103SOL     OW 1766   1.632   1.377   0.081
  103SOL    HW1 1767   1.600   1.471   0.071
  103SOL    HW2 1768   1.556   1.314   0.069
  104SOL     OW 1769   0.464   1.743   0.323
  104SOL    HW1 1770   0.497   1.782   0.409
  104SOL    HW2 1771   0.540   1.736   0.258
  105SOL     OW 1772   1.400   0.107   0.426
  105SOL    HW1 1773   1.376   0.070   0.336
  105SOL    HW2 1774   1.499   0.123   0.430
  106SOL     OW 1775   0.249   1.785   1.241
  106SOL    HW1 1776   0.306   1.720   1.291
  106SOL    HW2 1777   0.233   1.752   1.148
  107SOL     OW 1778   0.940   1.698   0.904
  107SOL    HW1 1779   1.020   1.641   0.925
  107SOL    HW2 1780   0.891   1.658   0.827
  108SOL     OW 1781   0.382   0.700   0.480
  108SOL    HW1 1782   0.427   0.610   0.477
  108SOL    HW2 1783   0.288   0.689   0.513
  109SOL     OW 1784   1.547   0.222   1.729
  109SOL    HW1 1785   1.542   0.259   1.821
  109SOL    HW2 1786   1.475   0.153   1.717
  110SOL     OW 1787   0.614   0.122   0.117
  110SOL    HW1 1788   0.712   0.100   0.124
  110SOL    HW2 1789   0.583   0.105   0.024
  111SOL     OW 1790   0.781   0.264   1.749
  111SOL    HW1 1791   0.848   0.203   1.792
  111SOL    HW2 1792   0.708   0.283   1.814
  112SOL     OW 1793   0.888   1.514   1.195
  112SOL    HW1 1794   0.865   1.489   1.101
  112SOL    HW2 1795   0.949   1.445   1.234
  113SOL     OW 1796   1.351   0.590   1.433
  113SOL    HW1 1797   1.379   0.547   1.518
  113SOL    HW2 1798   1.376   0.686   1.434
  114SOL     OW 1799   0.803   1.402   0.924
  114SOL    HW1 1800   0.893   1.416   0.882
  114SOL    HW2 1801   0.732   1.404   0.853
  115SOL     OW 1802   0.922   0.503   0.899
  115SOL    HW1 1803   0.897   0.494   0.803
  115SOL    HW2 1804   0.970   0.421   0.930
  116SOL     OW 1805   0.297   0.035   0.171
  116SOL    HW1 1806   0.346   0.119   0.150
  116SOL    HW2 1807   0.359  -0.030   0.216
  117SOL     OW 1808   0.935   0.236   0.480
  117SOL    HW1 1809   0.887   0.277   0.402
  117SOL    HW2 1810   1.034   0.234   0.461
  118SOL     OW 1811   1.076   0.683   1.464
  118SOL    HW1 1812   0.996   0.622   1.467
  118SOL    HW2 1813   1.157   0.630   1.440
  119SOL     OW 1814   1.227   1.570   0.793
  119SOL    HW1 1815   1.248   1.644   0.728
  119SOL    HW2 1816   1.295   1.570   0.866
  120SOL     OW 1817   0.459   1.152   0.741
  120SOL    HW1 1818   0.388   1.125   0.806
  120SOL    HW2 1819   0.433   1.124   0.648
  121SOL     OW 1820   1.271   1.797   0.591
  121SOL    HW1 1821   1.315   1.861   0.527
  121SOL    HW2 1822   1.221   1.849   0.661
  122SOL     OW 1823   1.032   0.549   0.016
  122SOL    HW1 1824   0.991   0.631  -0.023
  122SOL    HW2 1825   1.096   0.575   0.089
  123SOL     OW 1826   0.866   0.454   0.642
  123SOL    HW1 1827   0.834   0.526   0.580
  123SOL    HW2 1828   0.890   0.373   0.589
  124SOL     OW 1829   1.017   0.039   0.753
  124SOL    HW1 1830   0.945   0.044   0.684
  124SOL    HW2 1831   0.993  -0.030   0.822
  125SOL     OW 1832   1.429   1.173   0.867
  125SOL    HW1 1833   1.374   1.089   0.860
  125SOL    HW2 1834   1.455   1.202   0.775
  126SOL     OW 1835   1.466   0.590   0.992
  126SOL    HW1 1836   1.436   0.495   0.999
  126SOL    HW2 1837   1.539   0.606   1.058
  127SOL     OW 1838   1.857   0.833   0.377
  127SOL    HW1 1839   1.899   0.769   0.441
  127SOL    HW2 1840   1.819   0.782   0.299
  128SOL     OW 1841   0.488   1.385   0.174
  128SOL    HW1 1842   0.401   1.370   0.221
  128SOL    HW2 1843   0.471   1.411   0.079
  129SOL     OW 1844   1.664   1.280   0.657
  129SOL    HW1 1845   1.763   1.288   0.671
  129SOL    HW2 1846   1.619   1.364   0.688
  130SOL     OW 1847   1.390   0.575   0.078
  130SOL    HW1 1848   1.336   0.554   0.159
  130SOL    HW2 1849   1.481   0.534   0.087
  131SOL     OW 1850   0.527   0.256   0.328
  131SOL    HW1 1851   0.554   0.197   0.253
  131SOL    HW2 1852   0.527   0.351   0.297
  132SOL     OW 1853   1.754   1.223   1.588
  132SOL    HW1 1854   1.845   1.184   1.575
  132SOL    HW2 1855   1.762   1.319   1.612
  133SOL     OW 1856   1.064   1.347   1.340
  133SOL    HW1 1857   0.984   1.324   1.395
  133SOL    HW2 1858   1.147   1.321   1.389
  134SOL     OW 1859   1.592   1.629   1.625
  134SOL    HW1 1860   1.619   1.663   1.535
  134SOL    HW2 1861   1.671   1.591   1.671
  135SOL     OW 1862   1.111   1.195   1.100
  135SOL    HW1 1863   1.071   1.239   1.181
  135SOL    HW2 1864   1.070   1.232   1.017
  136SOL     OW 1865   1.638   1.099   1.079
  136SOL    HW1 1866   1.643   1.180   1.138
  136SOL    HW2 1867   1.552   1.101   1.028
  137SOL     OW 1868   0.915   0.089   1.402
  137SOL    HW1 1869   0.940   0.069   1.307
  137SOL    HW2 1870   0.987   0.145   1.444
  138SOL     OW 1871   0.980   1.116   1.719
  138SOL    HW1 1872   0.881   1.122   1.729
  138SOL    HW2 1873   1.003   1.036   1.663
  139SOL     OW 1874   0.705   1.050   0.368
  139SOL    HW1 1875   0.691   1.057   0.467
  139SOL    HW2 1876   0.789   0.999   0.350
  140SOL     OW 1877   0.410   0.813   1.251
  140SOL    HW1 1878   0.496   0.825   1.301
  140SOL    HW2 1879   0.368   0.726   1.278
  141SOL     OW 1880   1.274   0.386   1.262
  141SOL    HW1 1881   1.295   0.460   1.326
  141SOL    HW2 1882   1.185   0.403   1.219
  142SOL     OW 1883   0.064   1.564   1.331
  142SOL    HW1 1884   0.018   1.646   1.297
  142SOL    HW2 1885   0.162   1.583   1.340
  143SOL     OW 1886   0.367   1.100   0.501
  143SOL    HW1 1887   0.360   1.183   0.445
  143SOL    HW2 1888   0.371   1.020   0.441
  144SOL     OW 1889   0.566   0.537   0.865
  144SOL    HW1 1890   0.578   0.603   0.791
  144SOL    HW2 1891   0.612   0.571   0.948
  145SOL     OW 1892   1.272   1.445   1.142
  145SOL    HW1 1893   1.319   1.458   1.229
  145SOL    HW2 1894   1.206   1.371   1.151
  146SOL     OW 1895   1.582   0.639   0.472
  146SOL    HW1 1896   1.551   0.700   0.545
  146SOL    HW2 1897   1.632   0.691   0.403
  147SOL     OW 1898   0.354   1.510   1.329
  147SOL    HW1 1899   0.333   1.466   1.242
  147SOL    HW2 1900   0.451   1.536   1.332
  148SOL     OW 1901   0.402   0.751   1.598
  148SOL    HW1 1902   0.470   0.806   1.551
  148SOL    HW2 1903   0.442   0.663   1.625
  149SOL     OW 1904   1.587   0.779   1.670
  149SOL    HW1 1905   1.495   0.817   1.665
  149SOL    HW2 1906   1.647   0.826   1.605
  150SOL     OW 1907   1.013   0.105   1.770
  150SOL    HW1 1908   1.019   0.190   1.718
  150SOL    HW2 1909   1.045   0.029   1.713
  151SOL     OW 1910   0.504   0.050   1.740
  151SOL    HW1 1911   0.462  -0.007   1.670
  151SOL    HW2 1912   0.438   0.119   1.772
  152SOL     OW 1913   0.573   0.870   1.029
  152SOL    HW1 1914   0.617   0.959   1.020
  152SOL    HW2 1915   0.510   0.870   1.106
  153SOL     OW 1916   1.360   0.862   1.045
  153SOL    HW1 1917   1.285   0.862   0.979
  153SOL    HW2 1918   1.397   0.770   1.054
  154SOL     OW 1919   1.209   0.525   0.275
  154SOL    HW1 1920   1.222   0.441   0.329
  154SOL    HW2 1921   1.180   0.599   0.335
  155SOL     OW 1922   0.037   1.310   1.282
  155SOL    HW1 1923   0.090   1.261   1.350
  155SOL    HW2 1924   0.059   1.408   1.287
  156SOL     OW 1925   0.732   0.634   1.064
  156SOL    HW1 1926   0.791   0.608   0.988
  156SOL    HW2 1927   0.704   0.730   1.053
  157SOL     OW 1928   1.728   0.935   1.854
  157SOL    HW1 1929   1.682   0.928   1.765
  157SOL    HW2 1930   1.666   0.979   1.920
  158SOL     OW 1931   1.622   0.367   0.374
  158SOL    HW1 1932   1.624   0.291   0.438
  158SOL    HW2 1933   1.574   0.444   0.414
  159SOL     OW 1934   1.023   0.766   0.966
  159SOL    HW1 1935   1.038   0.787   1.062
  159SOL    HW2 1936   0.993   0.671   0.957
  160SOL     OW 1937   1.540   0.274   0.125
  160SOL    HW1 1938   1.479   0.199   0.148
  160SOL    HW2 1939   1.562   0.326   0.208
  161SOL     OW 1940   1.303   0.838   0.042
  161SOL    HW1 1941   1.337   0.745   0.057
  161SOL    HW2 1942   1.321   0.865  -0.053
  162SOL     OW 1943   1.068   1.333   0.849
  162SOL    HW1 1944   1.075   1.249   0.794
  162SOL    HW2 1945   1.130   1.402   0.813
  163SOL     OW 1946   0.319   0.810   0.949
  163SOL    HW1 1947   0.412   0.846   0.954
  163SOL    HW2 1948   0.313   0.725   1.001
  164SOL     OW 1949   0.339   0.509   1.006
  164SOL    HW1 1950   0.287   0.426   0.989
  164SOL    HW2 1951   0.416   0.514   0.942
  165SOL     OW 1952   1.138   0.380   1.678
  165SOL    HW1 1953   1.093   0.443   1.742
  165SOL    HW2 1954   1.231   0.411   1.661
  166SOL     OW 1955   1.160   0.207   1.477
  166SOL    HW1 1956   1.160   0.271   1.554
  166SOL    HW2 1957   1.188   0.255   1.394
  167SOL     OW 1958   0.008   1.326   0.200
  167SOL    HW1 1959  -0.085   1.347   0.169
  167SOL    HW2 1960   0.018   1.227   0.213
  168SOL     OW 1961   0.088   1.801   0.927
  168SOL    HW1 1962   0.046   1.715   0.900
  168SOL    HW2 1963   0.182   1.804   0.893
  169SOL     OW 1964   0.504   1.568   0.910
  169SOL    HW1 1965   0.570   1.642   0.919
  169SOL    HW2 1966   0.548   1.489   0.868
  170SOL     OW 1967   1.002   0.796   1.238
  170SOL    HW1 1968   1.043   0.764   1.324
  170SOL    HW2 1969   0.906   0.769   1.235
  171SOL     OW 1970   0.189   0.520   1.722
  171SOL    HW1 1971   0.248   0.480   1.652
  171SOL    HW2 1972   0.131   0.591   1.681
  172SOL     OW 1973   1.369   0.950   1.660
  172SOL    HW1 1974   1.408   1.039   1.680
  172SOL    HW2 1975   1.379   0.930   1.563
  173SOL     OW 1976   0.815   0.572   0.325
  173SOL    HW1 1977   0.822   0.483   0.279
  173SOL    HW2 1978   0.721   0.606   0.317
  174SOL     OW 1979   1.657   0.604   1.206
  174SOL    HW1 1980   1.619   0.535   1.268
  174SOL    HW2 1981   1.739   0.568   1.162
  175SOL     OW 1982   0.252   1.564   1.744
  175SOL    HW1 1983   0.222   1.621   1.820
  175SOL    HW2 1984   0.245   1.467   1.770
  176SOL     OW 1985   0.671   0.464   1.269
  176SOL    HW1 1986   0.637   0.375   1.239
  176SOL    HW2 1987   0.697   0.518   1.189
  177SOL     OW 1988   1.347   1.059   1.234
  177SOL    HW1 1989   1.371   0.996   1.160
  177SOL    HW2 1990   1.257   1.099   1.216
  178SOL     OW 1991   1.302   0.855   0.309
  178SOL    HW1 1992   1.216   0.824   0.351
  178SOL    HW2 1993   1.298   0.841   0.210
  179SOL     OW 1994   1.759   1.747   1.154
  179SOL    HW1 1995   1.820   1.777   1.081
  179SOL    HW2 1996   1.721   1.658   1.132
  180SOL     OW 1997   0.083   1.258   1.022
  180SOL    HW1 1998   0.078   1.257   1.122
  180SOL    HW2 1999   0.000   1.217   0.984
  181SOL     OW 2000   0.688   1.662   1.716
  181SOL    HW1 2001   0.632   1.743   1.725
  181SOL    HW2 2002   0.740   1.666   1.630
  182SOL     OW 2003   0.903   0.086   0.133
  182SOL    HW1 2004   0.954   0.087   0.047
  182SOL    HW2 2005   0.959   0.044   0.204
  183SOL     OW 2006   1.726   0.135   0.523
  183SOL    HW1 2007   1.799   0.118   0.456
  183SOL    HW2 2008   1.695   0.048   0.561
  184SOL     OW 2009   0.130   1.794   1.851
  184SOL    HW1 2010   0.089   1.720   1.904
  184SOL    HW2 2011   0.194   1.845   1.909
  185SOL     OW 2012   1.280   0.927   0.672
  185SOL    HW1 2013   1.340   0.846   0.674
  185SOL    HW2 2014   1.320   0.996   0.612
  186SOL     OW 2015   0.830   1.273   1.422
  186SOL    HW1 2016   0.825   1.306   1.517
  186SOL    HW2 2017   0.744   1.292   1.376
  187SOL     OW 2018   0.672   1.616   0.154
  187SOL    HW1 2019   0.681   1.626   0.055
  187SOL    HW2 2020   0.632   1.527   0.175
  188SOL     OW 2021   1.841   0.175   0.963
  188SOL    HW1 2022   1.880   0.090   0.927
  188SOL    HW2 2023   1.743   0.177   0.944
  189SOL     OW 2024   0.822   1.002   1.372
  189SOL    HW1 2025   0.862   1.001   1.280
  189SOL    HW2 2026   0.832   1.094   1.412
  190SOL     OW 2027   0.916   0.910   0.291
  190SOL    HW1 2028   0.979   0.948   0.223
  190SOL    HW2 2029   0.956   0.827   0.330
  191SOL     OW 2030   1.614   1.292   1.289
  191SOL    HW1 2031   1.674   1.295   1.369
  191SOL    HW2 2032   1.539   1.356   1.302
  192SOL     OW 2033   1.039   1.098   0.696
  192SOL    HW1 2034   0.969   1.051   0.750
  192SOL    HW2 2035   1.098   1.030   0.653
  193SOL     OW 2036   1.014   0.236   0.971
  193SOL    HW1 2037   1.006   0.200   0.878
  193SOL    HW2 2038   1.012   0.160   1.036
  194SOL     OW 2039   0.590   1.487   0.491
  194SOL    HW1 2040   0.632   1.429   0.421
  194SOL    HW2 2041   0.546   1.566   0.447
  195SOL     OW 2042   1.709   0.385   1.381
  195SOL    HW1 2043   1.782   0.454   1.385
  195SOL    HW2 2044   1.737   0.310   1.322
  196SOL     OW 2045   0.255   1.348   0.290
  196SOL    HW1 2046   0.159   1.349   0.263
  196SOL    HW2 2047   0.267   1.401   0.374
  197SOL     OW 2048   0.672   0.203   1.489
  197SOL    HW1 2049   0.762   0.187   1.449
  197SOL    HW2 2050   0.680   0.208   1.588
  198SOL     OW 2051   0.075   0.345   0.033
  198SOL    HW1 2052  -0.017   0.317   0.004
  198SOL    HW2 2053   0.106   0.422  -0.023
  199SOL     OW 2054   1.440   0.856   1.398
  199SOL    HW1 2055   1.383   0.908   1.335
  199SOL    HW2 2056   1.536   0.868   1.374
  200SOL     OW 2057   0.072   0.166   0.318
  200SOL    HW1 2058   0.055   0.249   0.264
  200SOL    HW2 2059   0.162   0.129   0.296
  201SOL     OW 2060   0.613   0.842   1.431
  201SOL    HW1 2061   0.669   0.923   1.414
  201SOL    HW2 2062   0.672   0.762   1.434
  202SOL     OW 2063   0.716   0.565   1.708
  202SOL    HW1 2064   0.735   0.630   1.782
  202SOL    HW2 2065   0.776   0.485   1.717
  203SOL     OW 2066   1.450   1.220   1.633
  203SOL    HW1 2067   1.441   1.210   1.732
  203SOL    HW2 2068   1.546   1.213   1.607
  204SOL     OW 2069   0.390   1.741   1.560
  204SOL    HW1 2070   0.299   1.782   1.558
  204SOL    HW2 2071   0.383   1.647   1.592
  205SOL     OW 2072   1.674   0.883   1.254
  205SOL    HW1 2073   1.647   0.794   1.217
  205SOL    HW2 2074   1.675   0.951   1.181
  206SOL     OW 2075   1.225   0.325   0.449
  206SOL    HW1 2076   1.290   0.251   0.438
  206SOL    HW2 2077   1.245   0.375   0.533
  207SOL     OW 2078   0.594   0.745   0.652
  207SOL    HW1 2079   0.644   0.830   0.633
  207SOL    HW2 2080   0.506   0.747   0.604
  208SOL     OW 2081   1.777   0.342   1.642
  208SOL    HW1 2082   1.760   0.373   1.548
  208SOL    HW2 2083   1.693   0.305   1.680
  209SOL     OW 2084   1.730   0.934   1.517
  209SOL    HW1 2085   1.768   1.025   1.532
  209SOL    HW2 2086   1.722   0.917   1.418
  210SOL     OW 2087   0.661   1.790   0.953
  210SOL    HW1 2088   0.615   1.878   0.940
  210SOL    HW2 2089   0.760   1.802   0.946
  211SOL     OW 2090   0.859   0.956   0.861
  211SOL    HW1 2091   0.913   0.887   0.909
  211SOL    HW2 2092   0.827   1.025   0.927
  212SOL     OW 2093   1.083   0.984   0.087
  212SOL    HW1 2094   1.060   1.037   0.005
  212SOL    HW2 2095   1.164   0.928   0.068
  213SOL     OW 2096   1.861   1.569   0.851
  213SOL    HW1 2097   1.790   1.557   0.781
  213SOL    HW2 2098   1.862   1.490   0.911
  214SOL     OW 2099   0.221   1.314   1.844
  214SOL    HW1 2100   0.156   1.241   1.823
  214SOL    HW2 2101   0.225   1.328   1.942
  215SOL     OW 2102   0.079   1.240   0.653
  215SOL    HW1 2103   0.078   1.193   0.741
  215SOL    HW2 2104   0.161   1.212   0.602
  216SOL     OW 2105   0.672   1.391   1.624
  216SOL    HW1 2106   0.594   1.341   1.662
  216SOL    HW2 2107   0.669   1.486   1.655
  217SOL     OW 2108   1.824   0.192   1.227
  217SOL    HW1 2109   1.820   0.102   1.271
  217SOL    HW2 2110   1.827   0.181   1.128
  218SOL     OW 2111   1.705   1.487   1.104
  218SOL    HW1 2112   1.612   1.462   1.077
  218SOL    HW2 2113   1.731   1.437   1.186
  219SOL     OW 2114   0.317   0.547   1.280
  219SOL    HW1 2115   0.355   0.488   1.352
  219SOL    HW2 2116   0.357   0.521   1.192
  220SOL     OW 2117   0.812   1.586   0.687
  220SOL    HW1 2118   0.844   1.596   0.593
  220SOL    HW2 2119   0.733   1.524   0.689
  221SOL     OW 2120   1.424   0.214   1.112
  221SOL    HW1 2121   1.476   0.149   1.167
  221SOL    HW2 2122   1.375   0.277   1.173
  222SOL     OW 2123   1.001   0.034   1.154
  222SOL    HW1 2124   0.938  -0.038   1.123
  222SOL    HW2 2125   1.094  -0.002   1.154
  223SOL     OW 2126   0.618   1.567   1.284
  223SOL    HW1 2127   0.613   1.649   1.341
  223SOL    HW2 2128   0.707   1.564   1.239
  224SOL     OW 2129   1.352   0.052   0.168
  224SOL    HW1 2130   1.387   0.011   0.084
  224SOL    HW2 2131   1.262   0.014   0.188
  225SOL     OW 2132   1.300   0.453   0.691
  225SOL    HW1 2133   1.241   0.533   0.695
  225SOL    HW2 2134   1.315   0.418   0.784
  226SOL     OW 2135   1.593   0.221   0.882
  226SOL    HW1 2136   1.509   0.220   0.936
  226SOL    HW2 2137   1.595   0.304   0.826
  227SOL     OW 2138   0.039   1.077   0.300
  227SOL    HW1 2139   0.138   1.066   0.291
  227SOL    HW2 2140  -0.001   0.991   0.332
  228SOL     OW 2141   0.875   1.646   0.337
  228SOL    HW1 2142   0.798   1.611   0.283
  228SOL    HW2 2143   0.843   1.717   0.399
  229SOL     OW 2144   0.225   0.275   2.858
  229SOL    HW1 2145   0.260   0.258   2.950
  229SOL    HW2 2146   0.137   0.230   2.846
  230SOL     OW 2147   0.019   0.368   2.509
  230SOL    HW1 2148  -0.063   0.411   2.548
  230SOL    HW2 2149  -0.009   0.295   2.446
  231SOL     OW 2150   0.569   1.275   3.027
  231SOL    HW1 2151   0.476   1.268   2.990
  231SOL    HW2 2152   0.580   1.364   3.071
  232SOL     OW 2153   1.555   1.511   2.565
  232SOL    HW1 2154   1.498   1.495   2.646
  232SOL    HW2 2155   1.496   1.521   2.485
  233SOL     OW 2156   1.135   0.703   2.579
  233SOL    HW1 2157   1.192   0.781   2.554
  233SOL    HW2 2158   1.075   0.729   2.655
  234SOL     OW 2159   0.685   1.012   2.527
  234SOL    HW1 2160   0.754   0.996   2.597
  234SOL    HW2 2161   0.612   1.069   2.565
  235SOL     OW 2162   0.335   1.435   2.923
  235SOL    HW1 2163   0.257   1.404   2.870
  235SOL    HW2 2164   0.393   1.493   2.866
  236SOL     OW 2165   1.460   1.505   3.201
  236SOL    HW1 2166   1.484   1.599   3.227
  236SOL    HW2 2167   1.444   1.451   3.283
  237SOL     OW 2168   1.603   0.447   2.599
  237SOL    HW1 2169   1.529   0.493   2.549
  237SOL    HW2 2170   1.654   0.515   2.652
  238SOL     OW 2171   0.231   1.713   2.345
  238SOL    HW1 2172   0.265   1.790   2.399
  238SOL    HW2 2173   0.275   1.713   2.255
  239SOL     OW 2174   0.230   1.434   2.400
  239SOL    HW1 2175   0.204   1.530   2.400
  239SOL    HW2 2176   0.159   1.380   2.445
  240SOL     OW 2177   0.240   1.091   2.748
  240SOL    HW1 2178   0.254   1.007   2.800
  240SOL    HW2 2179   0.185   1.155   2.803
  241SOL     OW 2180   0.620   1.786   3.301
  241SOL    HW1 2181   0.528   1.769   3.336
  241SOL    HW2 2182   0.648   1.878   3.327
  242SOL     OW 2183   1.594   0.114   3.342
  242SOL    HW1 2184   1.576   0.181   3.270
  242SOL    HW2 2185   1.591   0.160   3.431
  243SOL     OW 2186   0.122   0.643   2.425
  243SOL    HW1 2187   0.077   0.555   2.442
  243SOL    HW2 2188   0.121   0.697   2.509
  244SOL     OW 2189   1.842   1.767   2.221
  244SOL    HW1 2190   1.896   1.738   2.301
  244SOL    HW2 2191   1.872   1.857   2.192
  245SOL     OW 2192   0.027   1.596   1.979
  245SOL    HW1 2193   0.008   1.500   2.000
  245SOL    HW2 2194  -0.006   1.654   2.054
  246SOL     OW 2195   1.689   0.922   2.474
  246SOL    HW1 2196   1.784   0.893   2.482
  246SOL    HW2 2197   1.681   0.987   2.399
  247SOL     OW 2198   1.641   1.108   2.294
  247SOL    HW1 2199   1.727   1.110   2.242
  247SOL    HW2 2200   1.655   1.155   2.382
  248SOL     OW 2201   0.113   0.737   3.459
  248SOL    HW1 2202   0.201   0.724   3.504
  248SOL    HW2 2203   0.100   0.834   3.437
  249SOL     OW 2204   0.613   1.365   2.588
  249SOL    HW1 2205   0.564   1.278   2.597
  249SOL    HW2 2206   0.590   1.408   2.501
  250SOL     OW 2207   1.293   1.228   3.285
  250SOL    HW1 2208   1.330   1.155   3.227
  250SOL    HW2 2209   1.345   1.233   3.370
  251SOL     OW 2210   0.809   0.004   2.364
  251SOL    HW1 2211   0.849   0.095   2.355
  251SOL    HW2 2212   0.709   0.012   2.370
  252SOL     OW 2213   0.197   0.976   3.126
  252SOL    HW1 2214   0.286   0.931   3.112
  252SOL    HW2 2215   0.124   0.911   3.107
  253SOL     OW 2216   1.525   0.999   2.052
  253SOL    HW1 2217   1.462   0.923   2.065
  253SOL    HW2 2218   1.573   1.017   2.138
  254SOL     OW 2219   1.187   1.792   3.478
  254SOL    HW1 2220   1.211   1.852   3.402
  254SOL    HW2 2221   1.194   1.697   3.448
  255SOL     OW 2222   1.667   1.714   2.434
  255SOL    HW1 2223   1.626   1.691   2.346
  255SOL    HW2 2224   1.649   1.640   2.499
  256SOL     OW 2225   1.281   0.345   2.806
  256SOL    HW1 2226   1.195   0.295   2.793
  256SOL    HW2 2227   1.343   0.291   2.862
  257SOL     OW 2228   1.576   1.662   2.169
  257SOL    HW1 2229   1.665   1.708   2.172
  257SOL    HW2 2230   1.555   1.638   2.074
  258SOL     OW 2231   0.807   0.605   3.327
  258SOL    HW1 2232   0.760   0.602   3.416
  258SOL    HW2 2233   0.756   0.550   3.261
  259SOL     OW 2234   1.394   0.469   3.536
  259SOL    HW1 2235   1.374   0.512   3.624
  259SOL    HW2 2236   1.472   0.407   3.545
  260SOL     OW 2237   0.973   0.890   3.434
  260SOL    HW1 2238   1.019   0.806   3.405
  260SOL    HW2 2239   0.917   0.924   3.359
  261SOL     OW 2240   0.991   0.410   3.104
  261SOL    HW1 2241   0.914   0.444   3.158
  261SOL    HW2 2242   0.957   0.359   3.025
  262SOL     OW 2243   1.041   0.701   2.291
  262SOL    HW1 2244   1.067   0.697   2.387
  262SOL    HW2 2245   0.956   0.650   2.277
  263SOL     OW 2246   0.076   0.811   2.651
  263SOL    HW1 2247   0.175   0.799   2.660
  263SOL    HW2 2248   0.052   0.906   2.672
  264SOL     OW 2249   0.130   1.821   3.433
  264SOL    HW1 2250   0.120   1.806   3.532
  264SOL    HW2 2251   0.044   1.857   3.397
  265SOL     OW 2252   0.865   0.348   2.057
  265SOL    HW1 2253   0.924   0.411   2.008
  265SOL    HW2 2254   0.884   0.254   2.028
  266SOL     OW 2255   1.719   0.585   3.693
  266SOL    HW1 2256   1.693   0.674   3.657
  266SOL    HW2 2257   1.717   0.517   3.620
  267SOL     OW 2258   1.362   1.144   2.407
  267SOL    HW1 2259   1.445   1.115   2.359
  267SOL    HW2 2260   1.313   1.211   2.351
  268SOL     OW 2261   0.550   0.196   2.747
  268SOL    HW1 2262   0.545   0.191   2.847
  268SOL    HW2 2263   0.552   0.292   2.718
  269SOL     OW 2264   1.008   1.456   2.339
  269SOL    HW1 2265   0.962   1.528   2.287
  269SOL    HW2 2266   1.004   1.476   2.437
  270SOL     OW 2267   0.351   1.801   2.715
  270SOL    HW1 2268   0.401   1.715   2.721
  270SOL    HW2 2269   0.416   1.878   2.712
  271SOL     OW 2270   1.795   1.066   2.735
  271SOL    HW1 2271   1.733   1.051   2.659
  271SOL    HW2 2272   1.743   1.077   2.820
  272SOL     OW 2273   1.458   0.735   2.590
  272SOL    HW1 2274   1.453   0.670   2.665
  272SOL    HW2 2275   1.538   0.794   2.603
  273SOL     OW 2276   1.111   1.776   2.099
  273SOL    HW1 2277   1.051   1.714   2.149
  273SOL    HW2 2278   1.142   1.732   2.014
  274SOL     OW 2279   0.202   0.285   3.360
  274SOL    HW1 2280   0.122   0.345   3.347
  274SOL    HW2 2281   0.192   0.236   3.446
  275SOL     OW 2282   1.632   1.377   1.943
  275SOL    HW1 2283   1.600   1.471   1.933
  275SOL    HW2 2284   1.556   1.314   1.931
  276SOL     OW 2285   0.464   1.743   2.185
  276SOL    HW1 2286   0.497   1.782   2.271
  276SOL    HW2 2287   0.540   1.736   2.120
  277SOL     OW 2288   1.400   0.107   2.288
  277SOL    HW1 2289   1.376   0.070   2.198
  277SOL    HW2 2290   1.499   0.123   2.292
  278SOL     OW 2291   0.249   1.785   3.103
  278SOL    HW1 2292   0.306   1.720   3.153
  278SOL    HW2 2293   0.233   1.752   3.010
  279SOL     OW 2294   0.940   1.698   2.766
  279SOL    HW1 2295   1.020   1.641   2.787
  279SOL    HW2 2296   0.891   1.658   2.689
  280SOL     OW 2297   0.382   0.700   2.342
  280SOL    HW1 2298   0.427   0.610   2.339
  280SOL    HW2 2299   0.288   0.689   2.375
  281SOL     OW 2300   1.547   0.222   3.591
  281SOL    HW1 2301   1.542   0.259   3.683
  281SOL    HW2 2302   1.475   0.153   3.579
  282SOL     OW 2303   0.614   0.122   1.979
  282SOL    HW1 2304   0.712   0.100   1.986
  282SOL    HW2 2305   0.583   0.105   1.886
  283SOL     OW 2306   0.781   0.264   3.611
  283SOL    HW1 2307   0.848   0.203   3.654
  283SOL    HW2 2308   0.708   0.283   3.676
  284SOL     OW 2309   1.351   0.590   3.295
  284SOL    HW1 2310   1.379   0.547   3.380
  284SOL    HW2 2311   1.376   0.686   3.296
  285SOL     OW 2312   0.922   0.503   2.761
  285SOL    HW1 2313   0.897   0.494   2.665
  285SOL    HW2 2314   0.970   0.421   2.792
  286SOL     OW 2315   0.539   0.064   2.374
  286SOL    HW1 2316   0.458   0.065   2.432
  286SOL    HW2 2317   0.542   0.147   2.319
  287SOL     OW 2318   1.434   1.188   1.903
  287SOL    HW1 2319   1.466   1.112   1.960
  287SOL    HW2 2320   1.342   1.215   1.933
  288SOL     OW 2321   0.297   0.035   2.033
  288SOL    HW1 2322   0.346   0.119   2.012
  288SOL    HW2 2323   0.359  -0.030   2.078
  289SOL     OW 2324   0.935   0.236   2.342
  289SOL    HW1 2325   0.887   0.277   2.264
  289SOL    HW2 2326   1.034   0.234   2.323
  290SOL     OW 2327   1.076   0.683   3.326
  290SOL    HW1 2328   0.996   0.622   3.329
  290SOL    HW2 2329   1.157   0.630   3.302
  291SOL     OW 2330   1.227   1.570   2.655
  291SOL    HW1 2331   1.248   1.644   2.590
  291SOL    HW2 2332   1.295   1.570   2.728
  292SOL     OW 2333   0.459   1.152   2.603
  292SOL    HW1 2334   0.388   1.125   2.668
  292SOL    HW2 2335   0.433   1.124   2.510
  293SOL     OW 2336   1.271   1.797   2.453
  293SOL    HW1 2337   1.315   1.861   2.389
  293SOL    HW2 2338   1.221   1.849   2.523
  294SOL     OW 2339   1.032   0.549   1.878
  294SOL    HW1 2340   0.991   0.631   1.839
  294SOL    HW2 2341   1.096   0.575   1.951
  295SOL     OW 2342   0.561   0.222   3.009
  295SOL    HW1 2343   0.599   0.138   3.046
  295SOL    HW2 2344   0.473   0.241   3.053
  296SOL     OW 2345   0.866   0.454   2.504
  296SOL    HW1 2346   0.834   0.526   2.442
  296SOL    HW2 2347   0.890   0.373   2.451
  297SOL     OW 2348   1.017   0.039   2.615
  297SOL    HW1 2349   0.945   0.044   2.546
  297SOL    HW2 2350   0.993  -0.030   2.684
  298SOL     OW 2351   1.429   1.173   2.729
  298SOL    HW1 2352   1.374   1.089   2.722
  298SOL    HW2 2353   1.455   1.202   2.637
  299SOL     OW 2354   1.466   0.590   2.854
  299SOL    HW1 2355   1.436   0.495   2.861
  299SOL    HW2 2356   1.539   0.606   2.920
  300SOL     OW 2357   1.857   0.833   2.239
  300SOL    HW1 2358   1.899   0.769   2.303
  300SOL    HW2 2359   1.819   0.782   2.161
  301SOL     OW 2360   0.488   1.385   2.036
  301SOL    HW1 2361   0.401   1.370   2.083
  301SOL    HW2 2362   0.471   1.411   1.941
  302SOL     OW 2363   1.664   1.280   2.519
  302SOL    HW1 2364   1.763   1.288   2.533
  302SOL    HW2 2365   1.619   1.364   2.550
  303SOL     OW 2366   1.390   0.575   1.940
  303SOL    HW1 2367   1.336   0.554   2.021
  303SOL    HW2 2368   1.481   0.534   1.949
  304SOL     OW 2369   0.527   0.256   2.190
  304SOL    HW1 2370   0.554   0.197   2.115
  304SOL    HW2 2371   0.527   0.351   2.159
  305SOL     OW 2372   1.754   1.223   3.450
  305SOL    HW1 2373   1.845   1.184   3.437
  305SOL    HW2 2374   1.762   1.319   3.474
  306SOL     OW 2375   1.592   1.629   3.487
  306SOL    HW1 2376   1.619   1.663   3.397
  306SOL    HW2 2377   1.671   1.591   3.533
  307SOL     OW 2378   1.638   1.099   2.941
  307SOL    HW1 2379   1.643   1.180   3.000
  307SOL    HW2 2380   1.552   1.101   2.890
  308SOL     OW 2381   0.915   0.089   3.264
  308SOL    HW1 2382   0.940   0.069   3.169
  308SOL    HW2 2383   0.987   0.145   3.306
  309SOL     OW 2384   0.705   1.050   2.230
  309SOL    HW1 2385   0.691   1.057   2.329
  309SOL    HW2 2386   0.789   0.999   2.212
  310SOL     OW 2387   0.410   0.813   3.113
  310SOL    HW1 2388   0.496   0.825   3.163
  310SOL    HW2 2389   0.368   0.726   3.140
  311SOL     OW 2390   1.274   0.386   3.124
  311SOL    HW1 2391   1.295   0.460   3.188
  311SOL    HW2 2392   1.185   0.403   3.081
  312SOL     OW 2393   0.064   1.564   3.193
  312SOL    HW1 2394   0.018   1.646   3.159
  312SOL    HW2 2395   0.162   1.583   3.202
  313SOL     OW 2396   0.566   0.537   2.727
  313SOL    HW1 2397   0.578   0.603   2.653
  313SOL    HW2 2398   0.612   0.571   2.810
  314SOL     OW 2399   1.252   1.348   2.250
  314SOL    HW1 2400   1.302   1.425   2.290
  314SOL    HW2 2401   1.157   1.350   2.282
  315SOL     OW 2402   1.582   0.639   2.334
  315SOL    HW1 2403   1.551   0.700   2.407
  315SOL    HW2 2404   1.632   0.691   2.265
  316SOL     OW 2405   0.354   1.510   3.191
  316SOL    HW1 2406   0.333   1.466   3.104
  316SOL    HW2 2407   0.451   1.536   3.194
  317SOL     OW 2408   0.402   0.751   3.460
  317SOL    HW1 2409   0.470   0.806   3.413
  317SOL    HW2 2410   0.442   0.663   3.487
  318SOL     OW 2411   1.587   0.779   3.532
  318SOL    HW1 2412   1.495   0.817   3.527
  318SOL    HW2 2413   1.647   0.826   3.467
  319SOL     OW 2414   0.573   0.870   2.891
  319SOL    HW1 2415   0.617   0.959   2.882
  319SOL    HW2 2416   0.510   0.870   2.968
  320SOL     OW 2417   1.360   0.862   2.907
  320SOL    HW1 2418   1.285   0.862   2.841
  320SOL    HW2 2419   1.397   0.770   2.916
  321SOL     OW 2420   1.209   0.525   2.137
  321SOL    HW1 2421   1.222   0.441   2.191
  321SOL    HW2 2422   1.180   0.599   2.197
  322SOL     OW 2423   0.307   0.213   3.093
  322SOL    HW1 2424   0.284   0.250   3.183
  322SOL    HW2 2425   0.277   0.118   3.087
  323SOL     OW 2426   0.037   1.310   3.144
  323SOL    HW1 2427   0.090   1.261   3.212
  323SOL    HW2 2428   0.059   1.408   3.149
  324SOL     OW 2429   0.732   0.634   2.926
  324SOL    HW1 2430   0.791   0.608   2.850
  324SOL    HW2 2431   0.704   0.730   2.915
  325SOL     OW 2432   1.728   0.935   3.716
  325SOL    HW1 2433   1.682   0.928   3.627
  325SOL    HW2 2434   1.666   0.979   3.782
  326SOL     OW 2435   0.307   0.063   2.480
  326SOL    HW1 2436   0.296   0.157   2.513
  326SOL    HW2 2437   0.302   0.000   2.557
  327SOL     OW 2438   1.622   0.367   2.236
  327SOL    HW1 2439   1.624   0.291   2.300
  327SOL    HW2 2440   1.574   0.444   2.276
  328SOL     OW 2441   1.023   0.766   2.828
  328SOL    HW1 2442   1.038   0.787   2.924
  328SOL    HW2 2443   0.993   0.671   2.819
  329SOL     OW 2444   1.859   1.518   3.467
  329SOL    HW1 2445   1.873   1.545   3.372
  329SOL    HW2 2446   1.942   1.540   3.520
  330SOL     OW 2447   0.350   0.898   3.666
  330SOL    HW1 2448   0.426   0.942   3.714
  330SOL    HW2 2449   0.385   0.851   3.584
  331SOL     OW 2450   1.540   0.274   1.987
  331SOL    HW1 2451   1.479   0.199   2.010
  331SOL    HW2 2452   1.562   0.326   2.070
  332SOL     OW 2453   1.303   0.838   1.904
  332SOL    HW1 2454   1.337   0.745   1.919
  332SOL    HW2 2455   1.321   0.865   1.809
  333SOL     OW 2456   1.068   1.333   2.711
  333SOL    HW1 2457   1.075   1.249   2.656
  333SOL    HW2 2458   1.130   1.402   2.675
  334SOL     OW 2459   0.319   0.810   2.811
  334SOL    HW1 2460   0.412   0.846   2.816
  334SOL    HW2 2461   0.313   0.725   2.863
  335SOL     OW 2462   0.339   0.509   2.868
  335SOL    HW1 2463   0.287   0.426   2.851
  335SOL    HW2 2464   0.416   0.514   2.804
  336SOL     OW 2465   1.138   0.380   3.540
  336SOL    HW1 2466   1.093   0.443   3.604
  336SOL    HW2 2467   1.231   0.411   3.523
  337SOL     OW 2468   1.160   0.207   3.339
  337SOL    HW1 2469   1.160   0.271   3.416
  337SOL    HW2 2470   1.188   0.255   3.256
  338SOL     OW 2471   0.088   1.801   2.789
  338SOL    HW1 2472   0.046   1.715   2.762
  338SOL    HW2 2473   0.182   1.804   2.755
  339SOL     OW 2474   0.504   1.568   2.772
  339SOL    HW1 2475   0.570   1.642   2.781
  339SOL    HW2 2476   0.548   1.489   2.730
  340SOL     OW 2477   1.002   0.796   3.100
  340SOL    HW1 2478   1.043   0.764   3.186
  340SOL    HW2 2479   0.906   0.769   3.097
  341SOL     OW 2480   0.040   0.544   2.976
  341SOL    HW1 2481   0.125   0.511   2.935
  341SOL    HW2 2482   0.053   0.559   3.074
  342SOL     OW 2483   0.189   0.520   3.584
  342SOL    HW1 2484   0.248   0.480   3.514
  342SOL    HW2 2485   0.131   0.591   3.543
  343SOL     OW 2486   1.369   0.950   3.522
  343SOL    HW1 2487   1.408   1.039   3.542
  343SOL    HW2 2488   1.379   0.930   3.425
  344SOL     OW 2489   0.815   0.572   2.187
  344SOL    HW1 2490   0.822   0.483   2.141
  344SOL    HW2 2491   0.721   0.606   2.179
  345SOL     OW 2492   1.657   0.604   3.068
  345SOL    HW1 2493   1.619   0.535   3.130
  345SOL    HW2 2494   1.739   0.568   3.024
  346SOL     OW 2495   0.671   0.464   3.131
  346SOL    HW1 2496   0.637   0.375   3.101
  346SOL    HW2 2497   0.697   0.518   3.051
  347SOL     OW 2498   0.930   1.678   3.327
  347SOL    HW1 2499   0.906   1.660   3.232
  347SOL    HW2 2500   0.960   1.772   3.337
  348SOL     OW 2501   0.473   0.500   2.053
  348SOL    HW1 2502   0.534   0.580   2.057
  348SOL    HW2 2503   0.378   0.531   2.060
  349SOL     OW 2504   0.159   1.137   3.328
  349SOL    HW1 2505   0.181   1.076   3.404
  349SOL    HW2 2506   0.169   1.088   3.242
  350SOL     OW 2507   1.347   1.059   3.096
  350SOL    HW1 2508   1.371   0.996   3.022
  350SOL    HW2 2509   1.257   1.099   3.078
  351SOL     OW 2510   1.302   0.855   2.171
  351SOL    HW1 2511   1.216   0.824   2.213
  351SOL    HW2 2512   1.298   0.841   2.072
  352SOL     OW 2513   1.759   1.747   3.016
  352SOL    HW1 2514   1.820   1.777   2.943
  352SOL    HW2 2515   1.721   1.658   2.994
  353SOL     OW 2516   1.252   1.731   2.990
  353SOL    HW1 2517   1.336   1.736   2.936
  353SOL    HW2 2518   1.229   1.635   3.008
  354SOL     OW 2519   0.083   1.258   2.884
  354SOL    HW1 2520   0.078   1.257   2.984
  354SOL    HW2 2521   0.000   1.217   2.846
  355SOL     OW 2522   1.726   0.135   2.385
  355SOL    HW1 2523   1.799   0.118   2.318
  355SOL    HW2 2524   1.695   0.048   2.423
  356SOL     OW 2525   1.388   1.573   2.339
  356SOL    HW1 2526   1.455   1.585   2.265
  356SOL    HW2 2527   1.348   1.662   2.362
  357SOL     OW 2528   0.130   1.794   3.713
  357SOL    HW1 2529   0.089   1.720   3.766
  357SOL    HW2 2530   0.194   1.845   3.771
  358SOL     OW 2531   1.280   0.927   2.534
  358SOL    HW1 2532   1.340   0.846   2.536
  358SOL    HW2 2533   1.320   0.996   2.474
  359SOL     OW 2534   0.830   1.273   3.284
  359SOL    HW1 2535   0.825   1.306   3.379
  359SOL    HW2 2536   0.744   1.292   3.238
  360SOL     OW 2537   0.672   1.616   2.016
  360SOL    HW1 2538   0.681   1.626   1.917
  360SOL    HW2 2539   0.632   1.527   2.037
  361SOL     OW 2540   1.650   1.720   3.256
  361SOL    HW1 2541   1.703   1.730   3.172
  361SOL    HW2 2542   1.623   1.810   3.290
  362SOL     OW 2543   1.841   0.175   2.825
  362SOL    HW1 2544   1.880   0.090   2.789
  362SOL    HW2 2545   1.743   0.177   2.806
  363SOL     OW 2546   0.263   0.326   2.582
  363SOL    HW1 2547   0.184   0.377   2.548
  363SOL    HW2 2548   0.254   0.311   2.680
  364SOL     OW 2549   1.194   1.612   1.893
  364SOL    HW1 2550   1.200   1.519   1.930
  364SOL    HW2 2551   1.135   1.612   1.813
  365SOL     OW 2552   0.822   1.002   3.234
  365SOL    HW1 2553   0.862   1.001   3.142
  365SOL    HW2 2554   0.832   1.094   3.274
  366SOL     OW 2555   0.916   0.910   2.153
  366SOL    HW1 2556   0.979   0.948   2.085
  366SOL    HW2 2557   0.956   0.827   2.192
  367SOL     OW 2558   1.504   1.607   1.906
  367SOL    HW1 2559   1.412   1.644   1.913
  367SOL    HW2 2560   1.542   1.627   1.816
  368SOL     OW 2561   1.614   1.292   3.151
  368SOL    HW1 2562   1.674   1.295   3.231
  368SOL    HW2 2563   1.539   1.356   3.164
  369SOL     OW 2564   1.039   1.098   2.558
  369SOL    HW1 2565   0.969   1.051   2.612
  369SOL    HW2 2566   1.098   1.030   2.515
  370SOL     OW 2567   1.014   0.236   2.833
  370SOL    HW1 2568   1.006   0.200   2.740
  370SOL    HW2 2569   1.012   0.160   2.898
  371SOL     OW 2570   0.590   1.487   2.353
  371SOL    HW1 2571   0.632   1.429   2.283
  371SOL    HW2 2572   0.546   1.566   2.309
  372SOL     OW 2573   1.709   0.385   3.243
  372SOL    HW1 2574   1.782   0.454   3.247
  372SOL    HW2 2575   1.737   0.310   3.184
  373SOL     OW 2576   0.105   1.013   3.588
  373SOL    HW1 2577   0.028   0.980   3.642
  373SOL    HW2 2578   0.190   0.983   3.630
  374SOL     OW 2579   0.075   0.345   1.895
  374SOL    HW1 2580  -0.017   0.317   1.866
  374SOL    HW2 2581   0.106   0.422   1.839
  375SOL     OW 2582   1.440   0.856   3.260
  375SOL    HW1 2583   1.383   0.908   3.197
  375SOL    HW2 2584   1.536   0.868   3.236
  376SOL     OW 2585   0.072   0.166   2.180
  376SOL    HW1 2586   0.055   0.249   2.126
  376SOL    HW2 2587   0.162   0.129   2.158
  377SOL     OW 2588   1.183   1.335   1.981
  377SOL    HW1 2589   1.084   1.324   1.983
  377SOL    HW2 2590   1.217   1.350   2.074
  378SOL     OW 2591   0.613   0.842   3.293
  378SOL    HW1 2592   0.669   0.923   3.276
  378SOL    HW2 2593   0.672   0.762   3.296
  379SOL     OW 2594   1.493   1.767   2.821
  379SOL    HW1 2595   1.526   1.831   2.752
  379SOL    HW2 2596   1.559   1.761   2.896
  380SOL     OW 2597   0.716   0.565   3.570
  380SOL    HW1 2598   0.735   0.630   3.644
  380SOL    HW2 2599   0.776   0.485   3.579
  381SOL     OW 2600   1.450   1.220   3.495
  381SOL    HW1 2601   1.441   1.210   3.594
  381SOL    HW2 2602   1.546   1.213   3.469
  382SOL     OW 2603   0.390   1.741   3.422
  382SOL    HW1 2604   0.299   1.782   3.420
  382SOL    HW2 2605   0.383   1.647   3.454
  383SOL     OW 2606   1.674   0.883   3.116
  383SOL    HW1 2607   1.647   0.794   3.079
  383SOL    HW2 2608   1.675   0.951   3.043
  384SOL     OW 2609   1.225   0.325   2.311
  384SOL    HW1 2610   1.290   0.251   2.300
  384SOL    HW2 2611   1.245   0.375   2.395
  385SOL     OW 2612   1.777   0.342   3.504
  385SOL    HW1 2613   1.760   0.373   3.410
  385SOL    HW2 2614   1.693   0.305   3.542
  386SOL     OW 2615   1.730   0.934   3.379
  386SOL    HW1 2616   1.768   1.025   3.394
  386SOL    HW2 2617   1.722   0.917   3.280
  387SOL     OW 2618   0.859   1.374   1.878
  387SOL    HW1 2619   0.813   1.389   1.966
  387SOL    HW2 2620   0.903   1.459   1.848
  388SOL     OW 2621   0.661   1.790   2.815
  388SOL    HW1 2622   0.615   1.878   2.802
  388SOL    HW2 2623   0.760   1.802   2.808
  389SOL     OW 2624   0.859   0.956   2.723
  389SOL    HW1 2625   0.913   0.887   2.771
  389SOL    HW2 2626   0.827   1.025   2.789
  390SOL     OW 2627   1.083   0.984   1.949
  390SOL    HW1 2628   1.060   1.037   1.867
  390SOL    HW2 2629   1.164   0.928   1.930
  391SOL     OW 2630   1.861   1.569   2.713
  391SOL    HW1 2631   1.790   1.557   2.643
  391SOL    HW2 2632   1.862   1.490   2.773
  392SOL     OW 2633   0.221   1.314   3.706
  392SOL    HW1 2634   0.156   1.241   3.685
  392SOL    HW2 2635   0.225   1.328   3.804
  393SOL     OW 2636   0.079   1.240   2.515
  393SOL    HW1 2637   0.078   1.193   2.603
  393SOL    HW2 2638   0.161   1.212   2.464
  394SOL     OW 2639   1.824   0.192   3.089
  394SOL    HW1 2640   1.820   0.102   3.133
  394SOL    HW2 2641   1.827   0.181   2.990
  395SOL     OW 2642   0.428   0.424   2.382
  395SOL    HW1 2643   0.458   0.352   2.320
  395SOL    HW2 2644   0.389   0.384   2.465
  396SOL     OW 2645   1.705   1.487   2.966
  396SOL    HW1 2646   1.612   1.462   2.939
  396SOL    HW2 2647   1.731   1.437   3.048
  397SOL     OW 2648   0.317   0.547   3.142
  397SOL    HW1 2649   0.355   0.488   3.214
  397SOL    HW2 2650   0.357   0.521   3.054
  398SOL     OW 2651   0.812   1.586   2.549
  398SOL    HW1 2652   0.844   1.596   2.455
  398SOL    HW2 2653   0.733   1.524   2.551
  399SOL     OW 2654   1.424   0.214   2.974
  399SOL    HW1 2655   1.476   0.149   3.029
  399SOL    HW2 2656   1.375   0.277   3.035
  400SOL     OW 2657   1.001   0.034   3.016
  400SOL    HW1 2658   0.938  -0.038   2.985
  400SOL    HW2 2659   1.094  -0.002   3.016
  401SOL     OW 2660   0.770   1.330   2.163
  401SOL    HW1 2661   0.724   1.243   2.180
  401SOL    HW2 2662   0.861   1.327   2.204
  402SOL     OW 2663   1.352   0.052   2.030
  402SOL    HW1 2664   1.387   0.011   1.946
  402SOL    HW2 2665   1.262   0.014   2.050
  403SOL     OW 2666   1.300   0.453   2.553
  403SOL    HW1 2667   1.241   0.533   2.557
  403SOL    HW2 2668   1.315   0.418   2.646
  404SOL     OW 2669   1.593   0.221   2.744
  404SOL    HW1 2670   1.509   0.220   2.798
  404SOL    HW2 2671   1.595   0.304   2.688
  405SOL     OW 2672   0.875   1.646   2.199
  405SOL    HW1 2673   0.798   1.611   2.145
  405SOL    HW2 2674   0.843   1.717   2.261
  406SOL     OW 2675   0.230   0.628   3.837
  406SOL    HW1 2676   0.137   0.626   3.874
  406SOL    HW2 2677   0.231   0.589   3.745
  407SOL     OW 2678   0.225   0.275   4.720
  407SOL    HW1 2679   0.260   0.258   4.812
  407SOL    HW2 2680   0.137   0.230   4.708
  408SOL     OW 2681   0.019   0.368   4.371
  408SOL    HW1 2682  -0.063   0.411   4.410
  408SOL    HW2 2683  -0.009   0.295   4.308
  409SOL     OW 2684   0.569   1.275   4.889
  409SOL    HW1 2685   0.476   1.268   4.852
  409SOL    HW2 2686   0.580   1.364   4.933
  410SOL     OW 2687   1.555   1.511   4.427
  410SOL    HW1 2688   1.498   1.495   4.508
  410SOL    HW2 2689   1.496   1.521   4.347
  411SOL     OW 2690   1.135   0.703   4.441
  411SOL    HW1 2691   1.192   0.781   4.416
  411SOL    HW2 2692   1.075   0.729   4.517
  412SOL     OW 2693   1.755   0.607   3.955
  412SOL    HW1 2694   1.743   0.594   3.856
  412SOL    HW2 2695   1.725   0.526   4.004
  413SOL     OW 2696   0.768   1.144   4.747
  413SOL    HW1 2697   0.690   1.161   4.807
  413SOL    HW2 2698   0.802   1.231   4.711
  414SOL     OW 2699   0.685   1.012   4.389
  414SOL    HW1 2700   0.754   0.996   4.459
  414SOL    HW2 2701   0.612   1.069   4.427
  415SOL     OW 2702   0.335   1.435   4.785
  415SOL    HW1 2703   0.257   1.404   4.732
  415SOL    HW2 2704   0.393   1.493   4.728
  416SOL     OW 2705   1.603   0.447   4.461
  416SOL    HW1 2706   1.529   0.493   4.411
  416SOL    HW2 2707   1.654   0.515   4.514
  417SOL     OW 2708   0.231   1.713   4.207
  417SOL    HW1 2709   0.265   1.790   4.261
  417SOL    HW2 2710   0.275   1.713   4.117
  418SOL     OW 2711   0.230   1.434   4.262
  418SOL    HW1 2712   0.204   1.530   4.262
  418SOL    HW2 2713   0.159   1.380   4.307
  419SOL     OW 2714   0.240   1.091   4.610
  419SOL    HW1 2715   0.254   1.007   4.662
  419SOL    HW2 2716   0.185   1.155   4.665
  420SOL     OW 2717   0.620   1.786   5.163
  420SOL    HW1 2718   0.528   1.769   5.198
  420SOL    HW2 2719   0.648   1.878   5.189
  421SOL     OW 2720   1.842   1.767   4.083
  421SOL    HW1 2721   1.896   1.738   4.163
  421SOL    HW2 2722   1.872   1.857   4.054
  422SOL     OW 2723   0.027   1.596   3.841
  422SOL    HW1 2724   0.008   1.500   3.862
  422SOL    HW2 2725  -0.006   1.654   3.916
  423SOL     OW 2726   1.689   0.922   4.336
  423SOL    HW1 2727   1.784   0.893   4.344
  423SOL    HW2 2728   1.681   0.987   4.261
  424SOL     OW 2729   1.641   1.108   4.156
  424SOL    HW1 2730   1.727   1.110   4.104
  424SOL    HW2 2731   1.655   1.155   4.244
  425SOL     OW 2732   0.613   1.365   4.450
  425SOL    HW1 2733   0.564   1.278   4.459
  425SOL    HW2 2734   0.590   1.408   4.363
  426SOL     OW 2735   0.809   0.004   4.226
  426SOL    HW1 2736   0.849   0.095   4.217
  426SOL    HW2 2737   0.709   0.012   4.232
  427SOL     OW 2738   0.197   0.976   4.988
  427SOL    HW1 2739   0.286   0.931   4.974
  427SOL    HW2 2740   0.124   0.911   4.969
  428SOL     OW 2741   1.525   0.999   3.914
  428SOL    HW1 2742   1.462   0.923   3.927
  428SOL    HW2 2743   1.573   1.017   4.000
  429SOL     OW 2744   1.667   1.714   4.296
  429SOL    HW1 2745   1.626   1.691   4.208
  429SOL    HW2 2746   1.649   1.640   4.361
  430SOL     OW 2747   1.281   0.345   4.668
  430SOL    HW1 2748   1.195   0.295   4.655
  430SOL    HW2 2749   1.343   0.291   4.724
  431SOL     OW 2750   1.576   1.662   4.031
  431SOL    HW1 2751   1.665   1.708   4.034
  431SOL    HW2 2752   1.555   1.638   3.936
  432SOL     OW 2753   0.991   0.410   4.966
  432SOL    HW1 2754   0.914   0.444   5.020
  432SOL    HW2 2755   0.957   0.359   4.887
  433SOL     OW 2756   1.041   0.701   4.153
  433SOL    HW1 2757   1.067   0.697   4.249
  433SOL    HW2 2758   0.956   0.650   4.139
  434SOL     OW 2759   0.076   0.811   4.513
  434SOL    HW1 2760   0.175   0.799   4.522
  434SOL    HW2 2761   0.052   0.906   4.534
  435SOL     OW 2762   0.130   1.821   5.295
  435SOL    HW1 2763   0.120   1.806   5.394
  435SOL    HW2 2764   0.044   1.857   5.259
  436SOL     OW 2765   0.865   0.348   3.919
  436SOL    HW1 2766   0.924   0.411   3.870
  436SOL    HW2 2767   0.884   0.254   3.890
  437SOL     OW 2768   1.362   1.144   4.269
  437SOL    HW1 2769   1.445   1.115   4.221
  437SOL    HW2 2770   1.313   1.211   4.213
  438SOL     OW 2771   0.550   0.196   4.609
  438SOL    HW1 2772   0.545   0.191   4.709
  438SOL    HW2 2773   0.552   0.292   4.580
  439SOL     OW 2774   1.008   1.456   4.201
  439SOL    HW1 2775   0.962   1.528   4.149
  439SOL    HW2 2776   1.004   1.476   4.299
  440SOL     OW 2777   0.351   1.801   4.577
  440SOL    HW1 2778   0.401   1.715   4.583
  440SOL    HW2 2779   0.416   1.878   4.574
  441SOL     OW 2780   1.795   1.066   4.597
  441SOL    HW1 2781   1.733   1.051   4.521
  441SOL    HW2 2782   1.743   1.077   4.682
  442SOL     OW 2783   0.321   0.943   3.966
  442SOL    HW1 2784   0.403   0.982   3.924
  442SOL    HW2 2785   0.294   0.861   3.917
  443SOL     OW 2786   1.458   0.735   4.452
  443SOL    HW1 2787   1.453   0.670   4.527
  443SOL    HW2 2788   1.538   0.794   4.465
  444SOL     OW 2789   1.111   1.776   3.961
  444SOL    HW1 2790   1.051   1.714   4.011
  444SOL    HW2 2791   1.142   1.732   3.876
  445SOL     OW 2792   1.632   1.377   3.805
  445SOL    HW1 2793   1.600   1.471   3.795
  445SOL    HW2 2794   1.556   1.314   3.793
  446SOL     OW 2795   0.464   1.743   4.047
  446SOL    HW1 2796   0.497   1.782   4.133
  446SOL    HW2 2797   0.540   1.736   3.982
  447SOL     OW 2798   1.400   0.107   4.150
  447SOL    HW1 2799   1.376   0.070   4.060
  447SOL    HW2 2800   1.499   0.123   4.154
  448SOL     OW 2801   0.249   1.785   4.965
  448SOL    HW1 2802   0.306   1.720   5.015
  448SOL    HW2 2803   0.233   1.752   4.872
  449SOL     OW 2804   0.940   1.698   4.628
  449SOL    HW1 2805   1.020   1.641   4.649
  449SOL    HW2 2806   0.891   1.658   4.551
  450SOL     OW 2807   0.614   0.122   3.841
  450SOL    HW1 2808   0.712   0.100   3.848
  450SOL    HW2 2809   0.583   0.105   3.748
  451SOL     OW 2810   0.803   1.402   4.648
  451SOL    HW1 2811   0.893   1.416   4.606
  451SOL    HW2 2812   0.732   1.404   4.577
  452SOL     OW 2813   0.922   0.503   4.623
  452SOL    HW1 2814   0.897   0.494   4.527
  452SOL    HW2 2815   0.970   0.421   4.654
  453SOL     OW 2816   0.539   0.064   4.236
  453SOL    HW1 2817   0.458   0.065   4.294
  453SOL    HW2 2818   0.542   0.147   4.181
  454SOL     OW 2819   1.434   1.188   3.765
  454SOL    HW1 2820   1.466   1.112   3.822
  454SOL    HW2 2821   1.342   1.215   3.795
  455SOL     OW 2822   0.297   0.035   3.895
  455SOL    HW1 2823   0.346   0.119   3.874
  455SOL    HW2 2824   0.359  -0.030   3.940
  456SOL     OW 2825   0.935   0.236   4.204
  456SOL    HW1 2826   0.887   0.277   4.126
  456SOL    HW2 2827   1.034   0.234   4.185
  457SOL     OW 2828   1.227   1.570   4.517
  457SOL    HW1 2829   1.248   1.644   4.452
  457SOL    HW2 2830   1.295   1.570   4.590
  458SOL     OW 2831   0.459   1.152   4.465
  458SOL    HW1 2832   0.388   1.125   4.530
  458SOL    HW2 2833   0.433   1.124   4.372
  459SOL     OW 2834   1.271   1.797   4.315
  459SOL    HW1 2835   1.315   1.861   4.251
  459SOL    HW2 2836   1.221   1.849   4.385
  460SOL     OW 2837   0.561   0.222   4.871
  460SOL    HW1 2838   0.599   0.138   4.908
  460SOL    HW2 2839   0.473   0.241   4.915
  461SOL     OW 2840   0.866   0.454   4.366
  461SOL    HW1 2841   0.834   0.526   4.304
  461SOL    HW2 2842   0.890   0.373   4.313
  462SOL     OW 2843   1.017   0.039   4.477
  462SOL    HW1 2844   0.945   0.044   4.408
  462SOL    HW2 2845   0.993  -0.030   4.546
  463SOL     OW 2846   1.429   1.173   4.591
  463SOL    HW1 2847   1.374   1.089   4.584
  463SOL    HW2 2848   1.455   1.202   4.499
  464SOL     OW 2849   1.466   0.590   4.716
  464SOL    HW1 2850   1.436   0.495   4.723
  464SOL    HW2 2851   1.539   0.606   4.782
  465SOL     OW 2852   1.857   0.833   4.101
  465SOL    HW1 2853   1.899   0.769   4.165
  465SOL    HW2 2854   1.819   0.782   4.023
  466SOL     OW 2855   1.664   1.280   4.381
  466SOL    HW1 2856   1.763   1.288   4.395
  466SOL    HW2 2857   1.619   1.364   4.412
  467SOL     OW 2858   1.390   0.575   3.802
  467SOL    HW1 2859   1.336   0.554   3.883
  467SOL    HW2 2860   1.481   0.534   3.811
  468SOL     OW 2861   0.527   0.256   4.052
  468SOL    HW1 2862   0.554   0.197   3.977
  468SOL    HW2 2863   0.527   0.351   4.021
  469SOL     OW 2864   1.111   1.195   4.824
  469SOL    HW1 2865   1.071   1.239   4.905
  469SOL    HW2 2866   1.070   1.232   4.741
  470SOL     OW 2867   1.638   1.099   4.803
  470SOL    HW1 2868   1.643   1.180   4.862
  470SOL    HW2 2869   1.552   1.101   4.752
  471SOL     OW 2870   1.274   0.386   4.986
  471SOL    HW1 2871   1.295   0.460   5.050
  471SOL    HW2 2872   1.185   0.403   4.943
  472SOL     OW 2873   0.367   1.100   4.225
  472SOL    HW1 2874   0.360   1.183   4.169
  472SOL    HW2 2875   0.371   1.020   4.165
  473SOL     OW 2876   0.566   0.537   4.589
  473SOL    HW1 2877   0.578   0.603   4.515
  473SOL    HW2 2878   0.612   0.571   4.672
  474SOL     OW 2879   1.252   1.348   4.112
  474SOL    HW1 2880   1.302   1.425   4.152
  474SOL    HW2 2881   1.157   1.350   4.144
  475SOL     OW 2882   1.582   0.639   4.196
  475SOL    HW1 2883   1.551   0.700   4.269
  475SOL    HW2 2884   1.632   0.691   4.127
  476SOL     OW 2885   0.354   1.510   5.053
  476SOL    HW1 2886   0.333   1.466   4.966
  476SOL    HW2 2887   0.451   1.536   5.056
  477SOL     OW 2888   0.573   0.870   4.753
  477SOL    HW1 2889   0.617   0.959   4.744
  477SOL    HW2 2890   0.510   0.870   4.830
  478SOL     OW 2891   1.360   0.862   4.769
  478SOL    HW1 2892   1.285   0.862   4.703
  478SOL    HW2 2893   1.397   0.770   4.778
  479SOL     OW 2894   1.209   0.525   3.999
  479SOL    HW1 2895   1.222   0.441   4.053
  479SOL    HW2 2896   1.180   0.599   4.059
  480SOL     OW 2897   0.307   0.213   4.955
  480SOL    HW1 2898   0.284   0.250   5.045
  480SOL    HW2 2899   0.277   0.118   4.949
  481SOL     OW 2900   0.037   1.310   5.006
  481SOL    HW1 2901   0.090   1.261   5.074
  481SOL    HW2 2902   0.059   1.408   5.011
  482SOL     OW 2903   0.732   0.634   4.788
  482SOL    HW1 2904   0.791   0.608   4.712
  482SOL    HW2 2905   0.704   0.730   4.777
  483SOL     OW 2906   0.307   0.063   4.342
  483SOL    HW1 2907   0.296   0.157   4.375
  483SOL    HW2 2908   0.302   0.000   4.419
  484SOL     OW 2909   1.622   0.367   4.098
  484SOL    HW1 2910   1.624   0.291   4.162
  484SOL    HW2 2911   1.574   0.444   4.138
  485SOL     OW 2912   1.023   0.766   4.690
  485SOL    HW1 2913   1.038   0.787   4.786
  485SOL    HW2 2914   0.993   0.671   4.681
  486SOL     OW 2915   1.540   0.274   3.849
  486SOL    HW1 2916   1.479   0.199   3.872
  486SOL    HW2 2917   1.562   0.326   3.932
  487SOL     OW 2918   1.303   0.838   3.766
  487SOL    HW1 2919   1.337   0.745   3.781
  487SOL    HW2 2920   1.321   0.865   3.671
  488SOL     OW 2921   1.068   1.333   4.573
  488SOL    HW1 2922   1.075   1.249   4.518
  488SOL    HW2 2923   1.130   1.402   4.537
  489SOL     OW 2924   1.160   0.207   5.201
  489SOL    HW1 2925   1.160   0.271   5.278
  489SOL    HW2 2926   1.188   0.255   5.118
  490SOL     OW 2927   0.008   1.326   3.924
  490SOL    HW1 2928  -0.085   1.347   3.893
  490SOL    HW2 2929   0.018   1.227   3.937
  491SOL     OW 2930   0.088   1.801   4.651
  491SOL    HW1 2931   0.046   1.715   4.624
  491SOL    HW2 2932   0.182   1.804   4.617
  492SOL     OW 2933   0.504   1.568   4.634
  492SOL    HW1 2934   0.570   1.642   4.643
  492SOL    HW2 2935   0.548   1.489   4.592
  493SOL     OW 2936   1.002   0.796   4.962
  493SOL    HW1 2937   1.043   0.764   5.048
  493SOL    HW2 2938   0.906   0.769   4.959
  494SOL     OW 2939   0.815   0.572   4.049
  494SOL    HW1 2940   0.822   0.483   4.003
  494SOL    HW2 2941   0.721   0.606   4.041
  495SOL     OW 2942   1.657   0.604   4.930
  495SOL    HW1 2943   1.619   0.535   4.992
  495SOL    HW2 2944   1.739   0.568   4.886
  496SOL     OW 2945   0.671   0.464   4.993
  496SOL    HW1 2946   0.637   0.375   4.963
  496SOL    HW2 2947   0.697   0.518   4.913
  497SOL     OW 2948   0.930   1.678   5.189
  497SOL    HW1 2949   0.906   1.660   5.094
  497SOL    HW2 2950   0.960   1.772   5.199
  498SOL     OW 2951   0.473   0.500   3.915
  498SOL    HW1 2952   0.534   0.580   3.919
  498SOL    HW2 2953   0.378   0.531   3.922
  499SOL     OW 2954   1.347   1.059   4.958
  499SOL    HW1 2955   1.371   0.996   4.884
  499SOL    HW2 2956   1.257   1.099   4.940
  500SOL     OW 2957   1.302   0.855   4.033
  500SOL    HW1 2958   1.216   0.824   4.075
  500SOL    HW2 2959   1.298   0.841   3.934
  501SOL     OW 2960   1.759   1.747   4.878
  501SOL    HW1 2961   1.820   1.777   4.805
  501SOL    HW2 2962   1.721   1.658   4.856
  502SOL     OW 2963   0.083   1.258   4.746
  502SOL    HW1 2964   0.078   1.257   4.846
  502SOL    HW2 2965   0.000   1.217   4.708
  503SOL     OW 2966   1.726   0.135   4.247
  503SOL    HW1 2967   1.799   0.118   4.180
  503SOL    HW2 2968   1.695   0.048   4.285
  504SOL     OW 2969   1.388   1.573   4.201
  504SOL    HW1 2970   1.455   1.585   4.127
  504SOL    HW2 2971   1.348   1.662   4.224
  505SOL     OW 2972   1.280   0.927   4.396
  505SOL    HW1 2973   1.340   0.846   4.398
  505SOL    HW2 2974   1.320   0.996   4.336
  506SOL     OW 2975   0.672   1.616   3.878
  506SOL    HW1 2976   0.681   1.626   3.779
  506SOL    HW2 2977   0.632   1.527   3.899
  507SOL     OW 2978   1.841   0.175   4.687
  507SOL    HW1 2979   1.880   0.090   4.651
  507SOL    HW2 2980   1.743   0.177   4.668
  508SOL     OW 2981   0.263   0.326   4.444
  508SOL    HW1 2982   0.184   0.377   4.410
  508SOL    HW2 2983   0.254   0.311   4.542
  509SOL     OW 2984   1.194   1.612   3.755
  509SOL    HW1 2985   1.200   1.519   3.792
  509SOL    HW2 2986   1.135   1.612   3.675
  510SOL     OW 2987   0.822   1.002   5.096
  510SOL    HW1 2988   0.862   1.001   5.004
  510SOL    HW2 2989   0.832   1.094   5.136
  511SOL     OW 2990   1.504   1.607   3.768
  511SOL    HW1 2991   1.412   1.644   3.775
  511SOL    HW2 2992   1.542   1.627   3.678
  512SOL     OW 2993   1.039   1.098   4.420
  512SOL    HW1 2994   0.969   1.051   4.474
  512SOL    HW2 2995   1.098   1.030   4.377
  513SOL     OW 2996   1.014   0.236   4.695
  513SOL    HW1 2997   1.006   0.200   4.602
  513SOL    HW2 2998   1.012   0.160   4.760
  514SOL     OW 2999   0.590   1.487   4.215
  514SOL    HW1 3000   0.632   1.429   4.145
  514SOL    HW2 3001   0.546   1.566   4.171
  515SOL     OW 3002   1.709   0.385   5.105
  515SOL    HW1 3003   1.782   0.454   5.109
  515SOL    HW2 3004   1.737   0.310   5.046
  516SOL     OW 3005   0.255   1.348   4.014
  516SOL    HW1 3006   0.159   1.349   3.987
  516SOL    HW2 3007   0.267   1.401   4.098
  517SOL     OW 3008   0.075   0.345   3.757
  517SOL    HW1 3009  -0.017   0.317   3.728
  517SOL    HW2 3010   0.106   0.422   3.701
  518SOL     OW 3011   0.072   0.166   4.042
  518SOL    HW1 3012   0.055   0.249   3.988
  518SOL    HW2 3013   0.162   0.129   4.020
  519SOL     OW 3014   1.183   1.335   3.843
  519SOL    HW1 3015   1.084   1.324   3.845
  519SOL    HW2 3016   1.217   1.350   3.936
  520SOL     OW 3017   1.493   1.767   4.683
  520SOL    HW1 3018   1.526   1.831   4.614
  520SOL    HW2 3019   1.559   1.761   4.758
  521SOL     OW 3020   1.450   1.220   5.357
  521SOL    HW1 3021   1.441   1.210   5.456
  521SOL    HW2 3022   1.546   1.213   5.331
  522SOL     OW 3023   1.674   0.883   4.978
  522SOL    HW1 3024   1.647   0.794   4.941
  522SOL    HW2 3025   1.675   0.951   4.905
  523SOL     OW 3026   1.225   0.325   4.173
  523SOL    HW1 3027   1.290   0.251   4.162
  523SOL    HW2 3028   1.245   0.375   4.257
  524SOL     OW 3029   0.594   0.745   4.376
  524SOL    HW1 3030   0.644   0.830   4.357
  524SOL    HW2 3031   0.506   0.747   4.328
  525SOL     OW 3032   1.730   0.934   5.241
  525SOL    HW1 3033   1.768   1.025   5.256
  525SOL    HW2 3034   1.722   0.917   5.142
  526SOL     OW 3035   0.661   1.790   4.677
  526SOL    HW1 3036   0.615   1.878   4.664
  526SOL    HW2 3037   0.760   1.802   4.670
  527SOL     OW 3038   0.859   0.956   4.585
  527SOL    HW1 3039   0.913   0.887   4.633
  527SOL    HW2 3040   0.827   1.025   4.651
  528SOL     OW 3041   1.861   1.569   4.575
  528SOL    HW1 3042   1.790   1.557   4.505
  528SOL    HW2 3043   1.862   1.490   4.635
  529SOL     OW 3044   0.079   1.240   4.377
  529SOL    HW1 3045   0.078   1.193   4.465
  529SOL    HW2 3046   0.161   1.212   4.326
  530SOL     OW 3047   1.824   0.192   4.951
  530SOL    HW1 3048   1.820   0.102   4.995
  530SOL    HW2 3049   1.827   0.181   4.852
  531SOL     OW 3050   0.428   0.424   4.244
  531SOL    HW1 3051   0.458   0.352   4.182
  531SOL    HW2 3052   0.389   0.384   4.327
  532SOL     OW 3053   1.705   1.487   4.828
  532SOL    HW1 3054   1.612   1.462   4.801
  532SOL    HW2 3055   1.731   1.437   4.910
  533SOL     OW 3056   0.812   1.586   4.411
  533SOL    HW1 3057   0.844   1.596   4.317
  533SOL    HW2 3058   0.733   1.524   4.413
  534SOL     OW 3059   1.424   0.214   4.836
  534SOL    HW1 3060   1.476   0.149   4.891
  534SOL    HW2 3061   1.375   0.277   4.897
  535SOL     OW 3062   1.001   0.034   4.878
  535SOL    HW1 3063   0.938  -0.038   4.847
  535SOL    HW2 3064   1.094  -0.002   4.878
  536SOL     OW 3065   1.300   0.453   4.415
  536SOL    HW1 3066   1.241   0.533   4.419
  536SOL    HW2 3067   1.315   0.418   4.508
  537SOL     OW 3068   1.593   0.221   4.606
  537SOL    HW1 3069   1.509   0.220   4.660
  537SOL    HW2 3070   1.595   0.304   4.550
  538SOL     OW 3071   0.039   1.077   4.024
  538SOL    HW1 3072   0.138   1.066   4.015
  538SOL    HW2 3073  -0.001   0.991   4.056
  539SOL     OW 3074   0.875   1.646   4.061
  539SOL    HW1 3075   0.798   1.611   4.007
  539SOL    HW2 3076   0.843   1.717   4.123
  540SOL     OW 3077   0.230   2.490   0.113
  540SOL    HW1 3078   0.137   2.488   0.150
  540SOL    HW2 3079   0.231   2.451   0.021
  541SOL     OW 3080   0.225   2.137   0.996
  541SOL    HW1 3081   0.260   2.120   1.088
  541SOL    HW2 3082   0.137   2.092   0.984
  542SOL     OW 3083   0.019   2.230   0.647
  542SOL    HW1 3084  -0.063   2.273   0.686
  542SOL    HW2 3085  -0.009   2.157   0.584
  543SOL     OW 3086   0.569   3.137   1.165
  543SOL    HW1 3087   0.476   3.130   1.128
  543SOL    HW2 3088   0.580   3.226   1.209
  544SOL     OW 3089   1.555   3.373   0.703
  544SOL    HW1 3090   1.498   3.357   0.784
  544SOL    HW2 3091   1.496   3.383   0.623
  545SOL     OW 3092   1.135   2.565   0.717
  545SOL    HW1 3093   1.192   2.643   0.692
  545SOL    HW2 3094   1.075   2.591   0.793
  546SOL     OW 3095   1.755   2.469   0.231
  546SOL    HW1 3096   1.743   2.456   0.132
  546SOL    HW2 3097   1.725   2.388   0.280
  547SOL     OW 3098   0.850   2.660   1.823
  547SOL    HW1 3099   0.846   2.736   1.888
  547SOL    HW2 3100   0.872   2.696   1.732
  548SOL     OW 3101   0.685   2.874   0.665
  548SOL    HW1 3102   0.754   2.858   0.735
  548SOL    HW2 3103   0.612   2.931   0.703
  549SOL     OW 3104   0.686   3.023   1.803
  549SOL    HW1 3105   0.746   3.102   1.817
  549SOL    HW2 3106   0.600   3.054   1.762
  550SOL     OW 3107   0.335   3.297   1.061
  550SOL    HW1 3108   0.257   3.266   1.008
  550SOL    HW2 3109   0.393   3.355   1.004
  551SOL     OW 3110   0.438   2.254   1.499
  551SOL    HW1 3111   0.520   2.198   1.508
  551SOL    HW2 3112   0.357   2.196   1.503
  552SOL     OW 3113   1.603   2.309   0.737
  552SOL    HW1 3114   1.529   2.355   0.687
  552SOL    HW2 3115   1.654   2.377   0.790
  553SOL     OW 3116   0.231   3.575   0.483
  553SOL    HW1 3117   0.265   3.652   0.537
  553SOL    HW2 3118   0.275   3.575   0.393
  554SOL     OW 3119   0.230   3.296   0.538
  554SOL    HW1 3120   0.204   3.392   0.538
  554SOL    HW2 3121   0.159   3.242   0.583
  555SOL     OW 3122   0.240   2.953   0.886
  555SOL    HW1 3123   0.254   2.869   0.938
  555SOL    HW2 3124   0.185   3.017   0.941
  556SOL     OW 3125   0.620   3.648   1.439
  556SOL    HW1 3126   0.528   3.631   1.474
  556SOL    HW2 3127   0.648   3.740   1.465
  557SOL     OW 3128   0.606   2.826   0.123
  557SOL    HW1 3129   0.613   2.910   0.069
  557SOL    HW2 3130   0.652   2.839   0.211
  558SOL     OW 3131   1.594   1.976   1.480
  558SOL    HW1 3132   1.576   2.043   1.408
  558SOL    HW2 3133   1.591   2.022   1.569
  559SOL     OW 3134   0.122   2.505   0.563
  559SOL    HW1 3135   0.077   2.417   0.580
  559SOL    HW2 3136   0.121   2.559   0.647
  560SOL     OW 3137   0.027   3.458   0.117
  560SOL    HW1 3138   0.008   3.362   0.138
  560SOL    HW2 3139  -0.006   3.516   0.192
  561SOL     OW 3140   1.689   2.784   0.612
  561SOL    HW1 3141   1.784   2.755   0.620
  561SOL    HW2 3142   1.681   2.849   0.537
  562SOL     OW 3143   1.641   2.970   0.432
  562SOL    HW1 3144   1.727   2.972   0.380
  562SOL    HW2 3145   1.655   3.017   0.520
  563SOL     OW 3146   0.113   2.599   1.597
  563SOL    HW1 3147   0.201   2.586   1.642
  563SOL    HW2 3148   0.100   2.696   1.575
  564SOL     OW 3149   0.809   1.866   0.502
  564SOL    HW1 3150   0.849   1.957   0.493
  564SOL    HW2 3151   0.709   1.874   0.508
  565SOL     OW 3152   0.197   2.838   1.264
  565SOL    HW1 3153   0.286   2.793   1.250
  565SOL    HW2 3154   0.124   2.773   1.245
  566SOL     OW 3155   1.525   2.861   0.190
  566SOL    HW1 3156   1.462   2.785   0.203
  566SOL    HW2 3157   1.573   2.879   0.276
  567SOL     OW 3158   1.187   3.654   1.616
  567SOL    HW1 3159   1.211   3.714   1.540
  567SOL    HW2 3160   1.194   3.559   1.586
  568SOL     OW 3161   0.317   2.113   1.801
  568SOL    HW1 3162   0.388   2.184   1.807
  568SOL    HW2 3163   0.229   2.152   1.829
  569SOL     OW 3164   1.466   3.279   0.953
  569SOL    HW1 3165   1.407   3.285   1.033
  569SOL    HW2 3166   1.451   3.191   0.907
  570SOL     OW 3167   1.667   3.576   0.572
  570SOL    HW1 3168   1.626   3.553   0.484
  570SOL    HW2 3169   1.649   3.502   0.637
  571SOL     OW 3170   0.598   2.591   0.270
  571SOL    HW1 3171   0.622   2.660   0.202
  571SOL    HW2 3172   0.520   2.624   0.324
  572SOL     OW 3173   1.576   3.524   0.307
  572SOL    HW1 3174   1.665   3.570   0.310
  572SOL    HW2 3175   1.555   3.500   0.212
  573SOL     OW 3176   0.807   2.467   1.465
  573SOL    HW1 3177   0.760   2.464   1.554
  573SOL    HW2 3178   0.756   2.412   1.399
  574SOL     OW 3179   1.394   2.331   1.674
  574SOL    HW1 3180   1.374   2.374   1.762
  574SOL    HW2 3181   1.472   2.269   1.683
  575SOL     OW 3182   0.973   2.752   1.572
  575SOL    HW1 3183   1.019   2.668   1.543
  575SOL    HW2 3184   0.917   2.786   1.497
  576SOL     OW 3185   1.041   2.563   0.429
  576SOL    HW1 3186   1.067   2.559   0.525
  576SOL    HW2 3187   0.956   2.512   0.415
  577SOL     OW 3188   0.076   2.673   0.789
  577SOL    HW1 3189   0.175   2.661   0.798
  577SOL    HW2 3190   0.052   2.768   0.810
  578SOL     OW 3191   0.130   3.683   1.571
  578SOL    HW1 3192   0.120   3.668   1.670
  578SOL    HW2 3193   0.044   3.719   1.535
  579SOL     OW 3194   0.865   2.210   0.195
  579SOL    HW1 3195   0.924   2.273   0.146
  579SOL    HW2 3196   0.884   2.116   0.166
  580SOL     OW 3197   1.719   2.447   1.831
  580SOL    HW1 3198   1.693   2.536   1.795
  580SOL    HW2 3199   1.717   2.379   1.758
  581SOL     OW 3200   1.362   3.006   0.545
  581SOL    HW1 3201   1.445   2.977   0.497
  581SOL    HW2 3202   1.313   3.073   0.489
  582SOL     OW 3203   0.550   2.058   0.885
  582SOL    HW1 3204   0.545   2.053   0.985
  582SOL    HW2 3205   0.552   2.154   0.856
  583SOL     OW 3206   0.351   3.663   0.853
  583SOL    HW1 3207   0.401   3.577   0.859
  583SOL    HW2 3208   0.416   3.740   0.850
  584SOL     OW 3209   1.227   3.412   1.506
  584SOL    HW1 3210   1.233   3.335   1.570
  584SOL    HW2 3211   1.175   3.386   1.426
  585SOL     OW 3212   0.321   2.805   0.242
  585SOL    HW1 3213   0.403   2.844   0.200
  585SOL    HW2 3214   0.294   2.723   0.193
  586SOL     OW 3215   1.458   2.597   0.728
  586SOL    HW1 3216   1.453   2.532   0.803
  586SOL    HW2 3217   1.538   2.656   0.741
  587SOL     OW 3218   0.461   3.128   1.727
  587SOL    HW1 3219   0.411   3.129   1.641
  587SOL    HW2 3220   0.398   3.110   1.803
  588SOL     OW 3221   1.111   3.638   0.237
  588SOL    HW1 3222   1.051   3.576   0.287
  588SOL    HW2 3223   1.142   3.594   0.152
  589SOL     OW 3224   0.202   2.147   1.498
  589SOL    HW1 3225   0.122   2.207   1.485
  589SOL    HW2 3226   0.192   2.098   1.584
  590SOL     OW 3227   1.632   3.239   0.081
  590SOL    HW1 3228   1.600   3.333   0.071
  590SOL    HW2 3229   1.556   3.176   0.069
  591SOL     OW 3230   0.464   3.605   0.323
  591SOL    HW1 3231   0.497   3.644   0.409
  591SOL    HW2 3232   0.540   3.598   0.258
  592SOL     OW 3233   1.400   1.969   0.426
  592SOL    HW1 3234   1.376   1.932   0.336
  592SOL    HW2 3235   1.499   1.985   0.430
  593SOL     OW 3236   0.249   3.647   1.241
  593SOL    HW1 3237   0.306   3.582   1.291
  593SOL    HW2 3238   0.233   3.614   1.148
  594SOL     OW 3239   0.940   3.560   0.904
  594SOL    HW1 3240   1.020   3.503   0.925
  594SOL    HW2 3241   0.891   3.520   0.827
  595SOL     OW 3242   0.382   2.562   0.480
  595SOL    HW1 3243   0.427   2.472   0.477
  595SOL    HW2 3244   0.288   2.551   0.513
  596SOL     OW 3245   1.547   2.084   1.729
  596SOL    HW1 3246   1.542   2.121   1.821
  596SOL    HW2 3247   1.475   2.015   1.717
  597SOL     OW 3248   0.781   2.126   1.749
  597SOL    HW1 3249   0.848   2.065   1.792
  597SOL    HW2 3250   0.708   2.145   1.814
  598SOL     OW 3251   0.888   3.376   1.195
  598SOL    HW1 3252   0.865   3.351   1.101
  598SOL    HW2 3253   0.949   3.307   1.234
  599SOL     OW 3254   1.351   2.452   1.433
  599SOL    HW1 3255   1.379   2.409   1.518
  599SOL    HW2 3256   1.376   2.548   1.434
  600SOL     OW 3257   0.922   2.365   0.899
  600SOL    HW1 3258   0.897   2.356   0.803
  600SOL    HW2 3259   0.970   2.283   0.930
  601SOL     OW 3260   0.539   1.926   0.512
  601SOL    HW1 3261   0.458   1.927   0.570
  601SOL    HW2 3262   0.542   2.009   0.457
  602SOL     OW 3263   1.434   3.050   0.041
  602SOL    HW1 3264   1.466   2.974   0.098
  602SOL    HW2 3265   1.342   3.077   0.071
  603SOL     OW 3266   0.297   1.897   0.171
  603SOL    HW1 3267   0.346   1.981   0.150
  603SOL    HW2 3268   0.359   1.832   0.216
  604SOL     OW 3269   0.935   2.098   0.480
  604SOL    HW1 3270   0.887   2.139   0.402
  604SOL    HW2 3271   1.034   2.096   0.461
  605SOL     OW 3272   1.076   2.545   1.464
  605SOL    HW1 3273   0.996   2.484   1.467
  605SOL    HW2 3274   1.157   2.492   1.440
  606SOL     OW 3275   1.227   3.432   0.793
  606SOL    HW1 3276   1.248   3.506   0.728
  606SOL    HW2 3277   1.295   3.432   0.866
  607SOL     OW 3278   0.459   3.014   0.741
  607SOL    HW1 3279   0.388   2.987   0.806
  607SOL    HW2 3280   0.433   2.986   0.648
  608SOL     OW 3281   1.032   2.411   0.016
  608SOL    HW1 3282   0.991   2.493  -0.023
  608SOL    HW2 3283   1.096   2.437   0.089
  609SOL     OW 3284   0.078   2.418   1.386
  609SOL    HW1 3285   0.170   2.417   1.345
  609SOL    HW2 3286   0.072   2.492   1.453
  610SOL     OW 3287   0.561   2.084   1.147
  610SOL    HW1 3288   0.599   2.000   1.184
  610SOL    HW2 3289   0.473   2.103   1.191
  611SOL     OW 3290   0.866   2.316   0.642
  611SOL    HW1 3291   0.834   2.388   0.580
  611SOL    HW2 3292   0.890   2.235   0.589
  612SOL     OW 3293   1.017   1.901   0.753
  612SOL    HW1 3294   0.945   1.906   0.684
  612SOL    HW2 3295   0.993   1.832   0.822
  613SOL     OW 3296   1.429   3.035   0.867
  613SOL    HW1 3297   1.374   2.951   0.860
  613SOL    HW2 3298   1.455   3.064   0.775
  614SOL     OW 3299   1.857   2.695   0.377
  614SOL    HW1 3300   1.899   2.631   0.441
  614SOL    HW2 3301   1.819   2.644   0.299
  615SOL     OW 3302   1.664   3.142   0.657
  615SOL    HW1 3303   1.763   3.150   0.671
  615SOL    HW2 3304   1.619   3.226   0.688
  616SOL     OW 3305   1.390   2.437   0.078
  616SOL    HW1 3306   1.336   2.416   0.159
  616SOL    HW2 3307   1.481   2.396   0.087
  617SOL     OW 3308   0.527   2.118   0.328
  617SOL    HW1 3309   0.554   2.059   0.253
  617SOL    HW2 3310   0.527   2.213   0.297
  618SOL     OW 3311   1.064   3.209   1.340
  618SOL    HW1 3312   0.984   3.186   1.395
  618SOL    HW2 3313   1.147   3.183   1.389
  619SOL     OW 3314   1.111   3.057   1.100
  619SOL    HW1 3315   1.071   3.101   1.181
  619SOL    HW2 3316   1.070   3.094   1.017
  620SOL     OW 3317   0.705   2.912   0.368
  620SOL    HW1 3318   0.691   2.919   0.467
  620SOL    HW2 3319   0.789   2.861   0.350
  621SOL     OW 3320   0.410   2.675   1.251
  621SOL    HW1 3321   0.496   2.687   1.301
  621SOL    HW2 3322   0.368   2.588   1.278
  622SOL     OW 3323   0.064   3.426   1.331
  622SOL    HW1 3324   0.018   3.508   1.297
  622SOL    HW2 3325   0.162   3.445   1.340
  623SOL     OW 3326   0.367   2.962   0.501
  623SOL    HW1 3327   0.360   3.045   0.445
  623SOL    HW2 3328   0.371   2.882   0.441
  624SOL     OW 3329   0.566   2.399   0.865
  624SOL    HW1 3330   0.578   2.465   0.791
  624SOL    HW2 3331   0.612   2.433   0.948
  625SOL     OW 3332   1.252   3.210   0.388
  625SOL    HW1 3333   1.302   3.287   0.428
  625SOL    HW2 3334   1.157   3.212   0.420
  626SOL     OW 3335   1.272   3.307   1.142
  626SOL    HW1 3336   1.319   3.320   1.229
  626SOL    HW2 3337   1.206   3.233   1.151
  627SOL     OW 3338   1.582   2.501   0.472
  627SOL    HW1 3339   1.551   2.562   0.545
  627SOL    HW2 3340   1.632   2.553   0.403
  628SOL     OW 3341   0.354   3.372   1.329
  628SOL    HW1 3342   0.333   3.328   1.242
  628SOL    HW2 3343   0.451   3.398   1.332
  629SOL     OW 3344   0.402   2.613   1.598
  629SOL    HW1 3345   0.470   2.668   1.551
  629SOL    HW2 3346   0.442   2.525   1.625
  630SOL     OW 3347   1.587   2.641   1.670
  630SOL    HW1 3348   1.495   2.679   1.665
  630SOL    HW2 3349   1.647   2.688   1.605
  631SOL     OW 3350   0.504   1.912   1.740
  631SOL    HW1 3351   0.462   1.855   1.670
  631SOL    HW2 3352   0.438   1.981   1.772
  632SOL     OW 3353   0.573   2.732   1.029
  632SOL    HW1 3354   0.617   2.821   1.020
  632SOL    HW2 3355   0.510   2.732   1.106
  633SOL     OW 3356   1.360   2.724   1.045
  633SOL    HW1 3357   1.285   2.724   0.979
  633SOL    HW2 3358   1.397   2.632   1.054
  634SOL     OW 3359   1.209   2.387   0.275
  634SOL    HW1 3360   1.222   2.303   0.329
  634SOL    HW2 3361   1.180   2.461   0.335
  635SOL     OW 3362   0.307   2.075   1.231
  635SOL    HW1 3363   0.284   2.112   1.321
  635SOL    HW2 3364   0.277   1.980   1.225
  636SOL     OW 3365   0.037   3.172   1.282
  636SOL    HW1 3366   0.090   3.123   1.350
  636SOL    HW2 3367   0.059   3.270   1.287
  637SOL     OW 3368   0.732   2.496   1.064
  637SOL    HW1 3369   0.791   2.470   0.988
  637SOL    HW2 3370   0.704   2.592   1.053
  638SOL     OW 3371   1.728   2.797   1.854
  638SOL    HW1 3372   1.682   2.790   1.765
  638SOL    HW2 3373   1.666   2.841   1.920
  639SOL     OW 3374   0.307   1.925   0.618
  639SOL    HW1 3375   0.296   2.019   0.651
  639SOL    HW2 3376   0.302   1.862   0.695
  640SOL     OW 3377   1.622   2.229   0.374
  640SOL    HW1 3378   1.624   2.153   0.438
  640SOL    HW2 3379   1.574   2.306   0.414
  641SOL     OW 3380   1.023   2.628   0.966
  641SOL    HW1 3381   1.038   2.649   1.062
  641SOL    HW2 3382   0.993   2.533   0.957
  642SOL     OW 3383   0.980   3.435   1.700
  642SOL    HW1 3384   0.960   3.479   1.612
  642SOL    HW2 3385   1.019   3.344   1.684
  643SOL     OW 3386   1.859   3.380   1.605
  643SOL    HW1 3387   1.873   3.407   1.510
  643SOL    HW2 3388   1.942   3.402   1.658
  644SOL     OW 3389   0.350   2.760   1.804
  644SOL    HW1 3390   0.426   2.804   1.852
  644SOL    HW2 3391   0.385   2.713   1.722
  645SOL     OW 3392   1.540   2.136   0.125
  645SOL    HW1 3393   1.479   2.061   0.148
  645SOL    HW2 3394   1.562   2.188   0.208
  646SOL     OW 3395   1.303   2.700   0.042
  646SOL    HW1 3396   1.337   2.607   0.057
  646SOL    HW2 3397   1.321   2.727  -0.053
  647SOL     OW 3398   1.068   3.195   0.849
  647SOL    HW1 3399   1.075   3.111   0.794
  647SOL    HW2 3400   1.130   3.264   0.813
  648SOL     OW 3401   0.319   2.672   0.949
  648SOL    HW1 3402   0.412   2.708   0.954
  648SOL    HW2 3403   0.313   2.587   1.001
  649SOL     OW 3404   0.339   2.371   1.006
  649SOL    HW1 3405   0.287   2.288   0.989
  649SOL    HW2 3406   0.416   2.376   0.942
  650SOL     OW 3407   1.138   2.242   1.678
  650SOL    HW1 3408   1.093   2.305   1.742
  650SOL    HW2 3409   1.231   2.273   1.661
  651SOL     OW 3410   0.008   3.188   0.200
  651SOL    HW1 3411  -0.085   3.209   0.169
  651SOL    HW2 3412   0.018   3.089   0.213
  652SOL     OW 3413   0.088   3.663   0.927
  652SOL    HW1 3414   0.046   3.577   0.900
  652SOL    HW2 3415   0.182   3.666   0.893
  653SOL     OW 3416   1.002   2.658   1.238
  653SOL    HW1 3417   1.043   2.626   1.324
  653SOL    HW2 3418   0.906   2.631   1.235
  654SOL     OW 3419   0.040   2.406   1.114
  654SOL    HW1 3420   0.125   2.373   1.073
  654SOL    HW2 3421   0.053   2.421   1.212
  655SOL     OW 3422   0.189   2.382   1.722
  655SOL    HW1 3423   0.248   2.342   1.652
  655SOL    HW2 3424   0.131   2.453   1.681
  656SOL     OW 3425   0.815   2.434   0.325
  656SOL    HW1 3426   0.822   2.345   0.279
  656SOL    HW2 3427   0.721   2.468   0.317
  657SOL     OW 3428   1.657   2.466   1.206
  657SOL    HW1 3429   1.619   2.397   1.268
  657SOL    HW2 3430   1.739   2.430   1.162
  658SOL     OW 3431   0.252   3.426   1.744
  658SOL    HW1 3432   0.222   3.483   1.820
  658SOL    HW2 3433   0.245   3.329   1.770
  659SOL     OW 3434   0.671   2.326   1.269
  659SOL    HW1 3435   0.637   2.237   1.239
  659SOL    HW2 3436   0.697   2.380   1.189
  660SOL     OW 3437   0.930   3.540   1.465
  660SOL    HW1 3438   0.906   3.522   1.370
  660SOL    HW2 3439   0.960   3.634   1.475
  661SOL     OW 3440   0.473   2.362   0.191
  661SOL    HW1 3441   0.534   2.442   0.195
  661SOL    HW2 3442   0.378   2.393   0.198
  662SOL     OW 3443   0.159   2.999   1.466
  662SOL    HW1 3444   0.181   2.938   1.542
  662SOL    HW2 3445   0.169   2.950   1.380
  663SOL     OW 3446   1.347   2.921   1.234
  663SOL    HW1 3447   1.371   2.858   1.160
  663SOL    HW2 3448   1.257   2.961   1.216
  664SOL     OW 3449   1.302   2.717   0.309
  664SOL    HW1 3450   1.216   2.686   0.351
  664SOL    HW2 3451   1.298   2.703   0.210
  665SOL     OW 3452   1.759   3.609   1.154
  665SOL    HW1 3453   1.820   3.639   1.081
  665SOL    HW2 3454   1.721   3.520   1.132
  666SOL     OW 3455   1.252   3.593   1.128
  666SOL    HW1 3456   1.336   3.598   1.074
  666SOL    HW2 3457   1.229   3.497   1.146
  667SOL     OW 3458   0.083   3.120   1.022
  667SOL    HW1 3459   0.078   3.119   1.122
  667SOL    HW2 3460   0.000   3.079   0.984
  668SOL     OW 3461   0.688   3.524   1.716
  668SOL    HW1 3462   0.632   3.605   1.725
  668SOL    HW2 3463   0.740   3.528   1.630
  669SOL     OW 3464   0.903   1.948   0.133
  669SOL    HW1 3465   0.954   1.949   0.047
  669SOL    HW2 3466   0.959   1.906   0.204
  670SOL     OW 3467   1.726   1.997   0.523
  670SOL    HW1 3468   1.799   1.980   0.456
  670SOL    HW2 3469   1.695   1.910   0.561
  671SOL     OW 3470   1.388   3.435   0.477
  671SOL    HW1 3471   1.455   3.447   0.403
  671SOL    HW2 3472   1.348   3.524   0.500
  672SOL     OW 3473   0.130   3.656   1.851
  672SOL    HW1 3474   0.089   3.582   1.904
  672SOL    HW2 3475   0.194   3.707   1.909
  673SOL     OW 3476   1.280   2.789   0.672
  673SOL    HW1 3477   1.340   2.708   0.674
  673SOL    HW2 3478   1.320   2.858   0.612
  674SOL     OW 3479   0.830   3.135   1.422
  674SOL    HW1 3480   0.825   3.168   1.517
  674SOL    HW2 3481   0.744   3.154   1.376
  675SOL     OW 3482   1.841   2.037   0.963
  675SOL    HW1 3483   1.880   1.952   0.927
  675SOL    HW2 3484   1.743   2.039   0.944
  676SOL     OW 3485   0.263   2.188   0.720
  676SOL    HW1 3486   0.184   2.239   0.686
  676SOL    HW2 3487   0.254   2.173   0.818
  677SOL     OW 3488   1.194   3.474   0.031
  677SOL    HW1 3489   1.200   3.381   0.068
  677SOL    HW2 3490   1.135   3.474  -0.049
  678SOL     OW 3491   0.822   2.864   1.372
  678SOL    HW1 3492   0.862   2.863   1.280
  678SOL    HW2 3493   0.832   2.956   1.412
  679SOL     OW 3494   0.916   2.772   0.291
  679SOL    HW1 3495   0.979   2.810   0.223
  679SOL    HW2 3496   0.956   2.689   0.330
  680SOL     OW 3497   1.504   3.469   0.044
  680SOL    HW1 3498   1.412   3.506   0.051
  680SOL    HW2 3499   1.542   3.489  -0.046
  681SOL     OW 3500   0.372   3.150   1.490
  681SOL    HW1 3501   0.359   3.243   1.456
  681SOL    HW2 3502   0.288   3.098   1.477
  682SOL     OW 3503   1.039   2.960   0.696
  682SOL    HW1 3504   0.969   2.913   0.750
  682SOL    HW2 3505   1.098   2.892   0.653
  683SOL     OW 3506   1.014   2.098   0.971
  683SOL    HW1 3507   1.006   2.062   0.878
  683SOL    HW2 3508   1.012   2.022   1.036
  684SOL     OW 3509   1.709   2.247   1.381
  684SOL    HW1 3510   1.782   2.316   1.385
  684SOL    HW2 3511   1.737   2.172   1.322
  685SOL     OW 3512   0.255   3.210   0.290
  685SOL    HW1 3513   0.159   3.211   0.263
  685SOL    HW2 3514   0.267   3.263   0.374
  686SOL     OW 3515   0.105   2.875   1.726
  686SOL    HW1 3516   0.028   2.842   1.780
  686SOL    HW2 3517   0.190   2.845   1.768
  687SOL     OW 3518   0.672   2.065   1.489
  687SOL    HW1 3519   0.762   2.049   1.449
  687SOL    HW2 3520   0.680   2.070   1.588
  688SOL     OW 3521   0.075   2.207   0.033
  688SOL    HW1 3522  -0.017   2.179   0.004
  688SOL    HW2 3523   0.106   2.284  -0.023
  689SOL     OW 3524   0.072   2.028   0.318
  689SOL    HW1 3525   0.055   2.111   0.264
  689SOL    HW2 3526   0.162   1.991   0.296
  690SOL     OW 3527   1.183   3.197   0.119
  690SOL    HW1 3528   1.084   3.186   0.121
  690SOL    HW2 3529   1.217   3.212   0.212
  691SOL     OW 3530   0.613   2.704   1.431
  691SOL    HW1 3531   0.669   2.785   1.414
  691SOL    HW2 3532   0.672   2.624   1.434
  692SOL     OW 3533   1.493   3.629   0.959
  692SOL    HW1 3534   1.526   3.693   0.890
  692SOL    HW2 3535   1.559   3.623   1.034
  693SOL     OW 3536   0.716   2.427   1.708
  693SOL    HW1 3537   0.735   2.492   1.782
  693SOL    HW2 3538   0.776   2.347   1.717
  694SOL     OW 3539   0.390   3.603   1.560
  694SOL    HW1 3540   0.299   3.644   1.558
  694SOL    HW2 3541   0.383   3.509   1.592
  695SOL     OW 3542   1.225   2.187   0.449
  695SOL    HW1 3543   1.290   2.113   0.438
  695SOL    HW2 3544   1.245   2.237   0.533
  696SOL     OW 3545   0.594   2.607   0.652
  696SOL    HW1 3546   0.644   2.692   0.633
  696SOL    HW2 3547   0.506   2.609   0.604
  697SOL     OW 3548   1.777   2.204   1.642
  697SOL    HW1 3549   1.760   2.235   1.548
  697SOL    HW2 3550   1.693   2.167   1.680
  698SOL     OW 3551   1.730   2.796   1.517
  698SOL    HW1 3552   1.768   2.887   1.532
  698SOL    HW2 3553   1.722   2.779   1.418
  699SOL     OW 3554   0.661   3.652   0.953
  699SOL    HW1 3555   0.615   3.740   0.940
  699SOL    HW2 3556   0.760   3.664   0.946
  700SOL     OW 3557   0.859   2.818   0.861
  700SOL    HW1 3558   0.913   2.749   0.909
  700SOL    HW2 3559   0.827   2.887   0.927
  701SOL     OW 3560   1.083   2.846   0.087
  701SOL    HW1 3561   1.060   2.899   0.005
  701SOL    HW2 3562   1.164   2.790   0.068
  702SOL     OW 3563   1.861   3.431   0.851
  702SOL    HW1 3564   1.790   3.419   0.781
  702SOL    HW2 3565   1.862   3.352   0.911
  703SOL     OW 3566   0.221   3.176   1.844
  703SOL    HW1 3567   0.156   3.103   1.823
  703SOL    HW2 3568   0.225   3.190   1.942
  704SOL     OW 3569   0.079   3.102   0.653
  704SOL    HW1 3570   0.078   3.055   0.741
  704SOL    HW2 3571   0.161   3.074   0.602
  705SOL     OW 3572   0.672   3.253   1.624
  705SOL    HW1 3573   0.594   3.203   1.662
  705SOL    HW2 3574   0.669   3.348   1.655
  706SOL     OW 3575   0.428   2.286   0.520
  706SOL    HW1 3576   0.458   2.214   0.458
  706SOL    HW2 3577   0.389   2.246   0.603
  707SOL     OW 3578   0.317   2.409   1.280
  707SOL    HW1 3579   0.355   2.350   1.352
  707SOL    HW2 3580   0.357   2.383   1.192
  708SOL     OW 3581   0.618   3.429   1.284
  708SOL    HW1 3582   0.613   3.511   1.341
  708SOL    HW2 3583   0.707   3.426   1.239
  709SOL     OW 3584   1.352   1.914   0.168
  709SOL    HW1 3585   1.387   1.873   0.084
  709SOL    HW2 3586   1.262   1.876   0.188
  710SOL     OW 3587   1.300   2.315   0.691
  710SOL    HW1 3588   1.241   2.395   0.695
  710SOL    HW2 3589   1.315   2.280   0.784
  711SOL     OW 3590   0.039   2.939   0.300
  711SOL    HW1 3591   0.138   2.928   0.291
  711SOL    HW2 3592  -0.001   2.853   0.332
  712SOL     OW 3593   0.230   2.490   1.975
  712SOL    HW1 3594   0.137   2.488   2.012
  712SOL    HW2 3595   0.231   2.451   1.883
  713SOL     OW 3596   0.225   2.137   2.858
  713SOL    HW1 3597   0.260   2.120   2.950
  713SOL    HW2 3598   0.137   2.092   2.846
  714SOL     OW 3599   0.569   3.137   3.027
  714SOL    HW1 3600   0.476   3.130   2.990
  714SOL    HW2 3601   0.580   3.226   3.071
  715SOL     OW 3602   1.135   2.565   2.579
  715SOL    HW1 3603   1.192   2.643   2.554
  715SOL    HW2 3604   1.075   2.591   2.655
  716SOL     OW 3605   1.755   2.469   2.093
  716SOL    HW1 3606   1.743   2.456   1.994
  716SOL    HW2 3607   1.725   2.388   2.142
  717SOL     OW 3608   0.768   3.006   2.885
  717SOL    HW1 3609   0.690   3.023   2.945
  717SOL    HW2 3610   0.802   3.093   2.849
  718SOL     OW 3611   0.850   2.660   3.685
  718SOL    HW1 3612   0.846   2.736   3.750
  718SOL    HW2 3613   0.872   2.696   3.594
  719SOL     OW 3614   0.685   2.874   2.527
  719SOL    HW1 3615   0.754   2.858   2.597
  719SOL    HW2 3616   0.612   2.931   2.565
  720SOL     OW 3617   0.335   3.297   2.923
  720SOL    HW1 3618   0.257   3.266   2.870
  720SOL    HW2 3619   0.393   3.355   2.866
  721SOL     OW 3620   1.460   3.367   3.201
  721SOL    HW1 3621   1.484   3.461   3.227
  721SOL    HW2 3622   1.444   3.313   3.283
  722SOL     OW 3623   0.438   2.254   3.361
  722SOL    HW1 3624   0.520   2.198   3.370
  722SOL    HW2 3625   0.357   2.196   3.365
  723SOL     OW 3626   1.603   2.309   2.599
  723SOL    HW1 3627   1.529   2.355   2.549
  723SOL    HW2 3628   1.654   2.377   2.652
  724SOL     OW 3629   0.231   3.575   2.345
  724SOL    HW1 3630   0.265   3.652   2.399
  724SOL    HW2 3631   0.275   3.575   2.255
  725SOL     OW 3632   1.127   3.203   3.552
  725SOL    HW1 3633   1.174   3.203   3.640
  725SOL    HW2 3634   1.079   3.116   3.541
  726SOL     OW 3635   0.230   3.296   2.400
  726SOL    HW1 3636   0.204   3.392   2.400
  726SOL    HW2 3637   0.159   3.242   2.445
  727SOL     OW 3638   0.240   2.953   2.748
  727SOL    HW1 3639   0.254   2.869   2.800
  727SOL    HW2 3640   0.185   3.017   2.803
  728SOL     OW 3641   0.620   3.648   3.301
  728SOL    HW1 3642   0.528   3.631   3.336
  728SOL    HW2 3643   0.648   3.740   3.327
  729SOL     OW 3644   0.606   2.826   1.985
  729SOL    HW1 3645   0.613   2.910   1.931
  729SOL    HW2 3646   0.652   2.839   2.073
  730SOL     OW 3647   1.594   1.976   3.342
  730SOL    HW1 3648   1.576   2.043   3.270
  730SOL    HW2 3649   1.591   2.022   3.431
  731SOL     OW 3650   0.122   2.505   2.425
  731SOL    HW1 3651   0.077   2.417   2.442
  731SOL    HW2 3652   0.121   2.559   2.509
  732SOL     OW 3653   1.842   3.629   2.221
  732SOL    HW1 3654   1.896   3.600   2.301
  732SOL    HW2 3655   1.872   3.719   2.192
  733SOL     OW 3656   0.027   3.458   1.979
  733SOL    HW1 3657   0.008   3.362   2.000
  733SOL    HW2 3658  -0.006   3.516   2.054
  734SOL     OW 3659   1.689   2.784   2.474
  734SOL    HW1 3660   1.784   2.755   2.482
  734SOL    HW2 3661   1.681   2.849   2.399
  735SOL     OW 3662   1.641   2.970   2.294
  735SOL    HW1 3663   1.727   2.972   2.242
  735SOL    HW2 3664   1.655   3.017   2.382
  736SOL     OW 3665   0.113   2.599   3.459
  736SOL    HW1 3666   0.201   2.586   3.504
  736SOL    HW2 3667   0.100   2.696   3.437
  737SOL     OW 3668   0.613   3.227   2.588
  737SOL    HW1 3669   0.564   3.140   2.597
  737SOL    HW2 3670   0.590   3.270   2.501
  738SOL     OW 3671   1.293   3.090   3.285
  738SOL    HW1 3672   1.330   3.017   3.227
  738SOL    HW2 3673   1.345   3.095   3.370
  739SOL     OW 3674   0.809   1.866   2.364
  739SOL    HW1 3675   0.849   1.957   2.355
  739SOL    HW2 3676   0.709   1.874   2.370
  740SOL     OW 3677   0.197   2.838   3.126
  740SOL    HW1 3678   0.286   2.793   3.112
  740SOL    HW2 3679   0.124   2.773   3.107
  741SOL     OW 3680   1.525   2.861   2.052
  741SOL    HW1 3681   1.462   2.785   2.065
  741SOL    HW2 3682   1.573   2.879   2.138
  742SOL     OW 3683   1.187   3.654   3.478
  742SOL    HW1 3684   1.211   3.714   3.402
  742SOL    HW2 3685   1.194   3.559   3.448
  743SOL     OW 3686   0.317   2.113   3.663
  743SOL    HW1 3687   0.388   2.184   3.669
  743SOL    HW2 3688   0.229   2.152   3.691
  744SOL     OW 3689   1.667   3.576   2.434
  744SOL    HW1 3690   1.626   3.553   2.346
  744SOL    HW2 3691   1.649   3.502   2.499
  745SOL     OW 3692   0.598   2.591   2.132
  745SOL    HW1 3693   0.622   2.660   2.064
  745SOL    HW2 3694   0.520   2.624   2.186
  746SOL     OW 3695   1.281   2.207   2.806
  746SOL    HW1 3696   1.195   2.157   2.793
  746SOL    HW2 3697   1.343   2.153   2.862
  747SOL     OW 3698   1.576   3.524   2.169
  747SOL    HW1 3699   1.665   3.570   2.172
  747SOL    HW2 3700   1.555   3.500   2.074
  748SOL     OW 3701   1.394   2.331   3.536
  748SOL    HW1 3702   1.374   2.374   3.624
  748SOL    HW2 3703   1.472   2.269   3.545
  749SOL     OW 3704   0.973   2.752   3.434
  749SOL    HW1 3705   1.019   2.668   3.405
  749SOL    HW2 3706   0.917   2.786   3.359
  750SOL     OW 3707   0.991   2.272   3.104
  750SOL    HW1 3708   0.914   2.306   3.158
  750SOL    HW2 3709   0.957   2.221   3.025
  751SOL     OW 3710   1.041   2.563   2.291
  751SOL    HW1 3711   1.067   2.559   2.387
  751SOL    HW2 3712   0.956   2.512   2.277
  752SOL     OW 3713   0.076   2.673   2.651
  752SOL    HW1 3714   0.175   2.661   2.660
  752SOL    HW2 3715   0.052   2.768   2.672
  753SOL     OW 3716   0.865   2.210   2.057
  753SOL    HW1 3717   0.924   2.273   2.008
  753SOL    HW2 3718   0.884   2.116   2.028
  754SOL     OW 3719   1.719   2.447   3.693
  754SOL    HW1 3720   1.693   2.536   3.657
  754SOL    HW2 3721   1.717   2.379   3.620
  755SOL     OW 3722   1.362   3.006   2.407
  755SOL    HW1 3723   1.445   2.977   2.359
  755SOL    HW2 3724   1.313   3.073   2.351
  756SOL     OW 3725   0.550   2.058   2.747
  756SOL    HW1 3726   0.545   2.053   2.847
  756SOL    HW2 3727   0.552   2.154   2.718
  757SOL     OW 3728   0.351   3.663   2.715
  757SOL    HW1 3729   0.401   3.577   2.721
  757SOL    HW2 3730   0.416   3.740   2.712
  758SOL     OW 3731   1.795   2.928   2.735
  758SOL    HW1 3732   1.733   2.913   2.659
  758SOL    HW2 3733   1.743   2.939   2.820
  759SOL     OW 3734   1.227   3.412   3.368
  759SOL    HW1 3735   1.233   3.335   3.432
  759SOL    HW2 3736   1.175   3.386   3.288
  760SOL     OW 3737   0.321   2.805   2.104
  760SOL    HW1 3738   0.403   2.844   2.062
  760SOL    HW2 3739   0.294   2.723   2.055
  761SOL     OW 3740   1.458   2.597   2.590
  761SOL    HW1 3741   1.453   2.532   2.665
  761SOL    HW2 3742   1.538   2.656   2.603
  762SOL     OW 3743   0.461   3.128   3.589
  762SOL    HW1 3744   0.411   3.129   3.503
  762SOL    HW2 3745   0.398   3.110   3.665
  763SOL     OW 3746   1.111   3.638   2.099
  763SOL    HW1 3747   1.051   3.576   2.149
  763SOL    HW2 3748   1.142   3.594   2.014
  764SOL     OW 3749   0.202   2.147   3.360
  764SOL    HW1 3750   0.122   2.207   3.347
  764SOL    HW2 3751   0.192   2.098   3.446
  765SOL     OW 3752   1.632   3.239   1.943
  765SOL    HW1 3753   1.600   3.333   1.933
  765SOL    HW2 3754   1.556   3.176   1.931
  766SOL     OW 3755   0.464   3.605   2.185
  766SOL    HW1 3756   0.497   3.644   2.271
  766SOL    HW2 3757   0.540   3.598   2.120
  767SOL     OW 3758   1.400   1.969   2.288
  767SOL    HW1 3759   1.376   1.932   2.198
  767SOL    HW2 3760   1.499   1.985   2.292
  768SOL     OW 3761   0.249   3.647   3.103
  768SOL    HW1 3762   0.306   3.582   3.153
  768SOL    HW2 3763   0.233   3.614   3.010
  769SOL     OW 3764   0.940   3.560   2.766
  769SOL    HW1 3765   1.020   3.503   2.787
  769SOL    HW2 3766   0.891   3.520   2.689
  770SOL     OW 3767   0.382   2.562   2.342
  770SOL    HW1 3768   0.427   2.472   2.339
  770SOL    HW2 3769   0.288   2.551   2.375
  771SOL     OW 3770   1.547   2.084   3.591
  771SOL    HW1 3771   1.542   2.121   3.683
  771SOL    HW2 3772   1.475   2.015   3.579
  772SOL     OW 3773   0.614   1.984   1.979
  772SOL    HW1 3774   0.712   1.962   1.986
  772SOL    HW2 3775   0.583   1.967   1.886
  773SOL     OW 3776   0.781   2.126   3.611
  773SOL    HW1 3777   0.848   2.065   3.654
  773SOL    HW2 3778   0.708   2.145   3.676
  774SOL     OW 3779   0.888   3.376   3.057
  774SOL    HW1 3780   0.865   3.351   2.963
  774SOL    HW2 3781   0.949   3.307   3.096
  775SOL     OW 3782   1.351   2.452   3.295
  775SOL    HW1 3783   1.379   2.409   3.380
  775SOL    HW2 3784   1.376   2.548   3.296
  776SOL     OW 3785   0.803   3.264   2.786
  776SOL    HW1 3786   0.893   3.278   2.744
  776SOL    HW2 3787   0.732   3.266   2.715
  777SOL     OW 3788   0.922   2.365   2.761
  777SOL    HW1 3789   0.897   2.356   2.665
  777SOL    HW2 3790   0.970   2.283   2.792
  778SOL     OW 3791   0.539   1.926   2.374
  778SOL    HW1 3792   0.458   1.927   2.432
  778SOL    HW2 3793   0.542   2.009   2.319
  779SOL     OW 3794   1.434   3.050   1.903
  779SOL    HW1 3795   1.466   2.974   1.960
  779SOL    HW2 3796   1.342   3.077   1.933
  780SOL     OW 3797   0.297   1.897   2.033
  780SOL    HW1 3798   0.346   1.981   2.012
  780SOL    HW2 3799   0.359   1.832   2.078
  781SOL     OW 3800   0.935   2.098   2.342
  781SOL    HW1 3801   0.887   2.139   2.264
  781SOL    HW2 3802   1.034   2.096   2.323
  782SOL     OW 3803   1.076   2.545   3.326
  782SOL    HW1 3804   0.996   2.484   3.329
  782SOL    HW2 3805   1.157   2.492   3.302
  783SOL     OW 3806   0.459   3.014   2.603
  783SOL    HW1 3807   0.388   2.987   2.668
  783SOL    HW2 3808   0.433   2.986   2.510
  784SOL     OW 3809   1.032   2.411   1.878
  784SOL    HW1 3810   0.991   2.493   1.839
  784SOL    HW2 3811   1.096   2.437   1.951
  785SOL     OW 3812   0.078   2.418   3.248
  785SOL    HW1 3813   0.170   2.417   3.207
  785SOL    HW2 3814   0.072   2.492   3.315
  786SOL     OW 3815   0.866   2.316   2.504
  786SOL    HW1 3816   0.834   2.388   2.442
  786SOL    HW2 3817   0.890   2.235   2.451
  787SOL     OW 3818   1.017   1.901   2.615
  787SOL    HW1 3819   0.945   1.906   2.546
  787SOL    HW2 3820   0.993   1.832   2.684
  788SOL     OW 3821   1.429   3.035   2.729
  788SOL    HW1 3822   1.374   2.951   2.722
  788SOL    HW2 3823   1.455   3.064   2.637
  789SOL     OW 3824   1.466   2.452   2.854
  789SOL    HW1 3825   1.436   2.357   2.861
  789SOL    HW2 3826   1.539   2.468   2.920
  790SOL     OW 3827   1.857   2.695   2.239
  790SOL    HW1 3828   1.899   2.631   2.303
  790SOL    HW2 3829   1.819   2.644   2.161
  791SOL     OW 3830   0.488   3.247   2.036
  791SOL    HW1 3831   0.401   3.232   2.083
  791SOL    HW2 3832   0.471   3.273   1.941
  792SOL     OW 3833   1.664   3.142   2.519
  792SOL    HW1 3834   1.763   3.150   2.533
  792SOL    HW2 3835   1.619   3.226   2.550
  793SOL     OW 3836   1.390   2.437   1.940
  793SOL    HW1 3837   1.336   2.416   2.021
  793SOL    HW2 3838   1.481   2.396   1.949
  794SOL     OW 3839   0.527   2.118   2.190
  794SOL    HW1 3840   0.554   2.059   2.115
  794SOL    HW2 3841   0.527   2.213   2.159
  795SOL     OW 3842   1.754   3.085   3.450
  795SOL    HW1 3843   1.845   3.046   3.437
  795SOL    HW2 3844   1.762   3.181   3.474
  796SOL     OW 3845   1.064   3.209   3.202
  796SOL    HW1 3846   0.984   3.186   3.257
  796SOL    HW2 3847   1.147   3.183   3.251
  797SOL     OW 3848   1.592   3.491   3.487
  797SOL    HW1 3849   1.619   3.525   3.397
  797SOL    HW2 3850   1.671   3.453   3.533
  798SOL     OW 3851   1.111   3.057   2.962
  798SOL    HW1 3852   1.071   3.101   3.043
  798SOL    HW2 3853   1.070   3.094   2.879
  799SOL     OW 3854   1.638   2.961   2.941
  799SOL    HW1 3855   1.643   3.042   3.000
  799SOL    HW2 3856   1.552   2.963   2.890
  800SOL     OW 3857   0.915   1.951   3.264
  800SOL    HW1 3858   0.940   1.931   3.169
  800SOL    HW2 3859   0.987   2.007   3.306
  801SOL     OW 3860   0.980   2.978   3.581
  801SOL    HW1 3861   0.881   2.984   3.591
  801SOL    HW2 3862   1.003   2.898   3.525
  802SOL     OW 3863   0.705   2.912   2.230
  802SOL    HW1 3864   0.691   2.919   2.329
  802SOL    HW2 3865   0.789   2.861   2.212
  803SOL     OW 3866   1.274   2.248   3.124
  803SOL    HW1 3867   1.295   2.322   3.188
  803SOL    HW2 3868   1.185   2.265   3.081
  804SOL     OW 3869   0.367   2.962   2.363
  804SOL    HW1 3870   0.360   3.045   2.307
  804SOL    HW2 3871   0.371   2.882   2.303
  805SOL     OW 3872   0.566   2.399   2.727
  805SOL    HW1 3873   0.578   2.465   2.653
  805SOL    HW2 3874   0.612   2.433   2.810
  806SOL     OW 3875   1.252   3.210   2.250
  806SOL    HW1 3876   1.302   3.287   2.290
  806SOL    HW2 3877   1.157   3.212   2.282
  807SOL     OW 3878   1.272   3.307   3.004
  807SOL    HW1 3879   1.319   3.320   3.091
  807SOL    HW2 3880   1.206   3.233   3.013
  808SOL     OW 3881   1.582   2.501   2.334
  808SOL    HW1 3882   1.551   2.562   2.407
  808SOL    HW2 3883   1.632   2.553   2.265
  809SOL     OW 3884   0.354   3.372   3.191
  809SOL    HW1 3885   0.333   3.328   3.104
  809SOL    HW2 3886   0.451   3.398   3.194
  810SOL     OW 3887   1.587   2.641   3.532
  810SOL    HW1 3888   1.495   2.679   3.527
  810SOL    HW2 3889   1.647   2.688   3.467
  811SOL     OW 3890   1.013   1.967   3.632
  811SOL    HW1 3891   1.019   2.052   3.580
  811SOL    HW2 3892   1.045   1.891   3.575
  812SOL     OW 3893   0.504   1.912   3.602
  812SOL    HW1 3894   0.462   1.855   3.532
  812SOL    HW2 3895   0.438   1.981   3.634
  813SOL     OW 3896   1.360   2.724   2.907
  813SOL    HW1 3897   1.285   2.724   2.841
  813SOL    HW2 3898   1.397   2.632   2.916
  814SOL     OW 3899   1.209   2.387   2.137
  814SOL    HW1 3900   1.222   2.303   2.191
  814SOL    HW2 3901   1.180   2.461   2.197
  815SOL     OW 3902   0.307   2.075   3.093
  815SOL    HW1 3903   0.284   2.112   3.183
  815SOL    HW2 3904   0.277   1.980   3.087
  816SOL     OW 3905   0.037   3.172   3.144
  816SOL    HW1 3906   0.090   3.123   3.212
  816SOL    HW2 3907   0.059   3.270   3.149
  817SOL     OW 3908   1.728   2.797   3.716
  817SOL    HW1 3909   1.682   2.790   3.627
  817SOL    HW2 3910   1.666   2.841   3.782
  818SOL     OW 3911   0.307   1.925   2.480
  818SOL    HW1 3912   0.296   2.019   2.513
  818SOL    HW2 3913   0.302   1.862   2.557
  819SOL     OW 3914   1.622   2.229   2.236
  819SOL    HW1 3915   1.624   2.153   2.300
  819SOL    HW2 3916   1.574   2.306   2.276
  820SOL     OW 3917   1.023   2.628   2.828
  820SOL    HW1 3918   1.038   2.649   2.924
  820SOL    HW2 3919   0.993   2.533   2.819
  821SOL     OW 3920   0.980   3.435   3.562
  821SOL    HW1 3921   0.960   3.479   3.474
  821SOL    HW2 3922   1.019   3.344   3.546
  822SOL     OW 3923   1.859   3.380   3.467
  822SOL    HW1 3924   1.873   3.407   3.372
  822SOL    HW2 3925   1.942   3.402   3.520
  823SOL     OW 3926   0.350   2.760   3.666
  823SOL    HW1 3927   0.426   2.804   3.714
  823SOL    HW2 3928   0.385   2.713   3.584
  824SOL     OW 3929   1.540   2.136   1.987
  824SOL    HW1 3930   1.479   2.061   2.010
  824SOL    HW2 3931   1.562   2.188   2.070
  825SOL     OW 3932   1.303   2.700   1.904
  825SOL    HW1 3933   1.337   2.607   1.919
  825SOL    HW2 3934   1.321   2.727   1.809
  826SOL     OW 3935   1.068   3.195   2.711
  826SOL    HW1 3936   1.075   3.111   2.656
  826SOL    HW2 3937   1.130   3.264   2.675
  827SOL     OW 3938   0.339   2.371   2.868
  827SOL    HW1 3939   0.287   2.288   2.851
  827SOL    HW2 3940   0.416   2.376   2.804
  828SOL     OW 3941   1.138   2.242   3.540
  828SOL    HW1 3942   1.093   2.305   3.604
  828SOL    HW2 3943   1.231   2.273   3.523
  829SOL     OW 3944   1.160   2.069   3.339
  829SOL    HW1 3945   1.160   2.133   3.416
  829SOL    HW2 3946   1.188   2.117   3.256
  830SOL     OW 3947   0.008   3.188   2.062
  830SOL    HW1 3948  -0.085   3.209   2.031
  830SOL    HW2 3949   0.018   3.089   2.075
  831SOL     OW 3950   0.088   3.663   2.789
  831SOL    HW1 3951   0.046   3.577   2.762
  831SOL    HW2 3952   0.182   3.666   2.755
  832SOL     OW 3953   0.504   3.430   2.772
  832SOL    HW1 3954   0.570   3.504   2.781
  832SOL    HW2 3955   0.548   3.351   2.730
  833SOL     OW 3956   0.040   2.406   2.976
  833SOL    HW1 3957   0.125   2.373   2.935
  833SOL    HW2 3958   0.053   2.421   3.074
  834SOL     OW 3959   0.189   2.382   3.584
  834SOL    HW1 3960   0.248   2.342   3.514
  834SOL    HW2 3961   0.131   2.453   3.543
  835SOL     OW 3962   1.369   2.812   3.522
  835SOL    HW1 3963   1.408   2.901   3.542
  835SOL    HW2 3964   1.379   2.792   3.425
  836SOL     OW 3965   0.815   2.434   2.187
  836SOL    HW1 3966   0.822   2.345   2.141
  836SOL    HW2 3967   0.721   2.468   2.179
  837SOL     OW 3968   1.657   2.466   3.068
  837SOL    HW1 3969   1.619   2.397   3.130
  837SOL    HW2 3970   1.739   2.430   3.024
  838SOL     OW 3971   0.252   3.426   3.606
  838SOL    HW1 3972   0.222   3.483   3.682
  838SOL    HW2 3973   0.245   3.329   3.632
  839SOL     OW 3974   0.930   3.540   3.327
  839SOL    HW1 3975   0.906   3.522   3.232
  839SOL    HW2 3976   0.960   3.634   3.337
  840SOL     OW 3977   0.473   2.362   2.053
  840SOL    HW1 3978   0.534   2.442   2.057
  840SOL    HW2 3979   0.378   2.393   2.060
  841SOL     OW 3980   0.159   2.999   3.328
  841SOL    HW1 3981   0.181   2.938   3.404
  841SOL    HW2 3982   0.169   2.950   3.242
  842SOL     OW 3983   1.347   2.921   3.096
  842SOL    HW1 3984   1.371   2.858   3.022
  842SOL    HW2 3985   1.257   2.961   3.078
  843SOL     OW 3986   1.302   2.717   2.171
  843SOL    HW1 3987   1.216   2.686   2.213
  843SOL    HW2 3988   1.298   2.703   2.072
  844SOL     OW 3989   1.759   3.609   3.016
  844SOL    HW1 3990   1.820   3.639   2.943
  844SOL    HW2 3991   1.721   3.520   2.994
  845SOL     OW 3992   0.083   3.120   2.884
  845SOL    HW1 3993   0.078   3.119   2.984
  845SOL    HW2 3994   0.000   3.079   2.846
  846SOL     OW 3995   0.688   3.524   3.578
  846SOL    HW1 3996   0.632   3.605   3.587
  846SOL    HW2 3997   0.740   3.528   3.492
  847SOL     OW 3998   1.726   1.997   2.385
  847SOL    HW1 3999   1.799   1.980   2.318
  847SOL    HW2 4000   1.695   1.910   2.423
  848SOL     OW 4001   1.388   3.435   2.339
  848SOL    HW1 4002   1.455   3.447   2.265
  848SOL    HW2 4003   1.348   3.524   2.362
  849SOL     OW 4004   0.130   3.656   3.713
  849SOL    HW1 4005   0.089   3.582   3.766
  849SOL    HW2 4006   0.194   3.707   3.771
  850SOL     OW 4007   1.280   2.789   2.534
  850SOL    HW1 4008   1.340   2.708   2.536
  850SOL    HW2 4009   1.320   2.858   2.474
  851SOL     OW 4010   0.830   3.135   3.284
  851SOL    HW1 4011   0.825   3.168   3.379
  851SOL    HW2 4012   0.744   3.154   3.238
  852SOL     OW 4013   0.672   3.478   2.016
  852SOL    HW1 4014   0.681   3.488   1.917
  852SOL    HW2 4015   0.632   3.389   2.037
  853SOL     OW 4016   1.650   3.582   3.256
  853SOL    HW1 4017   1.703   3.592   3.172
  853SOL    HW2 4018   1.623   3.672   3.290
  854SOL     OW 4019   1.841   2.037   2.825
  854SOL    HW1 4020   1.880   1.952   2.789
  854SOL    HW2 4021   1.743   2.039   2.806
  855SOL     OW 4022   0.263   2.188   2.582
  855SOL    HW1 4023   0.184   2.239   2.548
  855SOL    HW2 4024   0.254   2.173   2.680
  856SOL     OW 4025   1.194   3.474   1.893
  856SOL    HW1 4026   1.200   3.381   1.930
  856SOL    HW2 4027   1.135   3.474   1.813
  857SOL     OW 4028   0.822   2.864   3.234
  857SOL    HW1 4029   0.862   2.863   3.142
  857SOL    HW2 4030   0.832   2.956   3.274
  858SOL     OW 4031   0.916   2.772   2.153
  858SOL    HW1 4032   0.979   2.810   2.085
  858SOL    HW2 4033   0.956   2.689   2.192
  859SOL     OW 4034   1.504   3.469   1.906
  859SOL    HW1 4035   1.412   3.506   1.913
  859SOL    HW2 4036   1.542   3.489   1.816
  860SOL     OW 4037   0.372   3.150   3.352
  860SOL    HW1 4038   0.359   3.243   3.318
  860SOL    HW2 4039   0.288   3.098   3.339
  861SOL     OW 4040   1.614   3.154   3.151
  861SOL    HW1 4041   1.674   3.157   3.231
  861SOL    HW2 4042   1.539   3.218   3.164
  862SOL     OW 4043   1.039   2.960   2.558
  862SOL    HW1 4044   0.969   2.913   2.612
  862SOL    HW2 4045   1.098   2.892   2.515
  863SOL     OW 4046   1.014   2.098   2.833
  863SOL    HW1 4047   1.006   2.062   2.740
  863SOL    HW2 4048   1.012   2.022   2.898
  864SOL     OW 4049   0.590   3.349   2.353
  864SOL    HW1 4050   0.632   3.291   2.283
  864SOL    HW2 4051   0.546   3.428   2.309
  865SOL     OW 4052   1.709   2.247   3.243
  865SOL    HW1 4053   1.782   2.316   3.247
  865SOL    HW2 4054   1.737   2.172   3.184
  866SOL     OW 4055   0.255   3.210   2.152
  866SOL    HW1 4056   0.159   3.211   2.125
  866SOL    HW2 4057   0.267   3.263   2.236
  867SOL     OW 4058   0.105   2.875   3.588
  867SOL    HW1 4059   0.028   2.842   3.642
  867SOL    HW2 4060   0.190   2.845   3.630
  868SOL     OW 4061   0.075   2.207   1.895
  868SOL    HW1 4062  -0.017   2.179   1.866
  868SOL    HW2 4063   0.106   2.284   1.839
  869SOL     OW 4064   1.440   2.718   3.260
  869SOL    HW1 4065   1.383   2.770   3.197
  869SOL    HW2 4066   1.536   2.730   3.236
  870SOL     OW 4067   0.072   2.028   2.180
  870SOL    HW1 4068   0.055   2.111   2.126
  870SOL    HW2 4069   0.162   1.991   2.158
  871SOL     OW 4070   1.450   3.082   3.495
  871SOL    HW1 4071   1.441   3.072   3.594
  871SOL    HW2 4072   1.546   3.075   3.469
  872SOL     OW 4073   0.390   3.603   3.422
  872SOL    HW1 4074   0.299   3.644   3.420
  872SOL    HW2 4075   0.383   3.509   3.454
  873SOL     OW 4076   1.674   2.745   3.116
  873SOL    HW1 4077   1.647   2.656   3.079
  873SOL    HW2 4078   1.675   2.813   3.043
  874SOL     OW 4079   1.225   2.187   2.311
  874SOL    HW1 4080   1.290   2.113   2.300
  874SOL    HW2 4081   1.245   2.237   2.395
  875SOL     OW 4082   0.594   2.607   2.514
  875SOL    HW1 4083   0.644   2.692   2.495
  875SOL    HW2 4084   0.506   2.609   2.466
  876SOL     OW 4085   1.777   2.204   3.504
  876SOL    HW1 4086   1.760   2.235   3.410
  876SOL    HW2 4087   1.693   2.167   3.542
  877SOL     OW 4088   1.730   2.796   3.379
  877SOL    HW1 4089   1.768   2.887   3.394
  877SOL    HW2 4090   1.722   2.779   3.280
  878SOL     OW 4091   0.859   3.236   1.878
  878SOL    HW1 4092   0.813   3.251   1.966
  878SOL    HW2 4093   0.903   3.321   1.848
  879SOL     OW 4094   0.661   3.652   2.815
  879SOL    HW1 4095   0.615   3.740   2.802
  879SOL    HW2 4096   0.760   3.664   2.808
  880SOL     OW 4097   0.859   2.818   2.723
  880SOL    HW1 4098   0.913   2.749   2.771
  880SOL    HW2 4099   0.827   2.887   2.789
  881SOL     OW 4100   1.861   3.431   2.713
  881SOL    HW1 4101   1.790   3.419   2.643
  881SOL    HW2 4102   1.862   3.352   2.773
  882SOL     OW 4103   0.221   3.176   3.706
  882SOL    HW1 4104   0.156   3.103   3.685
  882SOL    HW2 4105   0.225   3.190   3.804
  883SOL     OW 4106   0.079   3.102   2.515
  883SOL    HW1 4107   0.078   3.055   2.603
  883SOL    HW2 4108   0.161   3.074   2.464
  884SOL     OW 4109   0.672   3.253   3.486
  884SOL    HW1 4110   0.594   3.203   3.524
  884SOL    HW2 4111   0.669   3.348   3.517
  885SOL     OW 4112   1.824   2.054   3.089
  885SOL    HW1 4113   1.820   1.964   3.133
  885SOL    HW2 4114   1.827   2.043   2.990
  886SOL     OW 4115   0.428   2.286   2.382
  886SOL    HW1 4116   0.458   2.214   2.320
  886SOL    HW2 4117   0.389   2.246   2.465
  887SOL     OW 4118   1.705   3.349   2.966
  887SOL    HW1 4119   1.612   3.324   2.939
  887SOL    HW2 4120   1.731   3.299   3.048
  888SOL     OW 4121   0.812   3.448   2.549
  888SOL    HW1 4122   0.844   3.458   2.455
  888SOL    HW2 4123   0.733   3.386   2.551
  889SOL     OW 4124   1.424   2.076   2.974
  889SOL    HW1 4125   1.476   2.011   3.029
  889SOL    HW2 4126   1.375   2.139   3.035
  890SOL     OW 4127   0.770   3.192   2.163
  890SOL    HW1 4128   0.724   3.105   2.180
  890SOL    HW2 4129   0.861   3.189   2.204
  891SOL     OW 4130   0.618   3.429   3.146
  891SOL    HW1 4131   0.613   3.511   3.203
  891SOL    HW2 4132   0.707   3.426   3.101
  892SOL     OW 4133   1.352   1.914   2.030
  892SOL    HW1 4134   1.387   1.873   1.946
  892SOL    HW2 4135   1.262   1.876   2.050
  893SOL     OW 4136   1.300   2.315   2.553
  893SOL    HW1 4137   1.241   2.395   2.557
  893SOL    HW2 4138   1.315   2.280   2.646
  894SOL     OW 4139   1.593   2.083   2.744
  894SOL    HW1 4140   1.509   2.082   2.798
  894SOL    HW2 4141   1.595   2.166   2.688
  895SOL     OW 4142   0.039   2.939   2.162
  895SOL    HW1 4143   0.138   2.928   2.153
  895SOL    HW2 4144  -0.001   2.853   2.194
  896SOL     OW 4145   0.875   3.508   2.199
  896SOL    HW1 4146   0.798   3.473   2.145
  896SOL    HW2 4147   0.843   3.579   2.261
  897SOL     OW 4148   0.230   2.490   3.837
  897SOL    HW1 4149   0.137   2.488   3.874
  897SOL    HW2 4150   0.231   2.451   3.745
  898SOL     OW 4151   0.225   2.137   4.720
  898SOL    HW1 4152   0.260   2.120   4.812
  898SOL    HW2 4153   0.137   2.092   4.708
  899SOL     OW 4154   0.019   2.230   4.371
  899SOL    HW1 4155  -0.063   2.273   4.410
  899SOL    HW2 4156  -0.009   2.157   4.308
  900SOL     OW 4157   1.555   3.373   4.427
  900SOL    HW1 4158   1.498   3.357   4.508
  900SOL    HW2 4159   1.496   3.383   4.347
  901SOL     OW 4160   1.135   2.565   4.441
  901SOL    HW1 4161   1.192   2.643   4.416
  901SOL    HW2 4162   1.075   2.591   4.517
  902SOL     OW 4163   1.755   2.469   3.955
  902SOL    HW1 4164   1.743   2.456   3.856
  902SOL    HW2 4165   1.725   2.388   4.004
  903SOL     OW 4166   0.335   3.297   4.785
  903SOL    HW1 4167   0.257   3.266   4.732
  903SOL    HW2 4168   0.393   3.355   4.728
  904SOL     OW 4169   1.603   2.309   4.461
  904SOL    HW1 4170   1.529   2.355   4.411
  904SOL    HW2 4171   1.654   2.377   4.514
  905SOL     OW 4172   0.231   3.575   4.207
  905SOL    HW1 4173   0.265   3.652   4.261
  905SOL    HW2 4174   0.275   3.575   4.117
  906SOL     OW 4175   0.230   3.296   4.262
  906SOL    HW1 4176   0.204   3.392   4.262
  906SOL    HW2 4177   0.159   3.242   4.307
  907SOL     OW 4178   0.620   3.648   5.163
  907SOL    HW1 4179   0.528   3.631   5.198
  907SOL    HW2 4180   0.648   3.740   5.189
  908SOL     OW 4181   0.122   2.505   4.287
  908SOL    HW1 4182   0.077   2.417   4.304
  908SOL    HW2 4183   0.121   2.559   4.371
  909SOL     OW 4184   1.842   3.629   4.083
  909SOL    HW1 4185   1.896   3.600   4.163
  909SOL    HW2 4186   1.872   3.719   4.054
  910SOL     OW 4187   0.027   3.458   3.841
  910SOL    HW1 4188   0.008   3.362   3.862
  910SOL    HW2 4189  -0.006   3.516   3.916
  911SOL     OW 4190   1.689   2.784   4.336
  911SOL    HW1 4191   1.784   2.755   4.344
  911SOL    HW2 4192   1.681   2.849   4.261
  912SOL     OW 4193   1.641   2.970   4.156
  912SOL    HW1 4194   1.727   2.972   4.104
  912SOL    HW2 4195   1.655   3.017   4.244
  913SOL     OW 4196   0.809   1.866   4.226
  913SOL    HW1 4197   0.849   1.957   4.217
  913SOL    HW2 4198   0.709   1.874   4.232
  914SOL     OW 4199   0.197   2.838   4.988
  914SOL    HW1 4200   0.286   2.793   4.974
  914SOL    HW2 4201   0.124   2.773   4.969
  915SOL     OW 4202   1.525   2.861   3.914
  915SOL    HW1 4203   1.462   2.785   3.927
  915SOL    HW2 4204   1.573   2.879   4.000
  916SOL     OW 4205   1.466   3.279   4.677
  916SOL    HW1 4206   1.407   3.285   4.757
  916SOL    HW2 4207   1.451   3.191   4.631
  917SOL     OW 4208   1.667   3.576   4.296
  917SOL    HW1 4209   1.626   3.553   4.208
  917SOL    HW2 4210   1.649   3.502   4.361
  918SOL     OW 4211   1.281   2.207   4.668
  918SOL    HW1 4212   1.195   2.157   4.655
  918SOL    HW2 4213   1.343   2.153   4.724
  919SOL     OW 4214   1.576   3.524   4.031
  919SOL    HW1 4215   1.665   3.570   4.034
  919SOL    HW2 4216   1.555   3.500   3.936
  920SOL     OW 4217   0.991   2.272   4.966
  920SOL    HW1 4218   0.914   2.306   5.020
  920SOL    HW2 4219   0.957   2.221   4.887
  921SOL     OW 4220   1.041   2.563   4.153
  921SOL    HW1 4221   1.067   2.559   4.249
  921SOL    HW2 4222   0.956   2.512   4.139
  922SOL     OW 4223   0.076   2.673   4.513
  922SOL    HW1 4224   0.175   2.661   4.522
  922SOL    HW2 4225   0.052   2.768   4.534
  923SOL     OW 4226   0.130   3.683   5.295
  923SOL    HW1 4227   0.120   3.668   5.394
  923SOL    HW2 4228   0.044   3.719   5.259
  924SOL     OW 4229   0.865   2.210   3.919
  924SOL    HW1 4230   0.924   2.273   3.870
  924SOL    HW2 4231   0.884   2.116   3.890
  925SOL     OW 4232   1.362   3.006   4.269
  925SOL    HW1 4233   1.445   2.977   4.221
  925SOL    HW2 4234   1.313   3.073   4.213
  926SOL     OW 4235   0.550   2.058   4.609
  926SOL    HW1 4236   0.545   2.053   4.709
  926SOL    HW2 4237   0.552   2.154   4.580
  927SOL     OW 4238   0.351   3.663   4.577
  927SOL    HW1 4239   0.401   3.577   4.583
  927SOL    HW2 4240   0.416   3.740   4.574
  928SOL     OW 4241   1.795   2.928   4.597
  928SOL    HW1 4242   1.733   2.913   4.521
  928SOL    HW2 4243   1.743   2.939   4.682
  929SOL     OW 4244   0.321   2.805   3.966
  929SOL    HW1 4245   0.403   2.844   3.924
  929SOL    HW2 4246   0.294   2.723   3.917
  930SOL     OW 4247   1.458   2.597   4.452
  930SOL    HW1 4248   1.453   2.532   4.527
  930SOL    HW2 4249   1.538   2.656   4.465
  931SOL     OW 4250   1.111   3.638   3.961
  931SOL    HW1 4251   1.051   3.576   4.011
  931SOL    HW2 4252   1.142   3.594   3.876
  932SOL     OW 4253   1.632   3.239   3.805
  932SOL    HW1 4254   1.600   3.333   3.795
  932SOL    HW2 4255   1.556   3.176   3.793
  933SOL     OW 4256   0.464   3.605   4.047
  933SOL    HW1 4257   0.497   3.644   4.133
  933SOL    HW2 4258   0.540   3.598   3.982
  934SOL     OW 4259   1.400   1.969   4.150
  934SOL    HW1 4260   1.376   1.932   4.060
  934SOL    HW2 4261   1.499   1.985   4.154
  935SOL     OW 4262   0.249   3.647   4.965
  935SOL    HW1 4263   0.306   3.582   5.015
  935SOL    HW2 4264   0.233   3.614   4.872
  936SOL     OW 4265   0.940   3.560   4.628
  936SOL    HW1 4266   1.020   3.503   4.649
  936SOL    HW2 4267   0.891   3.520   4.551
  937SOL     OW 4268   0.382   2.562   4.204
  937SOL    HW1 4269   0.427   2.472   4.201
  937SOL    HW2 4270   0.288   2.551   4.237
  938SOL     OW 4271   0.614   1.984   3.841
  938SOL    HW1 4272   0.712   1.962   3.848
  938SOL    HW2 4273   0.583   1.967   3.748
  939SOL     OW 4274   0.922   2.365   4.623
  939SOL    HW1 4275   0.897   2.356   4.527
  939SOL    HW2 4276   0.970   2.283   4.654
  940SOL     OW 4277   0.539   1.926   4.236
  940SOL    HW1 4278   0.458   1.927   4.294
  940SOL    HW2 4279   0.542   2.009   4.181
  941SOL     OW 4280   1.434   3.050   3.765
  941SOL    HW1 4281   1.466   2.974   3.822
  941SOL    HW2 4282   1.342   3.077   3.795
  942SOL     OW 4283   0.297   1.897   3.895
  942SOL    HW1 4284   0.346   1.981   3.874
  942SOL    HW2 4285   0.359   1.832   3.940
  943SOL     OW 4286   0.935   2.098   4.204
  943SOL    HW1 4287   0.887   2.139   4.126
  943SOL    HW2 4288   1.034   2.096   4.185
  944SOL     OW 4289   1.227   3.432   4.517
  944SOL    HW1 4290   1.248   3.506   4.452
  944SOL    HW2 4291   1.295   3.432   4.590
  945SOL     OW 4292   1.271   3.659   4.315
  945SOL    HW1 4293   1.315   3.723   4.251
  945SOL    HW2 4294   1.221   3.711   4.385
  946SOL     OW 4295   1.032   2.411   3.740
  946SOL    HW1 4296   0.991   2.493   3.701
  946SOL    HW2 4297   1.096   2.437   3.813
  947SOL     OW 4298   0.561   2.084   4.871
  947SOL    HW1 4299   0.599   2.000   4.908
  947SOL    HW2 4300   0.473   2.103   4.915
  948SOL     OW 4301   0.866   2.316   4.366
  948SOL    HW1 4302   0.834   2.388   4.304
  948SOL    HW2 4303   0.890   2.235   4.313
  949SOL     OW 4304   1.017   1.901   4.477
  949SOL    HW1 4305   0.945   1.906   4.408
  949SOL    HW2 4306   0.993   1.832   4.546
  950SOL     OW 4307   1.429   3.035   4.591
  950SOL    HW1 4308   1.374   2.951   4.584
  950SOL    HW2 4309   1.455   3.064   4.499
  951SOL     OW 4310   1.466   2.452   4.716
  951SOL    HW1 4311   1.436   2.357   4.723
  951SOL    HW2 4312   1.539   2.468   4.782
  952SOL     OW 4313   1.857   2.695   4.101
  952SOL    HW1 4314   1.899   2.631   4.165
  952SOL    HW2 4315   1.819   2.644   4.023
  953SOL     OW 4316   0.488   3.247   3.898
  953SOL    HW1 4317   0.401   3.232   3.945
  953SOL    HW2 4318   0.471   3.273   3.803
  954SOL     OW 4319   1.664   3.142   4.381
  954SOL    HW1 4320   1.763   3.150   4.395
  954SOL    HW2 4321   1.619   3.226   4.412
  955SOL     OW 4322   1.390   2.437   3.802
  955SOL    HW1 4323   1.336   2.416   3.883
  955SOL    HW2 4324   1.481   2.396   3.811
  956SOL     OW 4325   0.527   2.118   4.052
  956SOL    HW1 4326   0.554   2.059   3.977
  956SOL    HW2 4327   0.527   2.213   4.021
  957SOL     OW 4328   1.111   3.057   4.824
  957SOL    HW1 4329   1.071   3.101   4.905
  957SOL    HW2 4330   1.070   3.094   4.741
  958SOL     OW 4331   1.638   2.961   4.803
  958SOL    HW1 4332   1.643   3.042   4.862
  958SOL    HW2 4333   1.552   2.963   4.752
  959SOL     OW 4334   0.410   2.675   4.975
  959SOL    HW1 4335   0.496   2.687   5.025
  959SOL    HW2 4336   0.368   2.588   5.002
  960SOL     OW 4337   1.274   2.248   4.986
  960SOL    HW1 4338   1.295   2.322   5.050
  960SOL    HW2 4339   1.185   2.265   4.943
  961SOL     OW 4340   0.566   2.399   4.589
  961SOL    HW1 4341   0.578   2.465   4.515
  961SOL    HW2 4342   0.612   2.433   4.672
  962SOL     OW 4343   1.252   3.210   4.112
  962SOL    HW1 4344   1.302   3.287   4.152
  962SOL    HW2 4345   1.157   3.212   4.144
  963SOL     OW 4346   1.272   3.307   4.866
  963SOL    HW1 4347   1.319   3.320   4.953
  963SOL    HW2 4348   1.206   3.233   4.875
  964SOL     OW 4349   1.582   2.501   4.196
  964SOL    HW1 4350   1.551   2.562   4.269
  964SOL    HW2 4351   1.632   2.553   4.127
  965SOL     OW 4352   0.573   2.732   4.753
  965SOL    HW1 4353   0.617   2.821   4.744
  965SOL    HW2 4354   0.510   2.732   4.830
  966SOL     OW 4355   1.360   2.724   4.769
  966SOL    HW1 4356   1.285   2.724   4.703
  966SOL    HW2 4357   1.397   2.632   4.778
  967SOL     OW 4358   1.209   2.387   3.999
  967SOL    HW1 4359   1.222   2.303   4.053
  967SOL    HW2 4360   1.180   2.461   4.059
  968SOL     OW 4361   0.307   2.075   4.955
  968SOL    HW1 4362   0.284   2.112   5.045
  968SOL    HW2 4363   0.277   1.980   4.949
  969SOL     OW 4364   0.037   3.172   5.006
  969SOL    HW1 4365   0.090   3.123   5.074
  969SOL    HW2 4366   0.059   3.270   5.011
  970SOL     OW 4367   0.732   2.496   4.788
  970SOL    HW1 4368   0.791   2.470   4.712
  970SOL    HW2 4369   0.704   2.592   4.777
  971SOL     OW 4370   0.307   1.925   4.342
  971SOL    HW1 4371   0.296   2.019   4.375
  971SOL    HW2 4372   0.302   1.862   4.419
  972SOL     OW 4373   1.622   2.229   4.098
  972SOL    HW1 4374   1.624   2.153   4.162
  972SOL    HW2 4375   1.574   2.306   4.138
  973SOL     OW 4376   1.023   2.628   4.690
  973SOL    HW1 4377   1.038   2.649   4.786
  973SOL    HW2 4378   0.993   2.533   4.681
  974SOL     OW 4379   1.540   2.136   3.849
  974SOL    HW1 4380   1.479   2.061   3.872
  974SOL    HW2 4381   1.562   2.188   3.932
  975SOL     OW 4382   1.303   2.700   3.766
  975SOL    HW1 4383   1.337   2.607   3.781
  975SOL    HW2 4384   1.321   2.727   3.671
  976SOL     OW 4385   1.068   3.195   4.573
  976SOL    HW1 4386   1.075   3.111   4.518
  976SOL    HW2 4387   1.130   3.264   4.537
  977SOL     OW 4388   0.319   2.672   4.673
  977SOL    HW1 4389   0.412   2.708   4.678
  977SOL    HW2 4390   0.313   2.587   4.725
  978SOL     OW 4391   0.339   2.371   4.730
  978SOL    HW1 4392   0.287   2.288   4.713
  978SOL    HW2 4393   0.416   2.376   4.666
  979SOL     OW 4394   1.160   2.069   5.201
  979SOL    HW1 4395   1.160   2.133   5.278
  979SOL    HW2 4396   1.188   2.117   5.118
  980SOL     OW 4397   0.008   3.188   3.924
  980SOL    HW1 4398  -0.085   3.209   3.893
  980SOL    HW2 4399   0.018   3.089   3.937
  981SOL     OW 4400   0.088   3.663   4.651
  981SOL    HW1 4401   0.046   3.577   4.624
  981SOL    HW2 4402   0.182   3.666   4.617
  982SOL     OW 4403   0.504   3.430   4.634
  982SOL    HW1 4404   0.570   3.504   4.643
  982SOL    HW2 4405   0.548   3.351   4.592
  983SOL     OW 4406   1.002   2.658   4.962
  983SOL    HW1 4407   1.043   2.626   5.048
  983SOL    HW2 4408   0.906   2.631   4.959
  984SOL     OW 4409   0.040   2.406   4.838
  984SOL    HW1 4410   0.125   2.373   4.797
  984SOL    HW2 4411   0.053   2.421   4.936
  985SOL     OW 4412   1.657   2.466   4.930
  985SOL    HW1 4413   1.619   2.397   4.992
  985SOL    HW2 4414   1.739   2.430   4.886
  986SOL     OW 4415   0.671   2.326   4.993
  986SOL    HW1 4416   0.637   2.237   4.963
  986SOL    HW2 4417   0.697   2.380   4.913
  987SOL     OW 4418   0.930   3.540   5.189
  987SOL    HW1 4419   0.906   3.522   5.094
  987SOL    HW2 4420   0.960   3.634   5.199
  988SOL     OW 4421   0.473   2.362   3.915
  988SOL    HW1 4422   0.534   2.442   3.919
  988SOL    HW2 4423   0.378   2.393   3.922
  989SOL     OW 4424   1.347   2.921   4.958
  989SOL    HW1 4425   1.371   2.858   4.884
  989SOL    HW2 4426   1.257   2.961   4.940
  990SOL     OW 4427   1.302   2.717   4.033
  990SOL    HW1 4428   1.216   2.686   4.075
  990SOL    HW2 4429   1.298   2.703   3.934
  991SOL     OW 4430   1.759   3.609   4.878
  991SOL    HW1 4431   1.820   3.639   4.805
  991SOL    HW2 4432   1.721   3.520   4.856
  992SOL     OW 4433   1.252   3.593   4.852
  992SOL    HW1 4434   1.336   3.598   4.798
  992SOL    HW2 4435   1.229   3.497   4.870
  993SOL     OW 4436   0.083   3.120   4.746
  993SOL    HW1 4437   0.078   3.119   4.846
  993SOL    HW2 4438   0.000   3.079   4.708
  994SOL     OW 4439   1.726   1.997   4.247
  994SOL    HW1 4440   1.799   1.980   4.180
  994SOL    HW2 4441   1.695   1.910   4.285
  995SOL     OW 4442   1.388   3.435   4.201
  995SOL    HW1 4443   1.455   3.447   4.127
  995SOL    HW2 4444   1.348   3.524   4.224
  996SOL     OW 4445   1.280   2.789   4.396
  996SOL    HW1 4446   1.340   2.708   4.398
  996SOL    HW2 4447   1.320   2.858   4.336
  997SOL     OW 4448   0.672   3.478   3.878
  997SOL    HW1 4449   0.681   3.488   3.779
  997SOL    HW2 4450   0.632   3.389   3.899
  998SOL     OW 4451   1.841   2.037   4.687
  998SOL    HW1 4452   1.880   1.952   4.651
  998SOL    HW2 4453   1.743   2.039   4.668
  999SOL     OW 4454   0.263   2.188   4.444
  999SOL    HW1 4455   0.184   2.239   4.410
  999SOL    HW2 4456   0.254   2.173   4.542
 1000SOL     OW 4457   1.194   3.474   3.755
 1000SOL    HW1 4458   1.200   3.381   3.792
 1000SOL    HW2 4459   1.135   3.474   3.675
 1001SOL     OW 4460   0.822   2.864   5.096
 1001SOL    HW1 4461   0.862   2.863   5.004
 1001SOL    HW2 4462   0.832   2.956   5.136
 1002SOL     OW 4463   1.504   3.469   3.768
 1002SOL    HW1 4464   1.412   3.506   3.775
 1002SOL    HW2 4465   1.542   3.489   3.678
 1003SOL     OW 4466   1.039   2.960   4.420
 1003SOL    HW1 4467   0.969   2.913   4.474
 1003SOL    HW2 4468   1.098   2.892   4.377
 1004SOL     OW 4469   1.014   2.098   4.695
 1004SOL    HW1 4470   1.006   2.062   4.602
 1004SOL    HW2 4471   1.012   2.022   4.760
 1005SOL     OW 4472   1.709   2.247   5.105
 1005SOL    HW1 4473   1.782   2.316   5.109
 1005SOL    HW2 4474   1.737   2.172   5.046
 1006SOL     OW 4475   0.255   3.210   4.014
 1006SOL    HW1 4476   0.159   3.211   3.987
 1006SOL    HW2 4477   0.267   3.263   4.098
 1007SOL     OW 4478   0.075   2.207   3.757
 1007SOL    HW1 4479  -0.017   2.179   3.728
 1007SOL    HW2 4480   0.106   2.284   3.701
 1008SOL     OW 4481   0.072   2.028   4.042
 1008SOL    HW1 4482   0.055   2.111   3.988
 1008SOL    HW2 4483   0.162   1.991   4.020
 1009SOL     OW 4484   1.183   3.197   3.843
 1009SOL    HW1 4485   1.084   3.186   3.845
 1009SOL    HW2 4486   1.217   3.212   3.936
 1010SOL     OW 4487   1.493   3.629   4.683
 1010SOL    HW1 4488   1.526   3.693   4.614
 1010SOL    HW2 4489   1.559   3.623   4.758
 1011SOL     OW 4490   1.450   3.082   5.357
 1011SOL    HW1 4491   1.441   3.072   5.456
 1011SOL    HW2 4492   1.546   3.075   5.331
 1012SOL     OW 4493   1.674   2.745   4.978
 1012SOL    HW1 4494   1.647   2.656   4.941
 1012SOL    HW2 4495   1.675   2.813   4.905
 1013SOL     OW 4496   1.225   2.187   4.173
 1013SOL    HW1 4497   1.290   2.113   4.162
 1013SOL    HW2 4498   1.245   2.237   4.257
 1014SOL     OW 4499   0.594   2.607   4.376
 1014SOL    HW1 4500   0.644   2.692   4.357
 1014SOL    HW2 4501   0.506   2.609   4.328
 1015SOL     OW 4502   1.730   2.796   5.241
 1015SOL    HW1 4503   1.768   2.887   5.256
 1015SOL    HW2 4504   1.722   2.779   5.142
 1016SOL     OW 4505   0.859   3.236   3.740
 1016SOL    HW1 4506   0.813   3.251   3.828
 1016SOL    HW2 4507   0.903   3.321   3.710
 1017SOL     OW 4508   0.661   3.652   4.677
 1017SOL    HW1 4509   0.615   3.740   4.664
 1017SOL    HW2 4510   0.760   3.664   4.670
 1018SOL     OW 4511   0.859   2.818   4.585
 1018SOL    HW1 4512   0.913   2.749   4.633
 1018SOL    HW2 4513   0.827   2.887   4.651
 1019SOL     OW 4514   1.861   3.431   4.575
 1019SOL    HW1 4515   1.790   3.419   4.505
 1019SOL    HW2 4516   1.862   3.352   4.635
 1020SOL     OW 4517   1.824   2.054   4.951
 1020SOL    HW1 4518   1.820   1.964   4.995
 1020SOL    HW2 4519   1.827   2.043   4.852
 1021SOL     OW 4520   0.428   2.286   4.244
 1021SOL    HW1 4521   0.458   2.214   4.182
 1021SOL    HW2 4522   0.389   2.246   4.327
 1022SOL     OW 4523   1.705   3.349   4.828
 1022SOL    HW1 4524   1.612   3.324   4.801
 1022SOL    HW2 4525   1.731   3.299   4.910
 1023SOL     OW 4526   0.812   3.448   4.411
 1023SOL    HW1 4527   0.844   3.458   4.317
 1023SOL    HW2 4528   0.733   3.386   4.413
 1024SOL     OW 4529   1.424   2.076   4.836
 1024SOL    HW1 4530   1.476   2.011   4.891
 1024SOL    HW2 4531   1.375   2.139   4.897
 1025SOL     OW 4532   1.001   1.896   4.878
 1025SOL    HW1 4533   0.938   1.824   4.847
 1025SOL    HW2 4534   1.094   1.860   4.878
 1026SOL     OW 4535   0.770   3.192   4.025
 1026SOL    HW1 4536   0.724   3.105   4.042
 1026SOL    HW2 4537   0.861   3.189   4.066
 1027SOL     OW 4538   1.352   1.914   3.892
 1027SOL    HW1 4539   1.387   1.873   3.808
 1027SOL    HW2 4540   1.262   1.876   3.912
 1028SOL     OW 4541   1.300   2.315   4.415
 1028SOL    HW1 4542   1.241   2.395   4.419
 1028SOL    HW2 4543   1.315   2.280   4.508
 1029SOL     OW 4544   1.593   2.083   4.606
 1029SOL    HW1 4545   1.509   2.082   4.660
 1029SOL    HW2 4546   1.595   2.166   4.550
 1030SOL     OW 4547   0.039   2.939   4.024
 1030SOL    HW1 4548   0.138   2.928   4.015
 1030SOL    HW2 4549  -0.001   2.853   4.056
 1031SOL     OW 4550   0.875   3.508   4.061
 1031SOL    HW1 4551   0.798   3.473   4.007
 1031SOL    HW2 4552   0.843   3.579   4.123
 1032SOL     OW 4553   0.230   4.352   0.113
 1032SOL    HW1 4554   0.137   4.350   0.150
 1032SOL    HW2 4555   0.231   4.313   0.021
 1033SOL     OW 4556   0.225   3.999   0.996
 1033SOL    HW1 4557   0.260   3.982   1.088
 1033SOL    HW2 4558   0.137   3.954   0.984
 1034SOL     OW 4559   0.019   4.092   0.647
 1034SOL    HW1 4560  -0.063   4.135   0.686
 1034SOL    HW2 4561  -0.009   4.019   0.584
 1035SOL     OW 4562   0.569   4.999   1.165
 1035SOL    HW1 4563   0.476   4.992   1.128
 1035SOL    HW2 4564   0.580   5.088   1.209
 1036SOL     OW 4565   1.555   5.235   0.703
 1036SOL    HW1 4566   1.498   5.219   0.784
 1036SOL    HW2 4567   1.496   5.245   0.623
 1037SOL     OW 4568   1.135   4.427   0.717
 1037SOL    HW1 4569   1.192   4.505   0.692
 1037SOL    HW2 4570   1.075   4.453   0.793
 1038SOL     OW 4571   1.755   4.331   0.231
 1038SOL    HW1 4572   1.743   4.318   0.132
 1038SOL    HW2 4573   1.725   4.250   0.280
 1039SOL     OW 4574   0.768   4.868   1.023
 1039SOL    HW1 4575   0.690   4.885   1.083
 1039SOL    HW2 4576   0.802   4.955   0.987
 1040SOL     OW 4577   0.850   4.522   1.823
 1040SOL    HW1 4578   0.846   4.598   1.888
 1040SOL    HW2 4579   0.872   4.558   1.732
 1041SOL     OW 4580   0.685   4.736   0.665
 1041SOL    HW1 4581   0.754   4.720   0.735
 1041SOL    HW2 4582   0.612   4.793   0.703
 1042SOL     OW 4583   0.686   4.885   1.803
 1042SOL    HW1 4584   0.746   4.964   1.817
 1042SOL    HW2 4585   0.600   4.916   1.762
 1043SOL     OW 4586   0.438   4.116   1.499
 1043SOL    HW1 4587   0.520   4.060   1.508
 1043SOL    HW2 4588   0.357   4.058   1.503
 1044SOL     OW 4589   1.603   4.171   0.737
 1044SOL    HW1 4590   1.529   4.217   0.687
 1044SOL    HW2 4591   1.654   4.239   0.790
 1045SOL     OW 4592   1.594   3.838   1.480
 1045SOL    HW1 4593   1.576   3.905   1.408
 1045SOL    HW2 4594   1.591   3.884   1.569
 1046SOL     OW 4595   0.122   4.367   0.563
 1046SOL    HW1 4596   0.077   4.279   0.580
 1046SOL    HW2 4597   0.121   4.421   0.647
 1047SOL     OW 4598   1.689   4.646   0.612
 1047SOL    HW1 4599   1.784   4.617   0.620
 1047SOL    HW2 4600   1.681   4.711   0.537
 1048SOL     OW 4601   1.641   4.832   0.432
 1048SOL    HW1 4602   1.727   4.834   0.380
 1048SOL    HW2 4603   1.655   4.879   0.520
 1049SOL     OW 4604   0.113   4.461   1.597
 1049SOL    HW1 4605   0.201   4.448   1.642
 1049SOL    HW2 4606   0.100   4.558   1.575
 1050SOL     OW 4607   1.293   4.952   1.423
 1050SOL    HW1 4608   1.330   4.879   1.365
 1050SOL    HW2 4609   1.345   4.957   1.508
 1051SOL     OW 4610   0.809   3.728   0.502
 1051SOL    HW1 4611   0.849   3.819   0.493
 1051SOL    HW2 4612   0.709   3.736   0.508
 1052SOL     OW 4613   0.197   4.700   1.264
 1052SOL    HW1 4614   0.286   4.655   1.250
 1052SOL    HW2 4615   0.124   4.635   1.245
 1053SOL     OW 4616   1.525   4.723   0.190
 1053SOL    HW1 4617   1.462   4.647   0.203
 1053SOL    HW2 4618   1.573   4.741   0.276
 1054SOL     OW 4619   0.317   3.975   1.801
 1054SOL    HW1 4620   0.388   4.046   1.807
 1054SOL    HW2 4621   0.229   4.014   1.829
 1055SOL     OW 4622   1.466   5.141   0.953
 1055SOL    HW1 4623   1.407   5.147   1.033
 1055SOL    HW2 4624   1.451   5.053   0.907
 1056SOL     OW 4625   1.281   4.069   0.944
 1056SOL    HW1 4626   1.195   4.019   0.931
 1056SOL    HW2 4627   1.343   4.015   1.000
 1057SOL     OW 4628   0.807   4.329   1.465
 1057SOL    HW1 4629   0.760   4.326   1.554
 1057SOL    HW2 4630   0.756   4.274   1.399
 1058SOL     OW 4631   1.394   4.193   1.674
 1058SOL    HW1 4632   1.374   4.236   1.762
 1058SOL    HW2 4633   1.472   4.131   1.683
 1059SOL     OW 4634   0.973   4.614   1.572
 1059SOL    HW1 4635   1.019   4.530   1.543
 1059SOL    HW2 4636   0.917   4.648   1.497
 1060SOL     OW 4637   0.991   4.134   1.242
 1060SOL    HW1 4638   0.914   4.168   1.296
 1060SOL    HW2 4639   0.957   4.083   1.163
 1061SOL     OW 4640   0.076   4.535   0.789
 1061SOL    HW1 4641   0.175   4.523   0.798
 1061SOL    HW2 4642   0.052   4.630   0.810
 1062SOL     OW 4643   0.865   4.072   0.195
 1062SOL    HW1 4644   0.924   4.135   0.146
 1062SOL    HW2 4645   0.884   3.978   0.166
 1063SOL     OW 4646   1.719   4.309   1.831
 1063SOL    HW1 4647   1.693   4.398   1.795
 1063SOL    HW2 4648   1.717   4.241   1.758
 1064SOL     OW 4649   1.362   4.868   0.545
 1064SOL    HW1 4650   1.445   4.839   0.497
 1064SOL    HW2 4651   1.313   4.935   0.489
 1065SOL     OW 4652   0.321   4.667   0.242
 1065SOL    HW1 4653   0.403   4.706   0.200
 1065SOL    HW2 4654   0.294   4.585   0.193
 1066SOL     OW 4655   1.458   4.459   0.728
 1066SOL    HW1 4656   1.453   4.394   0.803
 1066SOL    HW2 4657   1.538   4.518   0.741
 1067SOL     OW 4658   0.202   4.009   1.498
 1067SOL    HW1 4659   0.122   4.069   1.485
 1067SOL    HW2 4660   0.192   3.960   1.584
 1068SOL     OW 4661   1.632   5.101   0.081
 1068SOL    HW1 4662   1.600   5.195   0.071
 1068SOL    HW2 4663   1.556   5.038   0.069
 1069SOL     OW 4664   0.382   4.424   0.480
 1069SOL    HW1 4665   0.427   4.334   0.477
 1069SOL    HW2 4666   0.288   4.413   0.513
 1070SOL     OW 4667   1.547   3.946   1.729
 1070SOL    HW1 4668   1.542   3.983   1.821
 1070SOL    HW2 4669   1.475   3.877   1.717
 1071SOL     OW 4670   0.781   3.988   1.749
 1071SOL    HW1 4671   0.848   3.927   1.792
 1071SOL    HW2 4672   0.708   4.007   1.814
 1072SOL     OW 4673   1.351   4.314   1.433
 1072SOL    HW1 4674   1.379   4.271   1.518
 1072SOL    HW2 4675   1.376   4.410   1.434
 1073SOL     OW 4676   0.803   5.126   0.924
 1073SOL    HW1 4677   0.893   5.140   0.882
 1073SOL    HW2 4678   0.732   5.128   0.853
 1074SOL     OW 4679   0.539   3.788   0.512
 1074SOL    HW1 4680   0.458   3.789   0.570
 1074SOL    HW2 4681   0.542   3.871   0.457
 1075SOL     OW 4682   1.434   4.912   0.041
 1075SOL    HW1 4683   1.466   4.836   0.098
 1075SOL    HW2 4684   1.342   4.939   0.071
 1076SOL     OW 4685   0.297   3.759   0.171
 1076SOL    HW1 4686   0.346   3.843   0.150
 1076SOL    HW2 4687   0.359   3.694   0.216
 1077SOL     OW 4688   0.935   3.960   0.480
 1077SOL    HW1 4689   0.887   4.001   0.402
 1077SOL    HW2 4690   1.034   3.958   0.461
 1078SOL     OW 4691   1.076   4.407   1.464
 1078SOL    HW1 4692   0.996   4.346   1.467
 1078SOL    HW2 4693   1.157   4.354   1.440
 1079SOL     OW 4694   1.227   5.294   0.793
 1079SOL    HW1 4695   1.248   5.368   0.728
 1079SOL    HW2 4696   1.295   5.294   0.866
 1080SOL     OW 4697   1.032   4.273   0.016
 1080SOL    HW1 4698   0.991   4.355  -0.023
 1080SOL    HW2 4699   1.096   4.299   0.089
 1081SOL     OW 4700   0.078   4.280   1.386
 1081SOL    HW1 4701   0.170   4.279   1.345
 1081SOL    HW2 4702   0.072   4.354   1.453
 1082SOL     OW 4703   0.561   3.946   1.147
 1082SOL    HW1 4704   0.599   3.862   1.184
 1082SOL    HW2 4705   0.473   3.965   1.191
 1083SOL     OW 4706   1.017   3.763   0.753
 1083SOL    HW1 4707   0.945   3.768   0.684
 1083SOL    HW2 4708   0.993   3.694   0.822
 1084SOL     OW 4709   1.429   4.897   0.867
 1084SOL    HW1 4710   1.374   4.813   0.860
 1084SOL    HW2 4711   1.455   4.926   0.775
 1085SOL     OW 4712   1.466   4.314   0.992
 1085SOL    HW1 4713   1.436   4.219   0.999
 1085SOL    HW2 4714   1.539   4.330   1.058
 1086SOL     OW 4715   1.857   4.557   0.377
 1086SOL    HW1 4716   1.899   4.493   0.441
 1086SOL    HW2 4717   1.819   4.506   0.299
 1087SOL     OW 4718   1.664   5.004   0.657
 1087SOL    HW1 4719   1.763   5.012   0.671
 1087SOL    HW2 4720   1.619   5.088   0.688
 1088SOL     OW 4721   1.390   4.299   0.078
 1088SOL    HW1 4722   1.336   4.278   0.159
 1088SOL    HW2 4723   1.481   4.258   0.087
 1089SOL     OW 4724   1.754   4.947   1.588
 1089SOL    HW1 4725   1.845   4.908   1.575
 1089SOL    HW2 4726   1.762   5.043   1.612
 1090SOL     OW 4727   0.915   3.813   1.402
 1090SOL    HW1 4728   0.940   3.793   1.307
 1090SOL    HW2 4729   0.987   3.869   1.444
 1091SOL     OW 4730   0.980   4.840   1.719
 1091SOL    HW1 4731   0.881   4.846   1.729
 1091SOL    HW2 4732   1.003   4.760   1.663
 1092SOL     OW 4733   0.410   4.537   1.251
 1092SOL    HW1 4734   0.496   4.549   1.301
 1092SOL    HW2 4735   0.368   4.450   1.278
 1093SOL     OW 4736   1.274   4.110   1.262
 1093SOL    HW1 4737   1.295   4.184   1.326
 1093SOL    HW2 4738   1.185   4.127   1.219
 1094SOL     OW 4739   0.367   4.824   0.501
 1094SOL    HW1 4740   0.360   4.907   0.445
 1094SOL    HW2 4741   0.371   4.744   0.441
 1095SOL     OW 4742   0.566   4.261   0.865
 1095SOL    HW1 4743   0.578   4.327   0.791
 1095SOL    HW2 4744   0.612   4.295   0.948
 1096SOL     OW 4745   1.582   4.363   0.472
 1096SOL    HW1 4746   1.551   4.424   0.545
 1096SOL    HW2 4747   1.632   4.415   0.403
 1097SOL     OW 4748   0.402   4.475   1.598
 1097SOL    HW1 4749   0.470   4.530   1.551
 1097SOL    HW2 4750   0.442   4.387   1.625
 1098SOL     OW 4751   1.013   3.829   1.770
 1098SOL    HW1 4752   1.019   3.914   1.718
 1098SOL    HW2 4753   1.045   3.753   1.713
 1099SOL     OW 4754   0.504   3.774   1.740
 1099SOL    HW1 4755   0.462   3.717   1.670
 1099SOL    HW2 4756   0.438   3.843   1.772
 1100SOL     OW 4757   0.573   4.594   1.029
 1100SOL    HW1 4758   0.617   4.683   1.020
 1100SOL    HW2 4759   0.510   4.594   1.106
 1101SOL     OW 4760   1.360   4.586   1.045
 1101SOL    HW1 4761   1.285   4.586   0.979
 1101SOL    HW2 4762   1.397   4.494   1.054
 1102SOL     OW 4763   1.209   4.249   0.275
 1102SOL    HW1 4764   1.222   4.165   0.329
 1102SOL    HW2 4765   1.180   4.323   0.335
 1103SOL     OW 4766   0.307   3.937   1.231
 1103SOL    HW1 4767   0.284   3.974   1.321
 1103SOL    HW2 4768   0.277   3.842   1.225
 1104SOL     OW 4769   0.732   4.358   1.064
 1104SOL    HW1 4770   0.791   4.332   0.988
 1104SOL    HW2 4771   0.704   4.454   1.053
 1105SOL     OW 4772   1.728   4.659   1.854
 1105SOL    HW1 4773   1.682   4.652   1.765
 1105SOL    HW2 4774   1.666   4.703   1.920
 1106SOL     OW 4775   0.307   3.787   0.618
 1106SOL    HW1 4776   0.296   3.881   0.651
 1106SOL    HW2 4777   0.302   3.724   0.695
 1107SOL     OW 4778   1.023   4.490   0.966
 1107SOL    HW1 4779   1.038   4.511   1.062
 1107SOL    HW2 4780   0.993   4.395   0.957
 1108SOL     OW 4781   1.859   5.242   1.605
 1108SOL    HW1 4782   1.873   5.269   1.510
 1108SOL    HW2 4783   1.942   5.264   1.658
 1109SOL     OW 4784   0.350   4.622   1.804
 1109SOL    HW1 4785   0.426   4.666   1.852
 1109SOL    HW2 4786   0.385   4.575   1.722
 1110SOL     OW 4787   1.303   4.562   0.042
 1110SOL    HW1 4788   1.337   4.469   0.057
 1110SOL    HW2 4789   1.321   4.589  -0.053
 1111SOL     OW 4790   0.319   4.534   0.949
 1111SOL    HW1 4791   0.412   4.570   0.954
 1111SOL    HW2 4792   0.313   4.449   1.001
 1112SOL     OW 4793   0.339   4.233   1.006
 1112SOL    HW1 4794   0.287   4.150   0.989
 1112SOL    HW2 4795   0.416   4.238   0.942
 1113SOL     OW 4796   1.138   4.104   1.678
 1113SOL    HW1 4797   1.093   4.167   1.742
 1113SOL    HW2 4798   1.231   4.135   1.661
 1114SOL     OW 4799   1.160   3.931   1.477
 1114SOL    HW1 4800   1.160   3.995   1.554
 1114SOL    HW2 4801   1.188   3.979   1.394
 1115SOL     OW 4802   0.008   5.050   0.200
 1115SOL    HW1 4803  -0.085   5.071   0.169
 1115SOL    HW2 4804   0.018   4.951   0.213
 1116SOL     OW 4805   1.002   4.520   1.238
 1116SOL    HW1 4806   1.043   4.488   1.324
 1116SOL    HW2 4807   0.906   4.493   1.235
 1117SOL     OW 4808   0.040   4.268   1.114
 1117SOL    HW1 4809   0.125   4.235   1.073
 1117SOL    HW2 4810   0.053   4.283   1.212
 1118SOL     OW 4811   0.189   4.244   1.722
 1118SOL    HW1 4812   0.248   4.204   1.652
 1118SOL    HW2 4813   0.131   4.315   1.681
 1119SOL     OW 4814   0.671   4.188   1.269
 1119SOL    HW1 4815   0.637   4.099   1.239
 1119SOL    HW2 4816   0.697   4.242   1.189
 1120SOL     OW 4817   0.159   4.861   1.466
 1120SOL    HW1 4818   0.181   4.800   1.542
 1120SOL    HW2 4819   0.169   4.812   1.380
 1121SOL     OW 4820   1.302   4.579   0.309
 1121SOL    HW1 4821   1.216   4.548   0.351
 1121SOL    HW2 4822   1.298   4.565   0.210
 1122SOL     OW 4823   0.903   3.810   0.133
 1122SOL    HW1 4824   0.954   3.811   0.047
 1122SOL    HW2 4825   0.959   3.768   0.204
 1123SOL     OW 4826   1.280   4.651   0.672
 1123SOL    HW1 4827   1.340   4.570   0.674
 1123SOL    HW2 4828   1.320   4.720   0.612
 1124SOL     OW 4829   0.830   4.997   1.422
 1124SOL    HW1 4830   0.825   5.030   1.517
 1124SOL    HW2 4831   0.744   5.016   1.376
 1125SOL     OW 4832   1.841   3.899   0.963
 1125SOL    HW1 4833   1.880   3.814   0.927
 1125SOL    HW2 4834   1.743   3.901   0.944
 1126SOL     OW 4835   0.263   4.050   0.720
 1126SOL    HW1 4836   0.184   4.101   0.686
 1126SOL    HW2 4837   0.254   4.035   0.818
 1127SOL     OW 4838   0.822   4.726   1.372
 1127SOL    HW1 4839   0.862   4.725   1.280
 1127SOL    HW2 4840   0.832   4.818   1.412
 1128SOL     OW 4841   1.039   4.822   0.696
 1128SOL    HW1 4842   0.969   4.775   0.750
 1128SOL    HW2 4843   1.098   4.754   0.653
 1129SOL     OW 4844   1.014   3.960   0.971
 1129SOL    HW1 4845   1.006   3.924   0.878
 1129SOL    HW2 4846   1.012   3.884   1.036
 1130SOL     OW 4847   0.105   4.737   1.726
 1130SOL    HW1 4848   0.028   4.704   1.780
 1130SOL    HW2 4849   0.190   4.707   1.768
 1131SOL     OW 4850   0.672   3.927   1.489
 1131SOL    HW1 4851   0.762   3.911   1.449
 1131SOL    HW2 4852   0.680   3.932   1.588
 1132SOL     OW 4853   0.075   4.069   0.033
 1132SOL    HW1 4854  -0.017   4.041   0.004
 1132SOL    HW2 4855   0.106   4.146  -0.023
 1133SOL     OW 4856   0.072   3.890   0.318
 1133SOL    HW1 4857   0.055   3.973   0.264
 1133SOL    HW2 4858   0.162   3.853   0.296
 1134SOL     OW 4859   0.613   4.566   1.431
 1134SOL    HW1 4860   0.669   4.647   1.414
 1134SOL    HW2 4861   0.672   4.486   1.434
 1135SOL     OW 4862   0.716   4.289   1.708
 1135SOL    HW1 4863   0.735   4.354   1.782
 1135SOL    HW2 4864   0.776   4.209   1.717
 1136SOL     OW 4865   1.225   4.049   0.449
 1136SOL    HW1 4866   1.290   3.975   0.438
 1136SOL    HW2 4867   1.245   4.099   0.533
 1137SOL     OW 4868   0.594   4.469   0.652
 1137SOL    HW1 4869   0.644   4.554   0.633
 1137SOL    HW2 4870   0.506   4.471   0.604
 1138SOL     OW 4871   1.777   4.066   1.642
 1138SOL    HW1 4872   1.760   4.097   1.548
 1138SOL    HW2 4873   1.693   4.029   1.680
 1139SOL     OW 4874   0.859   4.680   0.861
 1139SOL    HW1 4875   0.913   4.611   0.909
 1139SOL    HW2 4876   0.827   4.749   0.927
 1140SOL     OW 4877   1.083   4.708   0.087
 1140SOL    HW1 4878   1.060   4.761   0.005
 1140SOL    HW2 4879   1.164   4.652   0.068
 1141SOL     OW 4880   1.824   3.916   1.227
 1141SOL    HW1 4881   1.820   3.826   1.271
 1141SOL    HW2 4882   1.827   3.905   1.128
 1142SOL     OW 4883   0.317   4.271   1.280
 1142SOL    HW1 4884   0.355   4.212   1.352
 1142SOL    HW2 4885   0.357   4.245   1.192
 1143SOL     OW 4886   1.424   3.938   1.112
 1143SOL    HW1 4887   1.476   3.873   1.167
 1143SOL    HW2 4888   1.375   4.001   1.173
 1144SOL     OW 4889   1.001   3.758   1.154
 1144SOL    HW1 4890   0.938   3.686   1.123
 1144SOL    HW2 4891   1.094   3.722   1.154
 1145SOL     OW 4892   0.770   5.054   0.301
 1145SOL    HW1 4893   0.724   4.967   0.318
 1145SOL    HW2 4894   0.861   5.051   0.342
 1146SOL     OW 4895   1.300   4.177   0.691
 1146SOL    HW1 4896   1.241   4.257   0.695
 1146SOL    HW2 4897   1.315   4.142   0.784
 1147SOL     OW 4898   1.593   3.945   0.882
 1147SOL    HW1 4899   1.509   3.944   0.936
 1147SOL    HW2 4900   1.595   4.028   0.826
 1148SOL     OW 4901   0.230   4.352   1.975
 1148SOL    HW1 4902   0.137   4.350   2.012
 1148SOL    HW2 4903   0.231   4.313   1.883
 1149SOL     OW 4904   0.225   3.999   2.858
 1149SOL    HW1 4905   0.260   3.982   2.950
 1149SOL    HW2 4906   0.137   3.954   2.846
 1150SOL     OW 4907   0.019   4.092   2.509
 1150SOL    HW1 4908  -0.063   4.135   2.548
 1150SOL    HW2 4909  -0.009   4.019   2.446
 1151SOL     OW 4910   0.569   4.999   3.027
 1151SOL    HW1 4911   0.476   4.992   2.990
 1151SOL    HW2 4912   0.580   5.088   3.071
 1152SOL     OW 4913   1.555   5.235   2.565
 1152SOL    HW1 4914   1.498   5.219   2.646
 1152SOL    HW2 4915   1.496   5.245   2.485
 1153SOL     OW 4916   1.135   4.427   2.579
 1153SOL    HW1 4917   1.192   4.505   2.554
 1153SOL    HW2 4918   1.075   4.453   2.655
 1154SOL     OW 4919   1.755   4.331   2.093
 1154SOL    HW1 4920   1.743   4.318   1.994
 1154SOL    HW2 4921   1.725   4.250   2.142
 1155SOL     OW 4922   0.768   4.868   2.885
 1155SOL    HW1 4923   0.690   4.885   2.945
 1155SOL    HW2 4924   0.802   4.955   2.849
 1156SOL     OW 4925   0.685   4.736   2.527
 1156SOL    HW1 4926   0.754   4.720   2.597
 1156SOL    HW2 4927   0.612   4.793   2.565
 1157SOL     OW 4928   0.686   4.885   3.665
 1157SOL    HW1 4929   0.746   4.964   3.679
 1157SOL    HW2 4930   0.600   4.916   3.624
 1158SOL     OW 4931   0.335   5.159   2.923
 1158SOL    HW1 4932   0.257   5.128   2.870
 1158SOL    HW2 4933   0.393   5.217   2.866
 1159SOL     OW 4934   0.438   4.116   3.361
 1159SOL    HW1 4935   0.520   4.060   3.370
 1159SOL    HW2 4936   0.357   4.058   3.365
 1160SOL     OW 4937   1.603   4.171   2.599
 1160SOL    HW1 4938   1.529   4.217   2.549
 1160SOL    HW2 4939   1.654   4.239   2.652
 1161SOL     OW 4940   0.240   4.815   2.748
 1161SOL    HW1 4941   0.254   4.731   2.800
 1161SOL    HW2 4942   0.185   4.879   2.803
 1162SOL     OW 4943   0.606   4.688   1.985
 1162SOL    HW1 4944   0.613   4.772   1.931
 1162SOL    HW2 4945   0.652   4.701   2.073
 1163SOL     OW 4946   0.122   4.367   2.425
 1163SOL    HW1 4947   0.077   4.279   2.442
 1163SOL    HW2 4948   0.121   4.421   2.509
 1164SOL     OW 4949   1.689   4.646   2.474
 1164SOL    HW1 4950   1.784   4.617   2.482
 1164SOL    HW2 4951   1.681   4.711   2.399
 1165SOL     OW 4952   1.641   4.832   2.294
 1165SOL    HW1 4953   1.727   4.834   2.242
 1165SOL    HW2 4954   1.655   4.879   2.382
 1166SOL     OW 4955   0.113   4.461   3.459
 1166SOL    HW1 4956   0.201   4.448   3.504
 1166SOL    HW2 4957   0.100   4.558   3.437
 1167SOL     OW 4958   1.293   4.952   3.285
 1167SOL    HW1 4959   1.330   4.879   3.227
 1167SOL    HW2 4960   1.345   4.957   3.370
 1168SOL     OW 4961   0.809   3.728   2.364
 1168SOL    HW1 4962   0.849   3.819   2.355
 1168SOL    HW2 4963   0.709   3.736   2.370
 1169SOL     OW 4964   1.525   4.723   2.052
 1169SOL    HW1 4965   1.462   4.647   2.065
 1169SOL    HW2 4966   1.573   4.741   2.138
 1170SOL     OW 4967   0.317   3.975   3.663
 1170SOL    HW1 4968   0.388   4.046   3.669
 1170SOL    HW2 4969   0.229   4.014   3.691
 1171SOL     OW 4970   1.466   5.141   2.815
 1171SOL    HW1 4971   1.407   5.147   2.895
 1171SOL    HW2 4972   1.451   5.053   2.769
 1172SOL     OW 4973   0.598   4.453   2.132
 1172SOL    HW1 4974   0.622   4.522   2.064
 1172SOL    HW2 4975   0.520   4.486   2.186
 1173SOL     OW 4976   1.281   4.069   2.806
 1173SOL    HW1 4977   1.195   4.019   2.793
 1173SOL    HW2 4978   1.343   4.015   2.862
 1174SOL     OW 4979   0.807   4.329   3.327
 1174SOL    HW1 4980   0.760   4.326   3.416
 1174SOL    HW2 4981   0.756   4.274   3.261
 1175SOL     OW 4982   1.394   4.193   3.536
 1175SOL    HW1 4983   1.374   4.236   3.624
 1175SOL    HW2 4984   1.472   4.131   3.545
 1176SOL     OW 4985   1.041   4.425   2.291
 1176SOL    HW1 4986   1.067   4.421   2.387
 1176SOL    HW2 4987   0.956   4.374   2.277
 1177SOL     OW 4988   0.076   4.535   2.651
 1177SOL    HW1 4989   0.175   4.523   2.660
 1177SOL    HW2 4990   0.052   4.630   2.672
 1178SOL     OW 4991   0.865   4.072   2.057
 1178SOL    HW1 4992   0.924   4.135   2.008
 1178SOL    HW2 4993   0.884   3.978   2.028
 1179SOL     OW 4994   1.362   4.868   2.407
 1179SOL    HW1 4995   1.445   4.839   2.359
 1179SOL    HW2 4996   1.313   4.935   2.351
 1180SOL     OW 4997   0.550   3.920   2.747
 1180SOL    HW1 4998   0.545   3.915   2.847
 1180SOL    HW2 4999   0.552   4.016   2.718
 1181SOL     OW 5000   1.795   4.790   2.735
 1181SOL    HW1 5001   1.733   4.775   2.659
 1181SOL    HW2 5002   1.743   4.801   2.820
 1182SOL     OW 5003   0.321   4.667   2.104
 1182SOL    HW1 5004   0.403   4.706   2.062
 1182SOL    HW2 5005   0.294   4.585   2.055
 1183SOL     OW 5006   1.458   4.459   2.590
 1183SOL    HW1 5007   1.453   4.394   2.665
 1183SOL    HW2 5008   1.538   4.518   2.603
 1184SOL     OW 5009   0.202   4.009   3.360
 1184SOL    HW1 5010   0.122   4.069   3.347
 1184SOL    HW2 5011   0.192   3.960   3.446
 1185SOL     OW 5012   1.632   5.101   1.943
 1185SOL    HW1 5013   1.600   5.195   1.933
 1185SOL    HW2 5014   1.556   5.038   1.931
 1186SOL     OW 5015   1.400   3.831   2.288
 1186SOL    HW1 5016   1.376   3.794   2.198
 1186SOL    HW2 5017   1.499   3.847   2.292
 1187SOL     OW 5018   0.382   4.424   2.342
 1187SOL    HW1 5019   0.427   4.334   2.339
 1187SOL    HW2 5020   0.288   4.413   2.375
 1188SOL     OW 5021   0.614   3.846   1.979
 1188SOL    HW1 5022   0.712   3.824   1.986
 1188SOL    HW2 5023   0.583   3.829   1.886
 1189SOL     OW 5024   0.781   3.988   3.611
 1189SOL    HW1 5025   0.848   3.927   3.654
 1189SOL    HW2 5026   0.708   4.007   3.676
 1190SOL     OW 5027   0.803   5.126   2.786
 1190SOL    HW1 5028   0.893   5.140   2.744
 1190SOL    HW2 5029   0.732   5.128   2.715
 1191SOL     OW 5030   0.539   3.788   2.374
 1191SOL    HW1 5031   0.458   3.789   2.432
 1191SOL    HW2 5032   0.542   3.871   2.319
 1192SOL     OW 5033   1.434   4.912   1.903
 1192SOL    HW1 5034   1.466   4.836   1.960
 1192SOL    HW2 5035   1.342   4.939   1.933
 1193SOL     OW 5036   0.297   3.759   2.033
 1193SOL    HW1 5037   0.346   3.843   2.012
 1193SOL    HW2 5038   0.359   3.694   2.078
 1194SOL     OW 5039   0.935   3.960   2.342
 1194SOL    HW1 5040   0.887   4.001   2.264
 1194SOL    HW2 5041   1.034   3.958   2.323
 1195SOL     OW 5042   1.076   4.407   3.326
 1195SOL    HW1 5043   0.996   4.346   3.329
 1195SOL    HW2 5044   1.157   4.354   3.302
 1196SOL     OW 5045   1.227   5.294   2.655
 1196SOL    HW1 5046   1.248   5.368   2.590
 1196SOL    HW2 5047   1.295   5.294   2.728
 1197SOL     OW 5048   0.459   4.876   2.603
 1197SOL    HW1 5049   0.388   4.849   2.668
 1197SOL    HW2 5050   0.433   4.848   2.510
 1198SOL     OW 5051   1.032   4.273   1.878
 1198SOL    HW1 5052   0.991   4.355   1.839
 1198SOL    HW2 5053   1.096   4.299   1.951
 1199SOL     OW 5054   0.078   4.280   3.248
 1199SOL    HW1 5055   0.170   4.279   3.207
 1199SOL    HW2 5056   0.072   4.354   3.315
 1200SOL     OW 5057   0.561   3.946   3.009
 1200SOL    HW1 5058   0.599   3.862   3.046
 1200SOL    HW2 5059   0.473   3.965   3.053
 1201SOL     OW 5060   0.866   4.178   2.504
 1201SOL    HW1 5061   0.834   4.250   2.442
 1201SOL    HW2 5062   0.890   4.097   2.451
 1202SOL     OW 5063   1.017   3.763   2.615
 1202SOL    HW1 5064   0.945   3.768   2.546
 1202SOL    HW2 5065   0.993   3.694   2.684
 1203SOL     OW 5066   1.857   4.557   2.239
 1203SOL    HW1 5067   1.899   4.493   2.303
 1203SOL    HW2 5068   1.819   4.506   2.161
 1204SOL     OW 5069   1.664   5.004   2.519
 1204SOL    HW1 5070   1.763   5.012   2.533
 1204SOL    HW2 5071   1.619   5.088   2.550
 1205SOL     OW 5072   1.390   4.299   1.940
 1205SOL    HW1 5073   1.336   4.278   2.021
 1205SOL    HW2 5074   1.481   4.258   1.949
 1206SOL     OW 5075   0.527   3.980   2.190
 1206SOL    HW1 5076   0.554   3.921   2.115
 1206SOL    HW2 5077   0.527   4.075   2.159
 1207SOL     OW 5078   1.754   4.947   3.450
 1207SOL    HW1 5079   1.845   4.908   3.437
 1207SOL    HW2 5080   1.762   5.043   3.474
 1208SOL     OW 5081   1.638   4.823   2.941
 1208SOL    HW1 5082   1.643   4.904   3.000
 1208SOL    HW2 5083   1.552   4.825   2.890
 1209SOL     OW 5084   0.705   4.774   2.230
 1209SOL    HW1 5085   0.691   4.781   2.329
 1209SOL    HW2 5086   0.789   4.723   2.212
 1210SOL     OW 5087   0.410   4.537   3.113
 1210SOL    HW1 5088   0.496   4.549   3.163
 1210SOL    HW2 5089   0.368   4.450   3.140
 1211SOL     OW 5090   0.367   4.824   2.363
 1211SOL    HW1 5091   0.360   4.907   2.307
 1211SOL    HW2 5092   0.371   4.744   2.303
 1212SOL     OW 5093   0.566   4.261   2.727
 1212SOL    HW1 5094   0.578   4.327   2.653
 1212SOL    HW2 5095   0.612   4.295   2.810
 1213SOL     OW 5096   1.582   4.363   2.334
 1213SOL    HW1 5097   1.551   4.424   2.407
 1213SOL    HW2 5098   1.632   4.415   2.265
 1214SOL     OW 5099   0.402   4.475   3.460
 1214SOL    HW1 5100   0.470   4.530   3.413
 1214SOL    HW2 5101   0.442   4.387   3.487
 1215SOL     OW 5102   1.013   3.829   3.632
 1215SOL    HW1 5103   1.019   3.914   3.580
 1215SOL    HW2 5104   1.045   3.753   3.575
 1216SOL     OW 5105   0.504   3.774   3.602
 1216SOL    HW1 5106   0.462   3.717   3.532
 1216SOL    HW2 5107   0.438   3.843   3.634
 1217SOL     OW 5108   0.573   4.594   2.891
 1217SOL    HW1 5109   0.617   4.683   2.882
 1217SOL    HW2 5110   0.510   4.594   2.968
 1218SOL     OW 5111   1.209   4.249   2.137
 1218SOL    HW1 5112   1.222   4.165   2.191
 1218SOL    HW2 5113   1.180   4.323   2.197
 1219SOL     OW 5114   0.307   3.937   3.093
 1219SOL    HW1 5115   0.284   3.974   3.183
 1219SOL    HW2 5116   0.277   3.842   3.087
 1220SOL     OW 5117   0.037   5.034   3.144
 1220SOL    HW1 5118   0.090   4.985   3.212
 1220SOL    HW2 5119   0.059   5.132   3.149
 1221SOL     OW 5120   0.732   4.358   2.926
 1221SOL    HW1 5121   0.791   4.332   2.850
 1221SOL    HW2 5122   0.704   4.454   2.915
 1222SOL     OW 5123   1.728   4.659   3.716
 1222SOL    HW1 5124   1.682   4.652   3.627
 1222SOL    HW2 5125   1.666   4.703   3.782
 1223SOL     OW 5126   0.307   3.787   2.480
 1223SOL    HW1 5127   0.296   3.881   2.513
 1223SOL    HW2 5128   0.302   3.724   2.557
 1224SOL     OW 5129   1.622   4.091   2.236
 1224SOL    HW1 5130   1.624   4.015   2.300
 1224SOL    HW2 5131   1.574   4.168   2.276
 1225SOL     OW 5132   1.023   4.490   2.828
 1225SOL    HW1 5133   1.038   4.511   2.924
 1225SOL    HW2 5134   0.993   4.395   2.819
 1226SOL     OW 5135   1.859   5.242   3.467
 1226SOL    HW1 5136   1.873   5.269   3.372
 1226SOL    HW2 5137   1.942   5.264   3.520
 1227SOL     OW 5138   1.540   3.998   1.987
 1227SOL    HW1 5139   1.479   3.923   2.010
 1227SOL    HW2 5140   1.562   4.050   2.070
 1228SOL     OW 5141   1.303   4.562   1.904
 1228SOL    HW1 5142   1.337   4.469   1.919
 1228SOL    HW2 5143   1.321   4.589   1.809
 1229SOL     OW 5144   0.319   4.534   2.811
 1229SOL    HW1 5145   0.412   4.570   2.816
 1229SOL    HW2 5146   0.313   4.449   2.863
 1230SOL     OW 5147   0.339   4.233   2.868
 1230SOL    HW1 5148   0.287   4.150   2.851
 1230SOL    HW2 5149   0.416   4.238   2.804
 1231SOL     OW 5150   1.138   4.104   3.540
 1231SOL    HW1 5151   1.093   4.167   3.604
 1231SOL    HW2 5152   1.231   4.135   3.523
 1232SOL     OW 5153   0.008   5.050   2.062
 1232SOL    HW1 5154  -0.085   5.071   2.031
 1232SOL    HW2 5155   0.018   4.951   2.075
 1233SOL     OW 5156   1.002   4.520   3.100
 1233SOL    HW1 5157   1.043   4.488   3.186
 1233SOL    HW2 5158   0.906   4.493   3.097
 1234SOL     OW 5159   0.040   4.268   2.976
 1234SOL    HW1 5160   0.125   4.235   2.935
 1234SOL    HW2 5161   0.053   4.283   3.074
 1235SOL     OW 5162   0.189   4.244   3.584
 1235SOL    HW1 5163   0.248   4.204   3.514
 1235SOL    HW2 5164   0.131   4.315   3.543
 1236SOL     OW 5165   0.815   4.296   2.187
 1236SOL    HW1 5166   0.822   4.207   2.141
 1236SOL    HW2 5167   0.721   4.330   2.179
 1237SOL     OW 5168   0.671   4.188   3.131
 1237SOL    HW1 5169   0.637   4.099   3.101
 1237SOL    HW2 5170   0.697   4.242   3.051
 1238SOL     OW 5171   0.473   4.224   2.053
 1238SOL    HW1 5172   0.534   4.304   2.057
 1238SOL    HW2 5173   0.378   4.255   2.060
 1239SOL     OW 5174   1.302   4.579   2.171
 1239SOL    HW1 5175   1.216   4.548   2.213
 1239SOL    HW2 5176   1.298   4.565   2.072
 1240SOL     OW 5177   0.083   4.982   2.884
 1240SOL    HW1 5178   0.078   4.981   2.984
 1240SOL    HW2 5179   0.000   4.941   2.846
 1241SOL     OW 5180   1.726   3.859   2.385
 1241SOL    HW1 5181   1.799   3.842   2.318
 1241SOL    HW2 5182   1.695   3.772   2.423
 1242SOL     OW 5183   1.841   3.899   2.825
 1242SOL    HW1 5184   1.880   3.814   2.789
 1242SOL    HW2 5185   1.743   3.901   2.806
 1243SOL     OW 5186   0.263   4.050   2.582
 1243SOL    HW1 5187   0.184   4.101   2.548
 1243SOL    HW2 5188   0.254   4.035   2.680
 1244SOL     OW 5189   1.194   5.336   1.893
 1244SOL    HW1 5190   1.200   5.243   1.930
 1244SOL    HW2 5191   1.135   5.336   1.813
 1245SOL     OW 5192   0.822   4.726   3.234
 1245SOL    HW1 5193   0.862   4.725   3.142
 1245SOL    HW2 5194   0.832   4.818   3.274
 1246SOL     OW 5195   0.916   4.634   2.153
 1246SOL    HW1 5196   0.979   4.672   2.085
 1246SOL    HW2 5197   0.956   4.551   2.192
 1247SOL     OW 5198   1.614   5.016   3.151
 1247SOL    HW1 5199   1.674   5.019   3.231
 1247SOL    HW2 5200   1.539   5.080   3.164
 1248SOL     OW 5201   1.039   4.822   2.558
 1248SOL    HW1 5202   0.969   4.775   2.612
 1248SOL    HW2 5203   1.098   4.754   2.515
 1249SOL     OW 5204   0.105   4.737   3.588
 1249SOL    HW1 5205   0.028   4.704   3.642
 1249SOL    HW2 5206   0.190   4.707   3.630
 1250SOL     OW 5207   0.672   3.927   3.351
 1250SOL    HW1 5208   0.762   3.911   3.311
 1250SOL    HW2 5209   0.680   3.932   3.450
 1251SOL     OW 5210   0.075   4.069   1.895
 1251SOL    HW1 5211  -0.017   4.041   1.866
 1251SOL    HW2 5212   0.106   4.146   1.839
 1252SOL     OW 5213   0.072   3.890   2.180
 1252SOL    HW1 5214   0.055   3.973   2.126
 1252SOL    HW2 5215   0.162   3.853   2.158
 1253SOL     OW 5216   0.613   4.566   3.293
 1253SOL    HW1 5217   0.669   4.647   3.276
 1253SOL    HW2 5218   0.672   4.486   3.296
 1254SOL     OW 5219   0.716   4.289   3.570
 1254SOL    HW1 5220   0.735   4.354   3.644
 1254SOL    HW2 5221   0.776   4.209   3.579
 1255SOL     OW 5222   1.450   4.944   3.495
 1255SOL    HW1 5223   1.441   4.934   3.594
 1255SOL    HW2 5224   1.546   4.937   3.469
 1256SOL     OW 5225   1.225   4.049   2.311
 1256SOL    HW1 5226   1.290   3.975   2.300
 1256SOL    HW2 5227   1.245   4.099   2.395
 1257SOL     OW 5228   0.594   4.469   2.514
 1257SOL    HW1 5229   0.644   4.554   2.495
 1257SOL    HW2 5230   0.506   4.471   2.466
 1258SOL     OW 5231   0.859   4.680   2.723
 1258SOL    HW1 5232   0.913   4.611   2.771
 1258SOL    HW2 5233   0.827   4.749   2.789
 1259SOL     OW 5234   1.083   4.708   1.949
 1259SOL    HW1 5235   1.060   4.761   1.867
 1259SOL    HW2 5236   1.164   4.652   1.930
 1260SOL     OW 5237   0.079   4.964   2.515
 1260SOL    HW1 5238   0.078   4.917   2.603
 1260SOL    HW2 5239   0.161   4.936   2.464
 1261SOL     OW 5240   1.824   3.916   3.089
 1261SOL    HW1 5241   1.820   3.826   3.133
 1261SOL    HW2 5242   1.827   3.905   2.990
 1262SOL     OW 5243   0.428   4.148   2.382
 1262SOL    HW1 5244   0.458   4.076   2.320
 1262SOL    HW2 5245   0.389   4.108   2.465
 1263SOL     OW 5246   0.317   4.271   3.142
 1263SOL    HW1 5247   0.355   4.212   3.214
 1263SOL    HW2 5248   0.357   4.245   3.054
 1264SOL     OW 5249   1.424   3.938   2.974
 1264SOL    HW1 5250   1.476   3.873   3.029
 1264SOL    HW2 5251   1.375   4.001   3.035
 1265SOL     OW 5252   0.770   5.054   2.163
 1265SOL    HW1 5253   0.724   4.967   2.180
 1265SOL    HW2 5254   0.861   5.051   2.204
 1266SOL     OW 5255   1.352   3.776   2.030
 1266SOL    HW1 5256   1.387   3.735   1.946
 1266SOL    HW2 5257   1.262   3.738   2.050
 1267SOL     OW 5258   1.300   4.177   2.553
 1267SOL    HW1 5259   1.241   4.257   2.557
 1267SOL    HW2 5260   1.315   4.142   2.646
 1268SOL     OW 5261   1.593   3.945   2.744
 1268SOL    HW1 5262   1.509   3.944   2.798
 1268SOL    HW2 5263   1.595   4.028   2.688
 1269SOL     OW 5264   0.039   4.801   2.162
 1269SOL    HW1 5265   0.138   4.790   2.153
 1269SOL    HW2 5266  -0.001   4.715   2.194
 1270SOL     OW 5267   0.230   4.352   3.837
 1270SOL    HW1 5268   0.137   4.350   3.874
 1270SOL    HW2 5269   0.231   4.313   3.745
 1271SOL     OW 5270   0.225   3.999   4.720
 1271SOL    HW1 5271   0.260   3.982   4.812
 1271SOL    HW2 5272   0.137   3.954   4.708
 1272SOL     OW 5273   0.019   4.092   4.371
 1272SOL    HW1 5274  -0.063   4.135   4.410
 1272SOL    HW2 5275  -0.009   4.019   4.308
 1273SOL     OW 5276   0.569   4.999   4.889
 1273SOL    HW1 5277   0.476   4.992   4.852
 1273SOL    HW2 5278   0.580   5.088   4.933
 1274SOL     OW 5279   1.555   5.235   4.427
 1274SOL    HW1 5280   1.498   5.219   4.508
 1274SOL    HW2 5281   1.496   5.245   4.347
 1275SOL     OW 5282   1.135   4.427   4.441
 1275SOL    HW1 5283   1.192   4.505   4.416
 1275SOL    HW2 5284   1.075   4.453   4.517
 1276SOL     OW 5285   0.768   4.868   4.747
 1276SOL    HW1 5286   0.690   4.885   4.807
 1276SOL    HW2 5287   0.802   4.955   4.711
 1277SOL     OW 5288   0.685   4.736   4.389
 1277SOL    HW1 5289   0.754   4.720   4.459
 1277SOL    HW2 5290   0.612   4.793   4.427
 1278SOL     OW 5291   0.335   5.159   4.785
 1278SOL    HW1 5292   0.257   5.128   4.732
 1278SOL    HW2 5293   0.393   5.217   4.728
 1279SOL     OW 5294   1.603   4.171   4.461
 1279SOL    HW1 5295   1.529   4.217   4.411
 1279SOL    HW2 5296   1.654   4.239   4.514
 1280SOL     OW 5297   0.240   4.815   4.610
 1280SOL    HW1 5298   0.254   4.731   4.662
 1280SOL    HW2 5299   0.185   4.879   4.665
 1281SOL     OW 5300   0.606   4.688   3.847
 1281SOL    HW1 5301   0.613   4.772   3.793
 1281SOL    HW2 5302   0.652   4.701   3.935
 1282SOL     OW 5303   0.122   4.367   4.287
 1282SOL    HW1 5304   0.077   4.279   4.304
 1282SOL    HW2 5305   0.121   4.421   4.371
 1283SOL     OW 5306   1.689   4.646   4.336
 1283SOL    HW1 5307   1.784   4.617   4.344
 1283SOL    HW2 5308   1.681   4.711   4.261
 1284SOL     OW 5309   1.641   4.832   4.156
 1284SOL    HW1 5310   1.727   4.834   4.104
 1284SOL    HW2 5311   1.655   4.879   4.244
 1285SOL     OW 5312   0.809   3.728   4.226
 1285SOL    HW1 5313   0.849   3.819   4.217
 1285SOL    HW2 5314   0.709   3.736   4.232
 1286SOL     OW 5315   0.197   4.700   4.988
 1286SOL    HW1 5316   0.286   4.655   4.974
 1286SOL    HW2 5317   0.124   4.635   4.969
 1287SOL     OW 5318   1.525   4.723   3.914
 1287SOL    HW1 5319   1.462   4.647   3.927
 1287SOL    HW2 5320   1.573   4.741   4.000
 1288SOL     OW 5321   1.466   5.141   4.677
 1288SOL    HW1 5322   1.407   5.147   4.757
 1288SOL    HW2 5323   1.451   5.053   4.631
 1289SOL     OW 5324   0.598   4.453   3.994
 1289SOL    HW1 5325   0.622   4.522   3.926
 1289SOL    HW2 5326   0.520   4.486   4.048
 1290SOL     OW 5327   1.281   4.069   4.668
 1290SOL    HW1 5328   1.195   4.019   4.655
 1290SOL    HW2 5329   1.343   4.015   4.724
 1291SOL     OW 5330   0.991   4.134   4.966
 1291SOL    HW1 5331   0.914   4.168   5.020
 1291SOL    HW2 5332   0.957   4.083   4.887
 1292SOL     OW 5333   1.041   4.425   4.153
 1292SOL    HW1 5334   1.067   4.421   4.249
 1292SOL    HW2 5335   0.956   4.374   4.139
 1293SOL     OW 5336   0.076   4.535   4.513
 1293SOL    HW1 5337   0.175   4.523   4.522
 1293SOL    HW2 5338   0.052   4.630   4.534
 1294SOL     OW 5339   0.865   4.072   3.919
 1294SOL    HW1 5340   0.924   4.135   3.870
 1294SOL    HW2 5341   0.884   3.978   3.890
 1295SOL     OW 5342   1.362   4.868   4.269
 1295SOL    HW1 5343   1.445   4.839   4.221
 1295SOL    HW2 5344   1.313   4.935   4.213
 1296SOL     OW 5345   0.550   3.920   4.609
 1296SOL    HW1 5346   0.545   3.915   4.709
 1296SOL    HW2 5347   0.552   4.016   4.580
 1297SOL     OW 5348   1.795   4.790   4.597
 1297SOL    HW1 5349   1.733   4.775   4.521
 1297SOL    HW2 5350   1.743   4.801   4.682
 1298SOL     OW 5351   0.321   4.667   3.966
 1298SOL    HW1 5352   0.403   4.706   3.924
 1298SOL    HW2 5353   0.294   4.585   3.917
 1299SOL     OW 5354   1.458   4.459   4.452
 1299SOL    HW1 5355   1.453   4.394   4.527
 1299SOL    HW2 5356   1.538   4.518   4.465
 1300SOL     OW 5357   1.632   5.101   3.805
 1300SOL    HW1 5358   1.600   5.195   3.795
 1300SOL    HW2 5359   1.556   5.038   3.793
 1301SOL     OW 5360   1.400   3.831   4.150
 1301SOL    HW1 5361   1.376   3.794   4.060
 1301SOL    HW2 5362   1.499   3.847   4.154
 1302SOL     OW 5363   0.382   4.424   4.204
 1302SOL    HW1 5364   0.427   4.334   4.201
 1302SOL    HW2 5365   0.288   4.413   4.237
 1303SOL     OW 5366   0.614   3.846   3.841
 1303SOL    HW1 5367   0.712   3.824   3.848
 1303SOL    HW2 5368   0.583   3.829   3.748
 1304SOL     OW 5369   0.803   5.126   4.648
 1304SOL    HW1 5370   0.893   5.140   4.606
 1304SOL    HW2 5371   0.732   5.128   4.577
 1305SOL     OW 5372   0.922   4.227   4.623
 1305SOL    HW1 5373   0.897   4.218   4.527
 1305SOL    HW2 5374   0.970   4.145   4.654
 1306SOL     OW 5375   0.539   3.788   4.236
 1306SOL    HW1 5376   0.458   3.789   4.294
 1306SOL    HW2 5377   0.542   3.871   4.181
 1307SOL     OW 5378   1.434   4.912   3.765
 1307SOL    HW1 5379   1.466   4.836   3.822
 1307SOL    HW2 5380   1.342   4.939   3.795
 1308SOL     OW 5381   0.297   3.759   3.895
 1308SOL    HW1 5382   0.346   3.843   3.874
 1308SOL    HW2 5383   0.359   3.694   3.940
 1309SOL     OW 5384   0.935   3.960   4.204
 1309SOL    HW1 5385   0.887   4.001   4.126
 1309SOL    HW2 5386   1.034   3.958   4.185
 1310SOL     OW 5387   1.227   5.294   4.517
 1310SOL    HW1 5388   1.248   5.368   4.452
 1310SOL    HW2 5389   1.295   5.294   4.590
 1311SOL     OW 5390   0.459   4.876   4.465
 1311SOL    HW1 5391   0.388   4.849   4.530
 1311SOL    HW2 5392   0.433   4.848   4.372
 1312SOL     OW 5393   0.561   3.946   4.871
 1312SOL    HW1 5394   0.599   3.862   4.908
 1312SOL    HW2 5395   0.473   3.965   4.915
 1313SOL     OW 5396   0.866   4.178   4.366
 1313SOL    HW1 5397   0.834   4.250   4.304
 1313SOL    HW2 5398   0.890   4.097   4.313
 1314SOL     OW 5399   1.017   3.763   4.477
 1314SOL    HW1 5400   0.945   3.768   4.408
 1314SOL    HW2 5401   0.993   3.694   4.546
 1315SOL     OW 5402   1.429   4.897   4.591
 1315SOL    HW1 5403   1.374   4.813   4.584
 1315SOL    HW2 5404   1.455   4.926   4.499
 1316SOL     OW 5405   1.466   4.314   4.716
 1316SOL    HW1 5406   1.436   4.219   4.723
 1316SOL    HW2 5407   1.539   4.330   4.782
 1317SOL     OW 5408   1.857   4.557   4.101
 1317SOL    HW1 5409   1.899   4.493   4.165
 1317SOL    HW2 5410   1.819   4.506   4.023
 1318SOL     OW 5411   1.664   5.004   4.381
 1318SOL    HW1 5412   1.763   5.012   4.395
 1318SOL    HW2 5413   1.619   5.088   4.412
 1319SOL     OW 5414   0.527   3.980   4.052
 1319SOL    HW1 5415   0.554   3.921   3.977
 1319SOL    HW2 5416   0.527   4.075   4.021
 1320SOL     OW 5417   1.638   4.823   4.803
 1320SOL    HW1 5418   1.643   4.904   4.862
 1320SOL    HW2 5419   1.552   4.825   4.752
 1321SOL     OW 5420   0.705   4.774   4.092
 1321SOL    HW1 5421   0.691   4.781   4.191
 1321SOL    HW2 5422   0.789   4.723   4.074
 1322SOL     OW 5423   1.274   4.110   4.986
 1322SOL    HW1 5424   1.295   4.184   5.050
 1322SOL    HW2 5425   1.185   4.127   4.943
 1323SOL     OW 5426   0.367   4.824   4.225
 1323SOL    HW1 5427   0.360   4.907   4.169
 1323SOL    HW2 5428   0.371   4.744   4.165
 1324SOL     OW 5429   0.566   4.261   4.589
 1324SOL    HW1 5430   0.578   4.327   4.515
 1324SOL    HW2 5431   0.612   4.295   4.672
 1325SOL     OW 5432   1.360   4.586   4.769
 1325SOL    HW1 5433   1.285   4.586   4.703
 1325SOL    HW2 5434   1.397   4.494   4.778
 1326SOL     OW 5435   0.307   3.937   4.955
 1326SOL    HW1 5436   0.284   3.974   5.045
 1326SOL    HW2 5437   0.277   3.842   4.949
 1327SOL     OW 5438   0.307   3.787   4.342
 1327SOL    HW1 5439   0.296   3.881   4.375
 1327SOL    HW2 5440   0.302   3.724   4.419
 1328SOL     OW 5441   1.023   4.490   4.690
 1328SOL    HW1 5442   1.038   4.511   4.786
 1328SOL    HW2 5443   0.993   4.395   4.681
 1329SOL     OW 5444   0.319   4.534   4.673
 1329SOL    HW1 5445   0.412   4.570   4.678
 1329SOL    HW2 5446   0.313   4.449   4.725
 1330SOL     OW 5447   0.339   4.233   4.730
 1330SOL    HW1 5448   0.287   4.150   4.713
 1330SOL    HW2 5449   0.416   4.238   4.666
 1331SOL     OW 5450   1.160   3.931   5.201
 1331SOL    HW1 5451   1.160   3.995   5.278
 1331SOL    HW2 5452   1.188   3.979   5.118
 1332SOL     OW 5453   0.008   5.050   3.924
 1332SOL    HW1 5454  -0.085   5.071   3.893
 1332SOL    HW2 5455   0.018   4.951   3.937
 1333SOL     OW 5456   1.002   4.520   4.962
 1333SOL    HW1 5457   1.043   4.488   5.048
 1333SOL    HW2 5458   0.906   4.493   4.959
 1334SOL     OW 5459   0.815   4.296   4.049
 1334SOL    HW1 5460   0.822   4.207   4.003
 1334SOL    HW2 5461   0.721   4.330   4.041
 1335SOL     OW 5462   1.657   4.328   4.930
 1335SOL    HW1 5463   1.619   4.259   4.992
 1335SOL    HW2 5464   1.739   4.292   4.886
 1336SOL     OW 5465   0.671   4.188   4.993
 1336SOL    HW1 5466   0.637   4.099   4.963
 1336SOL    HW2 5467   0.697   4.242   4.913
 1337SOL     OW 5468   0.473   4.224   3.915
 1337SOL    HW1 5469   0.534   4.304   3.919
 1337SOL    HW2 5470   0.378   4.255   3.922
 1338SOL     OW 5471   1.347   4.783   4.958
 1338SOL    HW1 5472   1.371   4.720   4.884
 1338SOL    HW2 5473   1.257   4.823   4.940
 1339SOL     OW 5474   0.083   4.982   4.746
 1339SOL    HW1 5475   0.078   4.981   4.846
 1339SOL    HW2 5476   0.000   4.941   4.708
 1340SOL     OW 5477   1.726   3.859   4.247
 1340SOL    HW1 5478   1.799   3.842   4.180
 1340SOL    HW2 5479   1.695   3.772   4.285
 1341SOL     OW 5480   1.280   4.651   4.396
 1341SOL    HW1 5481   1.340   4.570   4.398
 1341SOL    HW2 5482   1.320   4.720   4.336
 1342SOL     OW 5483   0.830   4.997   5.146
 1342SOL    HW1 5484   0.825   5.030   5.241
 1342SOL    HW2 5485   0.744   5.016   5.100
 1343SOL     OW 5486   1.841   3.899   4.687
 1343SOL    HW1 5487   1.880   3.814   4.651
 1343SOL    HW2 5488   1.743   3.901   4.668
 1344SOL     OW 5489   0.263   4.050   4.444
 1344SOL    HW1 5490   0.184   4.101   4.410
 1344SOL    HW2 5491   0.254   4.035   4.542
 1345SOL     OW 5492   0.822   4.726   5.096
 1345SOL    HW1 5493   0.862   4.725   5.004
 1345SOL    HW2 5494   0.832   4.818   5.136
 1346SOL     OW 5495   1.039   4.822   4.420
 1346SOL    HW1 5496   0.969   4.775   4.474
 1346SOL    HW2 5497   1.098   4.754   4.377
 1347SOL     OW 5498   1.014   3.960   4.695
 1347SOL    HW1 5499   1.006   3.924   4.602
 1347SOL    HW2 5500   1.012   3.884   4.760
 1348SOL     OW 5501   0.075   4.069   3.757
 1348SOL    HW1 5502  -0.017   4.041   3.728
 1348SOL    HW2 5503   0.106   4.146   3.701
 1349SOL     OW 5504   0.072   3.890   4.042
 1349SOL    HW1 5505   0.055   3.973   3.988
 1349SOL    HW2 5506   0.162   3.853   4.020
 1350SOL     OW 5507   1.450   4.944   5.357
 1350SOL    HW1 5508   1.441   4.934   5.456
 1350SOL    HW2 5509   1.546   4.937   5.331
 1351SOL     OW 5510   1.674   4.607   4.978
 1351SOL    HW1 5511   1.647   4.518   4.941
 1351SOL    HW2 5512   1.675   4.675   4.905
 1352SOL     OW 5513   1.225   4.049   4.173
 1352SOL    HW1 5514   1.290   3.975   4.162
 1352SOL    HW2 5515   1.245   4.099   4.257
 1353SOL     OW 5516   0.594   4.469   4.376
 1353SOL    HW1 5517   0.644   4.554   4.357
 1353SOL    HW2 5518   0.506   4.471   4.328
 1354SOL     OW 5519   1.730   4.658   5.241
 1354SOL    HW1 5520   1.768   4.749   5.256
 1354SOL    HW2 5521   1.722   4.641   5.142
 1355SOL     OW 5522   0.859   4.680   4.585
 1355SOL    HW1 5523   0.913   4.611   4.633
 1355SOL    HW2 5524   0.827   4.749   4.651
 1356SOL     OW 5525   0.079   4.964   4.377
 1356SOL    HW1 5526   0.078   4.917   4.465
 1356SOL    HW2 5527   0.161   4.936   4.326
 1357SOL     OW 5528   1.824   3.916   4.951
 1357SOL    HW1 5529   1.820   3.826   4.995
 1357SOL    HW2 5530   1.827   3.905   4.852
 1358SOL     OW 5531   0.428   4.148   4.244
 1358SOL    HW1 5532   0.458   4.076   4.182
 1358SOL    HW2 5533   0.389   4.108   4.327
 1359SOL     OW 5534   1.001   3.758   4.878
 1359SOL    HW1 5535   0.938   3.686   4.847
 1359SOL    HW2 5536   1.094   3.722   4.878
 1360SOL     OW 5537   0.770   5.054   4.025
 1360SOL    HW1 5538   0.724   4.967   4.042
 1360SOL    HW2 5539   0.861   5.051   4.066
 1361SOL     OW 5540   1.352   3.776   3.892
 1361SOL    HW1 5541   1.387   3.735   3.808
 1361SOL    HW2 5542   1.262   3.738   3.912
 1362SOL     OW 5543   1.300   4.177   4.415
 1362SOL    HW1 5544   1.241   4.257   4.419
 1362SOL    HW2 5545   1.315   4.142   4.508
 1363SOL     OW 5546   1.593   3.945   4.606
 1363SOL    HW1 5547   1.509   3.944   4.660
 1363SOL    HW2 5548   1.595   4.028   4.550
 1364SOL     OW 5549   0.039   4.801   4.024
 1364SOL    HW1 5550   0.138   4.790   4.015
 1364SOL    HW2 5551  -0.001   4.715   4.056
 1365SOL     OW 5552   2.092   0.628   0.113
 1365SOL    HW1 5553   1.999   0.626   0.150
 1365SOL    HW2 5554   2.093   0.589   0.021
 1366SOL     OW 5555   2.087   0.275   0.996
 1366SOL    HW1 5556   2.122   0.258   1.088
 1366SOL    HW2 5557   1.999   0.230   0.984
 1367SOL     OW 5558   1.881   0.368   0.647
 1367SOL    HW1 5559   1.799   0.411   0.686
 1367SOL    HW2 5560   1.853   0.295   0.584
 1368SOL     OW 5561   2.431   1.275   1.165
 1368SOL    HW1 5562   2.338   1.268   1.128
 1368SOL    HW2 5563   2.442   1.364   1.209
 1369SOL     OW 5564   3.417   1.511   0.703
 1369SOL    HW1 5565   3.360   1.495   0.784
 1369SOL    HW2 5566   3.358   1.521   0.623
 1370SOL     OW 5567   2.997   0.703   0.717
 1370SOL    HW1 5568   3.054   0.781   0.692
 1370SOL    HW2 5569   2.937   0.729   0.793
 1371SOL     OW 5570   3.617   0.607   0.231
 1371SOL    HW1 5571   3.605   0.594   0.132
 1371SOL    HW2 5572   3.587   0.526   0.280
 1372SOL     OW 5573   2.630   1.144   1.023
 1372SOL    HW1 5574   2.552   1.161   1.083
 1372SOL    HW2 5575   2.664   1.231   0.987
 1373SOL     OW 5576   2.547   1.012   0.665
 1373SOL    HW1 5577   2.616   0.996   0.735
 1373SOL    HW2 5578   2.474   1.069   0.703
 1374SOL     OW 5579   2.197   1.435   1.061
 1374SOL    HW1 5580   2.119   1.404   1.008
 1374SOL    HW2 5581   2.255   1.493   1.004
 1375SOL     OW 5582   3.322   1.505   1.339
 1375SOL    HW1 5583   3.346   1.599   1.365
 1375SOL    HW2 5584   3.306   1.451   1.421
 1376SOL     OW 5585   2.300   0.392   1.499
 1376SOL    HW1 5586   2.382   0.336   1.508
 1376SOL    HW2 5587   2.219   0.334   1.503
 1377SOL     OW 5588   3.465   0.447   0.737
 1377SOL    HW1 5589   3.391   0.493   0.687
 1377SOL    HW2 5590   3.516   0.515   0.790
 1378SOL     OW 5591   2.093   1.713   0.483
 1378SOL    HW1 5592   2.127   1.790   0.537
 1378SOL    HW2 5593   2.137   1.713   0.393
 1379SOL     OW 5594   2.989   1.341   1.690
 1379SOL    HW1 5595   3.036   1.341   1.778
 1379SOL    HW2 5596   2.941   1.254   1.679
 1380SOL     OW 5597   2.092   1.434   0.538
 1380SOL    HW1 5598   2.066   1.530   0.538
 1380SOL    HW2 5599   2.021   1.380   0.583
 1381SOL     OW 5600   2.102   1.091   0.886
 1381SOL    HW1 5601   2.116   1.007   0.938
 1381SOL    HW2 5602   2.047   1.155   0.941
 1382SOL     OW 5603   2.468   0.964   0.123
 1382SOL    HW1 5604   2.475   1.048   0.069
 1382SOL    HW2 5605   2.514   0.977   0.211
 1383SOL     OW 5606   3.456   0.114   1.480
 1383SOL    HW1 5607   3.438   0.181   1.408
 1383SOL    HW2 5608   3.453   0.160   1.569
 1384SOL     OW 5609   1.984   0.643   0.563
 1384SOL    HW1 5610   1.939   0.555   0.580
 1384SOL    HW2 5611   1.983   0.697   0.647
 1385SOL     OW 5612   3.704   1.767   0.359
 1385SOL    HW1 5613   3.758   1.738   0.439
 1385SOL    HW2 5614   3.734   1.857   0.330
 1386SOL     OW 5615   1.889   1.596   0.117
 1386SOL    HW1 5616   1.870   1.500   0.138
 1386SOL    HW2 5617   1.856   1.654   0.192
 1387SOL     OW 5618   3.551   0.922   0.612
 1387SOL    HW1 5619   3.646   0.893   0.620
 1387SOL    HW2 5620   3.543   0.987   0.537
 1388SOL     OW 5621   3.503   1.108   0.432
 1388SOL    HW1 5622   3.589   1.110   0.380
 1388SOL    HW2 5623   3.517   1.155   0.520
 1389SOL     OW 5624   1.975   0.737   1.597
 1389SOL    HW1 5625   2.063   0.724   1.642
 1389SOL    HW2 5626   1.962   0.834   1.575
 1390SOL     OW 5627   2.475   1.365   0.726
 1390SOL    HW1 5628   2.426   1.278   0.735
 1390SOL    HW2 5629   2.452   1.408   0.639
 1391SOL     OW 5630   3.155   1.228   1.423
 1391SOL    HW1 5631   3.192   1.155   1.365
 1391SOL    HW2 5632   3.207   1.233   1.508
 1392SOL     OW 5633   2.671   0.004   0.502
 1392SOL    HW1 5634   2.711   0.095   0.493
 1392SOL    HW2 5635   2.571   0.012   0.508
 1393SOL     OW 5636   2.059   0.976   1.264
 1393SOL    HW1 5637   2.148   0.931   1.250
 1393SOL    HW2 5638   1.986   0.911   1.245
 1394SOL     OW 5639   3.049   1.792   1.616
 1394SOL    HW1 5640   3.073   1.852   1.540
 1394SOL    HW2 5641   3.056   1.697   1.586
 1395SOL     OW 5642   2.179   0.251   1.801
 1395SOL    HW1 5643   2.250   0.322   1.807
 1395SOL    HW2 5644   2.091   0.290   1.829
 1396SOL     OW 5645   3.328   1.417   0.953
 1396SOL    HW1 5646   3.269   1.423   1.033
 1396SOL    HW2 5647   3.313   1.329   0.907
 1397SOL     OW 5648   3.529   1.714   0.572
 1397SOL    HW1 5649   3.488   1.691   0.484
 1397SOL    HW2 5650   3.511   1.640   0.637
 1398SOL     OW 5651   2.460   0.729   0.270
 1398SOL    HW1 5652   2.484   0.798   0.202
 1398SOL    HW2 5653   2.382   0.762   0.324
 1399SOL     OW 5654   3.143   0.345   0.944
 1399SOL    HW1 5655   3.057   0.295   0.931
 1399SOL    HW2 5656   3.205   0.291   1.000
 1400SOL     OW 5657   3.438   1.662   0.307
 1400SOL    HW1 5658   3.527   1.708   0.310
 1400SOL    HW2 5659   3.417   1.638   0.212
 1401SOL     OW 5660   3.256   0.469   1.674
 1401SOL    HW1 5661   3.236   0.512   1.762
 1401SOL    HW2 5662   3.334   0.407   1.683
 1402SOL     OW 5663   2.853   0.410   1.242
 1402SOL    HW1 5664   2.776   0.444   1.296
 1402SOL    HW2 5665   2.819   0.359   1.163
 1403SOL     OW 5666   2.903   0.701   0.429
 1403SOL    HW1 5667   2.929   0.697   0.525
 1403SOL    HW2 5668   2.818   0.650   0.415
 1404SOL     OW 5669   1.938   0.811   0.789
 1404SOL    HW1 5670   2.037   0.799   0.798
 1404SOL    HW2 5671   1.914   0.906   0.810
 1405SOL     OW 5672   2.727   0.348   0.195
 1405SOL    HW1 5673   2.786   0.411   0.146
 1405SOL    HW2 5674   2.746   0.254   0.166
 1406SOL     OW 5675   3.581   0.585   1.831
 1406SOL    HW1 5676   3.555   0.674   1.795
 1406SOL    HW2 5677   3.579   0.517   1.758
 1407SOL     OW 5678   3.224   1.144   0.545
 1407SOL    HW1 5679   3.307   1.115   0.497
 1407SOL    HW2 5680   3.175   1.211   0.489
 1408SOL     OW 5681   2.412   0.196   0.885
 1408SOL    HW1 5682   2.407   0.191   0.985
 1408SOL    HW2 5683   2.414   0.292   0.856
 1409SOL     OW 5684   2.870   1.456   0.477
 1409SOL    HW1 5685   2.824   1.528   0.425
 1409SOL    HW2 5686   2.866   1.476   0.575
 1410SOL     OW 5687   2.213   1.801   0.853
 1410SOL    HW1 5688   2.263   1.715   0.859
 1410SOL    HW2 5689   2.278   1.878   0.850
 1411SOL     OW 5690   3.657   1.066   0.873
 1411SOL    HW1 5691   3.595   1.051   0.797
 1411SOL    HW2 5692   3.605   1.077   0.958
 1412SOL     OW 5693   3.089   1.550   1.506
 1412SOL    HW1 5694   3.095   1.473   1.570
 1412SOL    HW2 5695   3.037   1.524   1.426
 1413SOL     OW 5696   2.183   0.943   0.242
 1413SOL    HW1 5697   2.265   0.982   0.200
 1413SOL    HW2 5698   2.156   0.861   0.193
 1414SOL     OW 5699   2.323   1.266   1.727
 1414SOL    HW1 5700   2.273   1.267   1.641
 1414SOL    HW2 5701   2.260   1.248   1.803
 1415SOL     OW 5702   2.973   1.776   0.237
 1415SOL    HW1 5703   2.913   1.714   0.287
 1415SOL    HW2 5704   3.004   1.732   0.152
 1416SOL     OW 5705   2.064   0.285   1.498
 1416SOL    HW1 5706   1.984   0.345   1.485
 1416SOL    HW2 5707   2.054   0.236   1.584
 1417SOL     OW 5708   3.494   1.377   0.081
 1417SOL    HW1 5709   3.462   1.471   0.071
 1417SOL    HW2 5710   3.418   1.314   0.069
 1418SOL     OW 5711   2.326   1.743   0.323
 1418SOL    HW1 5712   2.359   1.782   0.409
 1418SOL    HW2 5713   2.402   1.736   0.258
 1419SOL     OW 5714   3.262   0.107   0.426
 1419SOL    HW1 5715   3.238   0.070   0.336
 1419SOL    HW2 5716   3.361   0.123   0.430
 1420SOL     OW 5717   2.111   1.785   1.241
 1420SOL    HW1 5718   2.168   1.720   1.291
 1420SOL    HW2 5719   2.095   1.752   1.148
 1421SOL     OW 5720   2.802   1.698   0.904
 1421SOL    HW1 5721   2.882   1.641   0.925
 1421SOL    HW2 5722   2.753   1.658   0.827
 1422SOL     OW 5723   2.244   0.700   0.480
 1422SOL    HW1 5724   2.289   0.610   0.477
 1422SOL    HW2 5725   2.150   0.689   0.513
 1423SOL     OW 5726   3.409   0.222   1.729
 1423SOL    HW1 5727   3.404   0.259   1.821
 1423SOL    HW2 5728   3.337   0.153   1.717
 1424SOL     OW 5729   2.476   0.122   0.117
 1424SOL    HW1 5730   2.574   0.100   0.124
 1424SOL    HW2 5731   2.445   0.105   0.024
 1425SOL     OW 5732   2.643   0.264   1.749
 1425SOL    HW1 5733   2.710   0.203   1.792
 1425SOL    HW2 5734   2.570   0.283   1.814
 1426SOL     OW 5735   2.750   1.514   1.195
 1426SOL    HW1 5736   2.727   1.489   1.101
 1426SOL    HW2 5737   2.811   1.445   1.234
 1427SOL     OW 5738   3.213   0.590   1.433
 1427SOL    HW1 5739   3.241   0.547   1.518
 1427SOL    HW2 5740   3.238   0.686   1.434
 1428SOL     OW 5741   2.665   1.402   0.924
 1428SOL    HW1 5742   2.755   1.416   0.882
 1428SOL    HW2 5743   2.594   1.404   0.853
 1429SOL     OW 5744   2.784   0.503   0.899
 1429SOL    HW1 5745   2.759   0.494   0.803
 1429SOL    HW2 5746   2.832   0.421   0.930
 1430SOL     OW 5747   2.401   0.064   0.512
 1430SOL    HW1 5748   2.320   0.065   0.570
 1430SOL    HW2 5749   2.404   0.147   0.457
 1431SOL     OW 5750   3.296   1.188   0.041
 1431SOL    HW1 5751   3.328   1.112   0.098
 1431SOL    HW2 5752   3.204   1.215   0.071
 1432SOL     OW 5753   2.159   0.035   0.171
 1432SOL    HW1 5754   2.208   0.119   0.150
 1432SOL    HW2 5755   2.221  -0.030   0.216
 1433SOL     OW 5756   2.797   0.236   0.480
 1433SOL    HW1 5757   2.749   0.277   0.402
 1433SOL    HW2 5758   2.896   0.234   0.461
 1434SOL     OW 5759   3.089   1.570   0.793
 1434SOL    HW1 5760   3.110   1.644   0.728
 1434SOL    HW2 5761   3.157   1.570   0.866
 1435SOL     OW 5762   2.321   1.152   0.741
 1435SOL    HW1 5763   2.250   1.125   0.806
 1435SOL    HW2 5764   2.295   1.124   0.648
 1436SOL     OW 5765   3.133   1.797   0.591
 1436SOL    HW1 5766   3.177   1.861   0.527
 1436SOL    HW2 5767   3.083   1.849   0.661
 1437SOL     OW 5768   2.894   0.549   0.016
 1437SOL    HW1 5769   2.853   0.631  -0.023
 1437SOL    HW2 5770   2.958   0.575   0.089
 1438SOL     OW 5771   1.940   0.556   1.386
 1438SOL    HW1 5772   2.032   0.555   1.345
 1438SOL    HW2 5773   1.934   0.630   1.453
 1439SOL     OW 5774   2.423   0.222   1.147
 1439SOL    HW1 5775   2.461   0.138   1.184
 1439SOL    HW2 5776   2.335   0.241   1.191
 1440SOL     OW 5777   2.728   0.454   0.642
 1440SOL    HW1 5778   2.696   0.526   0.580
 1440SOL    HW2 5779   2.752   0.373   0.589
 1441SOL     OW 5780   2.879   0.039   0.753
 1441SOL    HW1 5781   2.807   0.044   0.684
 1441SOL    HW2 5782   2.855  -0.030   0.822
 1442SOL     OW 5783   3.291   1.173   0.867
 1442SOL    HW1 5784   3.236   1.089   0.860
 1442SOL    HW2 5785   3.317   1.202   0.775
 1443SOL     OW 5786   3.328   0.590   0.992
 1443SOL    HW1 5787   3.298   0.495   0.999
 1443SOL    HW2 5788   3.401   0.606   1.058
 1444SOL     OW 5789   3.719   0.833   0.377
 1444SOL    HW1 5790   3.761   0.769   0.441
 1444SOL    HW2 5791   3.681   0.782   0.299
 1445SOL     OW 5792   3.526   1.280   0.657
 1445SOL    HW1 5793   3.625   1.288   0.671
 1445SOL    HW2 5794   3.481   1.364   0.688
 1446SOL     OW 5795   2.389   0.256   0.328
 1446SOL    HW1 5796   2.416   0.197   0.253
 1446SOL    HW2 5797   2.389   0.351   0.297
 1447SOL     OW 5798   3.616   1.223   1.588
 1447SOL    HW1 5799   3.707   1.184   1.575
 1447SOL    HW2 5800   3.624   1.319   1.612
 1448SOL     OW 5801   2.926   1.347   1.340
 1448SOL    HW1 5802   2.846   1.324   1.395
 1448SOL    HW2 5803   3.009   1.321   1.389
 1449SOL     OW 5804   2.973   1.195   1.100
 1449SOL    HW1 5805   2.933   1.239   1.181
 1449SOL    HW2 5806   2.932   1.232   1.017
 1450SOL     OW 5807   3.500   1.099   1.079
 1450SOL    HW1 5808   3.505   1.180   1.138
 1450SOL    HW2 5809   3.414   1.101   1.028
 1451SOL     OW 5810   2.777   0.089   1.402
 1451SOL    HW1 5811   2.802   0.069   1.307
 1451SOL    HW2 5812   2.849   0.145   1.444
 1452SOL     OW 5813   2.567   1.050   0.368
 1452SOL    HW1 5814   2.553   1.057   0.467
 1452SOL    HW2 5815   2.651   0.999   0.350
 1453SOL     OW 5816   2.272   0.813   1.251
 1453SOL    HW1 5817   2.358   0.825   1.301
 1453SOL    HW2 5818   2.230   0.726   1.278
 1454SOL     OW 5819   3.136   0.386   1.262
 1454SOL    HW1 5820   3.157   0.460   1.326
 1454SOL    HW2 5821   3.047   0.403   1.219
 1455SOL     OW 5822   1.926   1.564   1.331
 1455SOL    HW1 5823   1.880   1.646   1.297
 1455SOL    HW2 5824   2.024   1.583   1.340
 1456SOL     OW 5825   2.229   1.100   0.501
 1456SOL    HW1 5826   2.222   1.183   0.445
 1456SOL    HW2 5827   2.233   1.020   0.441
 1457SOL     OW 5828   2.428   0.537   0.865
 1457SOL    HW1 5829   2.440   0.603   0.791
 1457SOL    HW2 5830   2.474   0.571   0.948
 1458SOL     OW 5831   3.114   1.348   0.388
 1458SOL    HW1 5832   3.164   1.425   0.428
 1458SOL    HW2 5833   3.019   1.350   0.420
 1459SOL     OW 5834   3.134   1.445   1.142
 1459SOL    HW1 5835   3.181   1.458   1.229
 1459SOL    HW2 5836   3.068   1.371   1.151
 1460SOL     OW 5837   2.216   1.510   1.329
 1460SOL    HW1 5838   2.195   1.466   1.242
 1460SOL    HW2 5839   2.313   1.536   1.332
 1461SOL     OW 5840   2.264   0.751   1.598
 1461SOL    HW1 5841   2.332   0.806   1.551
 1461SOL    HW2 5842   2.304   0.663   1.625
 1462SOL     OW 5843   3.449   0.779   1.670
 1462SOL    HW1 5844   3.357   0.817   1.665
 1462SOL    HW2 5845   3.509   0.826   1.605
 1463SOL     OW 5846   2.875   0.105   1.770
 1463SOL    HW1 5847   2.881   0.190   1.718
 1463SOL    HW2 5848   2.907   0.029   1.713
 1464SOL     OW 5849   2.366   0.050   1.740
 1464SOL    HW1 5850   2.324  -0.007   1.670
 1464SOL    HW2 5851   2.300   0.119   1.772
 1465SOL     OW 5852   2.435   0.870   1.029
 1465SOL    HW1 5853   2.479   0.959   1.020
 1465SOL    HW2 5854   2.372   0.870   1.106
 1466SOL     OW 5855   2.169   0.213   1.231
 1466SOL    HW1 5856   2.146   0.250   1.321
 1466SOL    HW2 5857   2.139   0.118   1.225
 1467SOL     OW 5858   1.899   1.310   1.282
 1467SOL    HW1 5859   1.952   1.261   1.350
 1467SOL    HW2 5860   1.921   1.408   1.287
 1468SOL     OW 5861   2.594   0.634   1.064
 1468SOL    HW1 5862   2.653   0.608   0.988
 1468SOL    HW2 5863   2.566   0.730   1.053
 1469SOL     OW 5864   3.590   0.935   1.854
 1469SOL    HW1 5865   3.544   0.928   1.765
 1469SOL    HW2 5866   3.528   0.979   1.920
 1470SOL     OW 5867   2.169   0.063   0.618
 1470SOL    HW1 5868   2.158   0.157   0.651
 1470SOL    HW2 5869   2.164   0.000   0.695
 1471SOL     OW 5870   3.484   0.367   0.374
 1471SOL    HW1 5871   3.486   0.291   0.438
 1471SOL    HW2 5872   3.436   0.444   0.414
 1472SOL     OW 5873   2.885   0.766   0.966
 1472SOL    HW1 5874   2.900   0.787   1.062
 1472SOL    HW2 5875   2.855   0.671   0.957
 1473SOL     OW 5876   2.842   1.573   1.700
 1473SOL    HW1 5877   2.822   1.617   1.612
 1473SOL    HW2 5878   2.881   1.482   1.684
 1474SOL     OW 5879   2.212   0.898   1.804
 1474SOL    HW1 5880   2.288   0.942   1.852
 1474SOL    HW2 5881   2.247   0.851   1.722
 1475SOL     OW 5882   3.402   0.274   0.125
 1475SOL    HW1 5883   3.341   0.199   0.148
 1475SOL    HW2 5884   3.424   0.326   0.208
 1476SOL     OW 5885   2.930   1.333   0.849
 1476SOL    HW1 5886   2.937   1.249   0.794
 1476SOL    HW2 5887   2.992   1.402   0.813
 1477SOL     OW 5888   2.181   0.810   0.949
 1477SOL    HW1 5889   2.274   0.846   0.954
 1477SOL    HW2 5890   2.175   0.725   1.001
 1478SOL     OW 5891   2.201   0.509   1.006
 1478SOL    HW1 5892   2.149   0.426   0.989
 1478SOL    HW2 5893   2.278   0.514   0.942
 1479SOL     OW 5894   3.000   0.380   1.678
 1479SOL    HW1 5895   2.955   0.443   1.742
 1479SOL    HW2 5896   3.093   0.411   1.661
 1480SOL     OW 5897   3.022   0.207   1.477
 1480SOL    HW1 5898   3.022   0.271   1.554
 1480SOL    HW2 5899   3.050   0.255   1.394
 1481SOL     OW 5900   1.950   1.801   0.927
 1481SOL    HW1 5901   1.908   1.715   0.900
 1481SOL    HW2 5902   2.044   1.804   0.893
 1482SOL     OW 5903   2.366   1.568   0.910
 1482SOL    HW1 5904   2.432   1.642   0.919
 1482SOL    HW2 5905   2.410   1.489   0.868
 1483SOL     OW 5906   2.864   0.796   1.238
 1483SOL    HW1 5907   2.905   0.764   1.324
 1483SOL    HW2 5908   2.768   0.769   1.235
 1484SOL     OW 5909   1.902   0.544   1.114
 1484SOL    HW1 5910   1.987   0.511   1.073
 1484SOL    HW2 5911   1.915   0.559   1.212
 1485SOL     OW 5912   2.051   0.520   1.722
 1485SOL    HW1 5913   2.110   0.480   1.652
 1485SOL    HW2 5914   1.993   0.591   1.681
 1486SOL     OW 5915   2.677   0.572   0.325
 1486SOL    HW1 5916   2.684   0.483   0.279
 1486SOL    HW2 5917   2.583   0.606   0.317
 1487SOL     OW 5918   3.519   0.604   1.206
 1487SOL    HW1 5919   3.481   0.535   1.268
 1487SOL    HW2 5920   3.601   0.568   1.162
 1488SOL     OW 5921   2.114   1.564   1.744
 1488SOL    HW1 5922   2.084   1.621   1.820
 1488SOL    HW2 5923   2.107   1.467   1.770
 1489SOL     OW 5924   2.533   0.464   1.269
 1489SOL    HW1 5925   2.499   0.375   1.239
 1489SOL    HW2 5926   2.559   0.518   1.189
 1490SOL     OW 5927   2.792   1.678   1.465
 1490SOL    HW1 5928   2.768   1.660   1.370
 1490SOL    HW2 5929   2.822   1.772   1.475
 1491SOL     OW 5930   2.335   0.500   0.191
 1491SOL    HW1 5931   2.396   0.580   0.195
 1491SOL    HW2 5932   2.240   0.531   0.198
 1492SOL     OW 5933   2.021   1.137   1.466
 1492SOL    HW1 5934   2.043   1.076   1.542
 1492SOL    HW2 5935   2.031   1.088   1.380
 1493SOL     OW 5936   3.209   1.059   1.234
 1493SOL    HW1 5937   3.233   0.996   1.160
 1493SOL    HW2 5938   3.119   1.099   1.216
 1494SOL     OW 5939   3.621   1.747   1.154
 1494SOL    HW1 5940   3.682   1.777   1.081
 1494SOL    HW2 5941   3.583   1.658   1.132
 1495SOL     OW 5942   3.114   1.731   1.128
 1495SOL    HW1 5943   3.198   1.736   1.074
 1495SOL    HW2 5944   3.091   1.635   1.146
 1496SOL     OW 5945   1.945   1.258   1.022
 1496SOL    HW1 5946   1.940   1.257   1.122
 1496SOL    HW2 5947   1.862   1.217   0.984
 1497SOL     OW 5948   2.550   1.662   1.716
 1497SOL    HW1 5949   2.494   1.743   1.725
 1497SOL    HW2 5950   2.602   1.666   1.630
 1498SOL     OW 5951   2.765   0.086   0.133
 1498SOL    HW1 5952   2.816   0.087   0.047
 1498SOL    HW2 5953   2.821   0.044   0.204
 1499SOL     OW 5954   3.588   0.135   0.523
 1499SOL    HW1 5955   3.661   0.118   0.456
 1499SOL    HW2 5956   3.557   0.048   0.561
 1500SOL     OW 5957   3.250   1.573   0.477
 1500SOL    HW1 5958   3.317   1.585   0.403
 1500SOL    HW2 5959   3.210   1.662   0.500
 1501SOL     OW 5960   3.142   0.927   0.672
 1501SOL    HW1 5961   3.202   0.846   0.674
 1501SOL    HW2 5962   3.182   0.996   0.612
 1502SOL     OW 5963   2.692   1.273   1.422
 1502SOL    HW1 5964   2.687   1.306   1.517
 1502SOL    HW2 5965   2.606   1.292   1.376
 1503SOL     OW 5966   3.512   1.720   1.394
 1503SOL    HW1 5967   3.565   1.730   1.310
 1503SOL    HW2 5968   3.485   1.810   1.428
 1504SOL     OW 5969   3.703   0.175   0.963
 1504SOL    HW1 5970   3.742   0.090   0.927
 1504SOL    HW2 5971   3.605   0.177   0.944
 1505SOL     OW 5972   2.125   0.326   0.720
 1505SOL    HW1 5973   2.046   0.377   0.686
 1505SOL    HW2 5974   2.116   0.311   0.818
 1506SOL     OW 5975   3.056   1.612   0.031
 1506SOL    HW1 5976   3.062   1.519   0.068
 1506SOL    HW2 5977   2.997   1.612  -0.049
 1507SOL     OW 5978   2.684   1.002   1.372
 1507SOL    HW1 5979   2.724   1.001   1.280
 1507SOL    HW2 5980   2.694   1.094   1.412
 1508SOL     OW 5981   2.778   0.910   0.291
 1508SOL    HW1 5982   2.841   0.948   0.223
 1508SOL    HW2 5983   2.818   0.827   0.330
 1509SOL     OW 5984   3.366   1.607   0.044
 1509SOL    HW1 5985   3.274   1.644   0.051
 1509SOL    HW2 5986   3.404   1.627  -0.046
 1510SOL     OW 5987   3.476   1.292   1.289
 1510SOL    HW1 5988   3.536   1.295   1.369
 1510SOL    HW2 5989   3.401   1.356   1.302
 1511SOL     OW 5990   2.901   1.098   0.696
 1511SOL    HW1 5991   2.831   1.051   0.750
 1511SOL    HW2 5992   2.960   1.030   0.653
 1512SOL     OW 5993   2.876   0.236   0.971
 1512SOL    HW1 5994   2.868   0.200   0.878
 1512SOL    HW2 5995   2.874   0.160   1.036
 1513SOL     OW 5996   2.452   1.487   0.491
 1513SOL    HW1 5997   2.494   1.429   0.421
 1513SOL    HW2 5998   2.408   1.566   0.447
 1514SOL     OW 5999   3.571   0.385   1.381
 1514SOL    HW1 6000   3.644   0.454   1.385
 1514SOL    HW2 6001   3.599   0.310   1.322
 1515SOL     OW 6002   2.117   1.348   0.290
 1515SOL    HW1 6003   2.021   1.349   0.263
 1515SOL    HW2 6004   2.129   1.401   0.374
 1516SOL     OW 6005   1.967   1.013   1.726
 1516SOL    HW1 6006   1.890   0.980   1.780
 1516SOL    HW2 6007   2.052   0.983   1.768
 1517SOL     OW 6008   2.534   0.203   1.489
 1517SOL    HW1 6009   2.624   0.187   1.449
 1517SOL    HW2 6010   2.542   0.208   1.588
 1518SOL     OW 6011   1.934   0.166   0.318
 1518SOL    HW1 6012   1.917   0.249   0.264
 1518SOL    HW2 6013   2.024   0.129   0.296
 1519SOL     OW 6014   3.045   1.335   0.119
 1519SOL    HW1 6015   2.946   1.324   0.121
 1519SOL    HW2 6016   3.079   1.350   0.212
 1520SOL     OW 6017   2.475   0.842   1.431
 1520SOL    HW1 6018   2.531   0.923   1.414
 1520SOL    HW2 6019   2.534   0.762   1.434
 1521SOL     OW 6020   3.355   1.767   0.959
 1521SOL    HW1 6021   3.388   1.831   0.890
 1521SOL    HW2 6022   3.421   1.761   1.034
 1522SOL     OW 6023   3.536   0.883   1.254
 1522SOL    HW1 6024   3.509   0.794   1.217
 1522SOL    HW2 6025   3.537   0.951   1.181
 1523SOL     OW 6026   2.456   0.745   0.652
 1523SOL    HW1 6027   2.506   0.830   0.633
 1523SOL    HW2 6028   2.368   0.747   0.604
 1524SOL     OW 6029   3.639   0.342   1.642
 1524SOL    HW1 6030   3.622   0.373   1.548
 1524SOL    HW2 6031   3.555   0.305   1.680
 1525SOL     OW 6032   3.592   0.934   1.517
 1525SOL    HW1 6033   3.630   1.025   1.532
 1525SOL    HW2 6034   3.584   0.917   1.418
 1526SOL     OW 6035   2.721   1.374   0.016
 1526SOL    HW1 6036   2.675   1.389   0.104
 1526SOL    HW2 6037   2.765   1.459  -0.014
 1527SOL     OW 6038   2.523   1.790   0.953
 1527SOL    HW1 6039   2.477   1.878   0.940
 1527SOL    HW2 6040   2.622   1.802   0.946
 1528SOL     OW 6041   2.721   0.956   0.861
 1528SOL    HW1 6042   2.775   0.887   0.909
 1528SOL    HW2 6043   2.689   1.025   0.927
 1529SOL     OW 6044   2.945   0.984   0.087
 1529SOL    HW1 6045   2.922   1.037   0.005
 1529SOL    HW2 6046   3.026   0.928   0.068
 1530SOL     OW 6047   3.723   1.569   0.851
 1530SOL    HW1 6048   3.652   1.557   0.781
 1530SOL    HW2 6049   3.724   1.490   0.911
 1531SOL     OW 6050   2.083   1.314   1.844
 1531SOL    HW1 6051   2.018   1.241   1.823
 1531SOL    HW2 6052   2.087   1.328   1.942
 1532SOL     OW 6053   1.941   1.240   0.653
 1532SOL    HW1 6054   1.940   1.193   0.741
 1532SOL    HW2 6055   2.023   1.212   0.602
 1533SOL     OW 6056   2.534   1.391   1.624
 1533SOL    HW1 6057   2.456   1.341   1.662
 1533SOL    HW2 6058   2.531   1.486   1.655
 1534SOL     OW 6059   3.686   0.192   1.227
 1534SOL    HW1 6060   3.682   0.102   1.271
 1534SOL    HW2 6061   3.689   0.181   1.128
 1535SOL     OW 6062   2.290   0.424   0.520
 1535SOL    HW1 6063   2.320   0.352   0.458
 1535SOL    HW2 6064   2.251   0.384   0.603
 1536SOL     OW 6065   3.567   1.487   1.104
 1536SOL    HW1 6066   3.474   1.462   1.077
 1536SOL    HW2 6067   3.593   1.437   1.186
 1537SOL     OW 6068   2.179   0.547   1.280
 1537SOL    HW1 6069   2.217   0.488   1.352
 1537SOL    HW2 6070   2.219   0.521   1.192
 1538SOL     OW 6071   2.674   1.586   0.687
 1538SOL    HW1 6072   2.706   1.596   0.593
 1538SOL    HW2 6073   2.595   1.524   0.689
 1539SOL     OW 6074   3.286   0.214   1.112
 1539SOL    HW1 6075   3.338   0.149   1.167
 1539SOL    HW2 6076   3.237   0.277   1.173
 1540SOL     OW 6077   2.863   0.034   1.154
 1540SOL    HW1 6078   2.800  -0.038   1.123
 1540SOL    HW2 6079   2.956  -0.002   1.154
 1541SOL     OW 6080   2.632   1.330   0.301
 1541SOL    HW1 6081   2.586   1.243   0.318
 1541SOL    HW2 6082   2.723   1.327   0.342
 1542SOL     OW 6083   2.480   1.567   1.284
 1542SOL    HW1 6084   2.475   1.649   1.341
 1542SOL    HW2 6085   2.569   1.564   1.239
 1543SOL     OW 6086   3.214   0.052   0.168
 1543SOL    HW1 6087   3.249   0.011   0.084
 1543SOL    HW2 6088   3.124   0.014   0.188
 1544SOL     OW 6089   3.455   0.221   0.882
 1544SOL    HW1 6090   3.371   0.220   0.936
 1544SOL    HW2 6091   3.457   0.304   0.826
 1545SOL     OW 6092   1.901   1.077   0.300
 1545SOL    HW1 6093   2.000   1.066   0.291
 1545SOL    HW2 6094   1.861   0.991   0.332
 1546SOL     OW 6095   2.737   1.646   0.337
 1546SOL    HW1 6096   2.660   1.611   0.283
 1546SOL    HW2 6097   2.705   1.717   0.399
 1547SOL     OW 6098   2.087   0.275   2.858
 1547SOL    HW1 6099   2.122   0.258   2.950
 1547SOL    HW2 6100   1.999   0.230   2.846
 1548SOL     OW 6101   1.881   0.368   2.509
 1548SOL    HW1 6102   1.799   0.411   2.548
 1548SOL    HW2 6103   1.853   0.295   2.446
 1549SOL     OW 6104   2.431   1.275   3.027
 1549SOL    HW1 6105   2.338   1.268   2.990
 1549SOL    HW2 6106   2.442   1.364   3.071
 1550SOL     OW 6107   3.417   1.511   2.565
 1550SOL    HW1 6108   3.360   1.495   2.646
 1550SOL    HW2 6109   3.358   1.521   2.485
 1551SOL     OW 6110   2.997   0.703   2.579
 1551SOL    HW1 6111   3.054   0.781   2.554
 1551SOL    HW2 6112   2.937   0.729   2.655
 1552SOL     OW 6113   3.617   0.607   2.093
 1552SOL    HW1 6114   3.605   0.594   1.994
 1552SOL    HW2 6115   3.587   0.526   2.142
 1553SOL     OW 6116   2.630   1.144   2.885
 1553SOL    HW1 6117   2.552   1.161   2.945
 1553SOL    HW2 6118   2.664   1.231   2.849
 1554SOL     OW 6119   2.712   0.798   3.685
 1554SOL    HW1 6120   2.708   0.874   3.750
 1554SOL    HW2 6121   2.734   0.834   3.594
 1555SOL     OW 6122   2.547   1.012   2.527
 1555SOL    HW1 6123   2.616   0.996   2.597
 1555SOL    HW2 6124   2.474   1.069   2.565
 1556SOL     OW 6125   2.197   1.435   2.923
 1556SOL    HW1 6126   2.119   1.404   2.870
 1556SOL    HW2 6127   2.255   1.493   2.866
 1557SOL     OW 6128   3.322   1.505   3.201
 1557SOL    HW1 6129   3.346   1.599   3.227
 1557SOL    HW2 6130   3.306   1.451   3.283
 1558SOL     OW 6131   2.300   0.392   3.361
 1558SOL    HW1 6132   2.382   0.336   3.370
 1558SOL    HW2 6133   2.219   0.334   3.365
 1559SOL     OW 6134   3.465   0.447   2.599
 1559SOL    HW1 6135   3.391   0.493   2.549
 1559SOL    HW2 6136   3.516   0.515   2.652
 1560SOL     OW 6137   2.093   1.713   2.345
 1560SOL    HW1 6138   2.127   1.790   2.399
 1560SOL    HW2 6139   2.137   1.713   2.255
 1561SOL     OW 6140   2.092   1.434   2.400
 1561SOL    HW1 6141   2.066   1.530   2.400
 1561SOL    HW2 6142   2.021   1.380   2.445
 1562SOL     OW 6143   2.102   1.091   2.748
 1562SOL    HW1 6144   2.116   1.007   2.800
 1562SOL    HW2 6145   2.047   1.155   2.803
 1563SOL     OW 6146   2.482   1.786   3.301
 1563SOL    HW1 6147   2.390   1.769   3.336
 1563SOL    HW2 6148   2.510   1.878   3.327
 1564SOL     OW 6149   2.468   0.964   1.985
 1564SOL    HW1 6150   2.475   1.048   1.931
 1564SOL    HW2 6151   2.514   0.977   2.073
 1565SOL     OW 6152   1.889   1.596   1.979
 1565SOL    HW1 6153   1.870   1.500   2.000
 1565SOL    HW2 6154   1.856   1.654   2.054
 1566SOL     OW 6155   3.551   0.922   2.474
 1566SOL    HW1 6156   3.646   0.893   2.482
 1566SOL    HW2 6157   3.543   0.987   2.399
 1567SOL     OW 6158   1.975   0.737   3.459
 1567SOL    HW1 6159   2.063   0.724   3.504
 1567SOL    HW2 6160   1.962   0.834   3.437
 1568SOL     OW 6161   2.475   1.365   2.588
 1568SOL    HW1 6162   2.426   1.278   2.597
 1568SOL    HW2 6163   2.452   1.408   2.501
 1569SOL     OW 6164   2.671   0.004   2.364
 1569SOL    HW1 6165   2.711   0.095   2.355
 1569SOL    HW2 6166   2.571   0.012   2.370
 1570SOL     OW 6167   2.059   0.976   3.126
 1570SOL    HW1 6168   2.148   0.931   3.112
 1570SOL    HW2 6169   1.986   0.911   3.107
 1571SOL     OW 6170   3.387   0.999   2.052
 1571SOL    HW1 6171   3.324   0.923   2.065
 1571SOL    HW2 6172   3.435   1.017   2.138
 1572SOL     OW 6173   3.049   1.792   3.478
 1572SOL    HW1 6174   3.073   1.852   3.402
 1572SOL    HW2 6175   3.056   1.697   3.448
 1573SOL     OW 6176   2.179   0.251   3.663
 1573SOL    HW1 6177   2.250   0.322   3.669
 1573SOL    HW2 6178   2.091   0.290   3.691
 1574SOL     OW 6179   3.328   1.417   2.815
 1574SOL    HW1 6180   3.269   1.423   2.895
 1574SOL    HW2 6181   3.313   1.329   2.769
 1575SOL     OW 6182   3.529   1.714   2.434
 1575SOL    HW1 6183   3.488   1.691   2.346
 1575SOL    HW2 6184   3.511   1.640   2.499
 1576SOL     OW 6185   2.460   0.729   2.132
 1576SOL    HW1 6186   2.484   0.798   2.064
 1576SOL    HW2 6187   2.382   0.762   2.186
 1577SOL     OW 6188   3.143   0.345   2.806
 1577SOL    HW1 6189   3.057   0.295   2.793
 1577SOL    HW2 6190   3.205   0.291   2.862
 1578SOL     OW 6191   2.669   0.605   3.327
 1578SOL    HW1 6192   2.622   0.602   3.416
 1578SOL    HW2 6193   2.618   0.550   3.261
 1579SOL     OW 6194   3.256   0.469   3.536
 1579SOL    HW1 6195   3.236   0.512   3.624
 1579SOL    HW2 6196   3.334   0.407   3.545
 1580SOL     OW 6197   2.835   0.890   3.434
 1580SOL    HW1 6198   2.881   0.806   3.405
 1580SOL    HW2 6199   2.779   0.924   3.359
 1581SOL     OW 6200   2.853   0.410   3.104
 1581SOL    HW1 6201   2.776   0.444   3.158
 1581SOL    HW2 6202   2.819   0.359   3.025
 1582SOL     OW 6203   2.903   0.701   2.291
 1582SOL    HW1 6204   2.929   0.697   2.387
 1582SOL    HW2 6205   2.818   0.650   2.277
 1583SOL     OW 6206   1.938   0.811   2.651
 1583SOL    HW1 6207   2.037   0.799   2.660
 1583SOL    HW2 6208   1.914   0.906   2.672
 1584SOL     OW 6209   1.992   1.821   3.433
 1584SOL    HW1 6210   1.982   1.806   3.532
 1584SOL    HW2 6211   1.906   1.857   3.397
 1585SOL     OW 6212   2.727   0.348   2.057
 1585SOL    HW1 6213   2.786   0.411   2.008
 1585SOL    HW2 6214   2.746   0.254   2.028
 1586SOL     OW 6215   3.581   0.585   3.693
 1586SOL    HW1 6216   3.555   0.674   3.657
 1586SOL    HW2 6217   3.579   0.517   3.620
 1587SOL     OW 6218   3.224   1.144   2.407
 1587SOL    HW1 6219   3.307   1.115   2.359
 1587SOL    HW2 6220   3.175   1.211   2.351
 1588SOL     OW 6221   2.412   0.196   2.747
 1588SOL    HW1 6222   2.407   0.191   2.847
 1588SOL    HW2 6223   2.414   0.292   2.718
 1589SOL     OW 6224   2.870   1.456   2.339
 1589SOL    HW1 6225   2.824   1.528   2.287
 1589SOL    HW2 6226   2.866   1.476   2.437
 1590SOL     OW 6227   2.213   1.801   2.715
 1590SOL    HW1 6228   2.263   1.715   2.721
 1590SOL    HW2 6229   2.278   1.878   2.712
 1591SOL     OW 6230   3.657   1.066   2.735
 1591SOL    HW1 6231   3.595   1.051   2.659
 1591SOL    HW2 6232   3.605   1.077   2.820
 1592SOL     OW 6233   3.089   1.550   3.368
 1592SOL    HW1 6234   3.095   1.473   3.432
 1592SOL    HW2 6235   3.037   1.524   3.288
 1593SOL     OW 6236   2.183   0.943   2.104
 1593SOL    HW1 6237   2.265   0.982   2.062
 1593SOL    HW2 6238   2.156   0.861   2.055
 1594SOL     OW 6239   3.320   0.735   2.590
 1594SOL    HW1 6240   3.315   0.670   2.665
 1594SOL    HW2 6241   3.400   0.794   2.603
 1595SOL     OW 6242   2.323   1.266   3.589
 1595SOL    HW1 6243   2.273   1.267   3.503
 1595SOL    HW2 6244   2.260   1.248   3.665
 1596SOL     OW 6245   2.973   1.776   2.099
 1596SOL    HW1 6246   2.913   1.714   2.149
 1596SOL    HW2 6247   3.004   1.732   2.014
 1597SOL     OW 6248   2.064   0.285   3.360
 1597SOL    HW1 6249   1.984   0.345   3.347
 1597SOL    HW2 6250   2.054   0.236   3.446
 1598SOL     OW 6251   3.494   1.377   1.943
 1598SOL    HW1 6252   3.462   1.471   1.933
 1598SOL    HW2 6253   3.418   1.314   1.931
 1599SOL     OW 6254   2.326   1.743   2.185
 1599SOL    HW1 6255   2.359   1.782   2.271
 1599SOL    HW2 6256   2.402   1.736   2.120
 1600SOL     OW 6257   3.262   0.107   2.288
 1600SOL    HW1 6258   3.238   0.070   2.198
 1600SOL    HW2 6259   3.361   0.123   2.292
 1601SOL     OW 6260   2.111   1.785   3.103
 1601SOL    HW1 6261   2.168   1.720   3.153
 1601SOL    HW2 6262   2.095   1.752   3.010
 1602SOL     OW 6263   2.802   1.698   2.766
 1602SOL    HW1 6264   2.882   1.641   2.787
 1602SOL    HW2 6265   2.753   1.658   2.689
 1603SOL     OW 6266   2.476   0.122   1.979
 1603SOL    HW1 6267   2.574   0.100   1.986
 1603SOL    HW2 6268   2.445   0.105   1.886
 1604SOL     OW 6269   2.643   0.264   3.611
 1604SOL    HW1 6270   2.710   0.203   3.654
 1604SOL    HW2 6271   2.570   0.283   3.676
 1605SOL     OW 6272   2.750   1.514   3.057
 1605SOL    HW1 6273   2.727   1.489   2.963
 1605SOL    HW2 6274   2.811   1.445   3.096
 1606SOL     OW 6275   3.213   0.590   3.295
 1606SOL    HW1 6276   3.241   0.547   3.380
 1606SOL    HW2 6277   3.238   0.686   3.296
 1607SOL     OW 6278   2.665   1.402   2.786
 1607SOL    HW1 6279   2.755   1.416   2.744
 1607SOL    HW2 6280   2.594   1.404   2.715
 1608SOL     OW 6281   2.784   0.503   2.761
 1608SOL    HW1 6282   2.759   0.494   2.665
 1608SOL    HW2 6283   2.832   0.421   2.792
 1609SOL     OW 6284   2.401   0.064   2.374
 1609SOL    HW1 6285   2.320   0.065   2.432
 1609SOL    HW2 6286   2.404   0.147   2.319
 1610SOL     OW 6287   3.296   1.188   1.903
 1610SOL    HW1 6288   3.328   1.112   1.960
 1610SOL    HW2 6289   3.204   1.215   1.933
 1611SOL     OW 6290   2.159   0.035   2.033
 1611SOL    HW1 6291   2.208   0.119   2.012
 1611SOL    HW2 6292   2.221  -0.030   2.078
 1612SOL     OW 6293   2.797   0.236   2.342
 1612SOL    HW1 6294   2.749   0.277   2.264
 1612SOL    HW2 6295   2.896   0.234   2.323
 1613SOL     OW 6296   2.938   0.683   3.326
 1613SOL    HW1 6297   2.858   0.622   3.329
 1613SOL    HW2 6298   3.019   0.630   3.302
 1614SOL     OW 6299   3.089   1.570   2.655
 1614SOL    HW1 6300   3.110   1.644   2.590
 1614SOL    HW2 6301   3.157   1.570   2.728
 1615SOL     OW 6302   2.321   1.152   2.603
 1615SOL    HW1 6303   2.250   1.125   2.668
 1615SOL    HW2 6304   2.295   1.124   2.510
 1616SOL     OW 6305   3.133   1.797   2.453
 1616SOL    HW1 6306   3.177   1.861   2.389
 1616SOL    HW2 6307   3.083   1.849   2.523
 1617SOL     OW 6308   1.940   0.556   3.248
 1617SOL    HW1 6309   2.032   0.555   3.207
 1617SOL    HW2 6310   1.934   0.630   3.315
 1618SOL     OW 6311   2.423   0.222   3.009
 1618SOL    HW1 6312   2.461   0.138   3.046
 1618SOL    HW2 6313   2.335   0.241   3.053
 1619SOL     OW 6314   2.728   0.454   2.504
 1619SOL    HW1 6315   2.696   0.526   2.442
 1619SOL    HW2 6316   2.752   0.373   2.451
 1620SOL     OW 6317   2.879   0.039   2.615
 1620SOL    HW1 6318   2.807   0.044   2.546
 1620SOL    HW2 6319   2.855  -0.030   2.684
 1621SOL     OW 6320   3.291   1.173   2.729
 1621SOL    HW1 6321   3.236   1.089   2.722
 1621SOL    HW2 6322   3.317   1.202   2.637
 1622SOL     OW 6323   3.328   0.590   2.854
 1622SOL    HW1 6324   3.298   0.495   2.861
 1622SOL    HW2 6325   3.401   0.606   2.920
 1623SOL     OW 6326   3.719   0.833   2.239
 1623SOL    HW1 6327   3.761   0.769   2.303
 1623SOL    HW2 6328   3.681   0.782   2.161
 1624SOL     OW 6329   2.350   1.385   2.036
 1624SOL    HW1 6330   2.263   1.370   2.083
 1624SOL    HW2 6331   2.333   1.411   1.941
 1625SOL     OW 6332   3.252   0.575   1.940
 1625SOL    HW1 6333   3.198   0.554   2.021
 1625SOL    HW2 6334   3.343   0.534   1.949
 1626SOL     OW 6335   2.389   0.256   2.190
 1626SOL    HW1 6336   2.416   0.197   2.115
 1626SOL    HW2 6337   2.389   0.351   2.159
 1627SOL     OW 6338   2.926   1.347   3.202
 1627SOL    HW1 6339   2.846   1.324   3.257
 1627SOL    HW2 6340   3.009   1.321   3.251
 1628SOL     OW 6341   2.973   1.195   2.962
 1628SOL    HW1 6342   2.933   1.239   3.043
 1628SOL    HW2 6343   2.932   1.232   2.879
 1629SOL     OW 6344   3.500   1.099   2.941
 1629SOL    HW1 6345   3.505   1.180   3.000
 1629SOL    HW2 6346   3.414   1.101   2.890
 1630SOL     OW 6347   2.567   1.050   2.230
 1630SOL    HW1 6348   2.553   1.057   2.329
 1630SOL    HW2 6349   2.651   0.999   2.212
 1631SOL     OW 6350   2.272   0.813   3.113
 1631SOL    HW1 6351   2.358   0.825   3.163
 1631SOL    HW2 6352   2.230   0.726   3.140
 1632SOL     OW 6353   3.136   0.386   3.124
 1632SOL    HW1 6354   3.157   0.460   3.188
 1632SOL    HW2 6355   3.047   0.403   3.081
 1633SOL     OW 6356   1.926   1.564   3.193
 1633SOL    HW1 6357   1.880   1.646   3.159
 1633SOL    HW2 6358   2.024   1.583   3.202
 1634SOL     OW 6359   2.229   1.100   2.363
 1634SOL    HW1 6360   2.222   1.183   2.307
 1634SOL    HW2 6361   2.233   1.020   2.303
 1635SOL     OW 6362   2.428   0.537   2.727
 1635SOL    HW1 6363   2.440   0.603   2.653
 1635SOL    HW2 6364   2.474   0.571   2.810
 1636SOL     OW 6365   3.114   1.348   2.250
 1636SOL    HW1 6366   3.164   1.425   2.290
 1636SOL    HW2 6367   3.019   1.350   2.282
 1637SOL     OW 6368   3.134   1.445   3.004
 1637SOL    HW1 6369   3.181   1.458   3.091
 1637SOL    HW2 6370   3.068   1.371   3.013
 1638SOL     OW 6371   3.444   0.639   2.334
 1638SOL    HW1 6372   3.413   0.700   2.407
 1638SOL    HW2 6373   3.494   0.691   2.265
 1639SOL     OW 6374   2.216   1.510   3.191
 1639SOL    HW1 6375   2.195   1.466   3.104
 1639SOL    HW2 6376   2.313   1.536   3.194
 1640SOL     OW 6377   2.264   0.751   3.460
 1640SOL    HW1 6378   2.332   0.806   3.413
 1640SOL    HW2 6379   2.304   0.663   3.487
 1641SOL     OW 6380   3.449   0.779   3.532
 1641SOL    HW1 6381   3.357   0.817   3.527
 1641SOL    HW2 6382   3.509   0.826   3.467
 1642SOL     OW 6383   2.366   0.050   3.602
 1642SOL    HW1 6384   2.324  -0.007   3.532
 1642SOL    HW2 6385   2.300   0.119   3.634
 1643SOL     OW 6386   2.435   0.870   2.891
 1643SOL    HW1 6387   2.479   0.959   2.882
 1643SOL    HW2 6388   2.372   0.870   2.968
 1644SOL     OW 6389   3.222   0.862   2.907
 1644SOL    HW1 6390   3.147   0.862   2.841
 1644SOL    HW2 6391   3.259   0.770   2.916
 1645SOL     OW 6392   3.071   0.525   2.137
 1645SOL    HW1 6393   3.084   0.441   2.191
 1645SOL    HW2 6394   3.042   0.599   2.197
 1646SOL     OW 6395   2.169   0.213   3.093
 1646SOL    HW1 6396   2.146   0.250   3.183
 1646SOL    HW2 6397   2.139   0.118   3.087
 1647SOL     OW 6398   1.899   1.310   3.144
 1647SOL    HW1 6399   1.952   1.261   3.212
 1647SOL    HW2 6400   1.921   1.408   3.149
 1648SOL     OW 6401   2.594   0.634   2.926
 1648SOL    HW1 6402   2.653   0.608   2.850
 1648SOL    HW2 6403   2.566   0.730   2.915
 1649SOL     OW 6404   3.590   0.935   3.716
 1649SOL    HW1 6405   3.544   0.928   3.627
 1649SOL    HW2 6406   3.528   0.979   3.782
 1650SOL     OW 6407   2.169   0.063   2.480
 1650SOL    HW1 6408   2.158   0.157   2.513
 1650SOL    HW2 6409   2.164   0.000   2.557
 1651SOL     OW 6410   3.484   0.367   2.236
 1651SOL    HW1 6411   3.486   0.291   2.300
 1651SOL    HW2 6412   3.436   0.444   2.276
 1652SOL     OW 6413   2.885   0.766   2.828
 1652SOL    HW1 6414   2.900   0.787   2.924
 1652SOL    HW2 6415   2.855   0.671   2.819
 1653SOL     OW 6416   2.842   1.573   3.562
 1653SOL    HW1 6417   2.822   1.617   3.474
 1653SOL    HW2 6418   2.881   1.482   3.546
 1654SOL     OW 6419   2.212   0.898   3.666
 1654SOL    HW1 6420   2.288   0.942   3.714
 1654SOL    HW2 6421   2.247   0.851   3.584
 1655SOL     OW 6422   3.402   0.274   1.987
 1655SOL    HW1 6423   3.341   0.199   2.010
 1655SOL    HW2 6424   3.424   0.326   2.070
 1656SOL     OW 6425   3.165   0.838   1.904
 1656SOL    HW1 6426   3.199   0.745   1.919
 1656SOL    HW2 6427   3.183   0.865   1.809
 1657SOL     OW 6428   2.930   1.333   2.711
 1657SOL    HW1 6429   2.937   1.249   2.656
 1657SOL    HW2 6430   2.992   1.402   2.675
 1658SOL     OW 6431   2.181   0.810   2.811
 1658SOL    HW1 6432   2.274   0.846   2.816
 1658SOL    HW2 6433   2.175   0.725   2.863
 1659SOL     OW 6434   3.000   0.380   3.540
 1659SOL    HW1 6435   2.955   0.443   3.604
 1659SOL    HW2 6436   3.093   0.411   3.523
 1660SOL     OW 6437   3.022   0.207   3.339
 1660SOL    HW1 6438   3.022   0.271   3.416
 1660SOL    HW2 6439   3.050   0.255   3.256
 1661SOL     OW 6440   1.870   1.326   2.062
 1661SOL    HW1 6441   1.777   1.347   2.031
 1661SOL    HW2 6442   1.880   1.227   2.075
 1662SOL     OW 6443   1.950   1.801   2.789
 1662SOL    HW1 6444   1.908   1.715   2.762
 1662SOL    HW2 6445   2.044   1.804   2.755
 1663SOL     OW 6446   2.366   1.568   2.772
 1663SOL    HW1 6447   2.432   1.642   2.781
 1663SOL    HW2 6448   2.410   1.489   2.730
 1664SOL     OW 6449   2.864   0.796   3.100
 1664SOL    HW1 6450   2.905   0.764   3.186
 1664SOL    HW2 6451   2.768   0.769   3.097
 1665SOL     OW 6452   1.902   0.544   2.976
 1665SOL    HW1 6453   1.987   0.511   2.935
 1665SOL    HW2 6454   1.915   0.559   3.074
 1666SOL     OW 6455   2.051   0.520   3.584
 1666SOL    HW1 6456   2.110   0.480   3.514
 1666SOL    HW2 6457   1.993   0.591   3.543
 1667SOL     OW 6458   2.677   0.572   2.187
 1667SOL    HW1 6459   2.684   0.483   2.141
 1667SOL    HW2 6460   2.583   0.606   2.179
 1668SOL     OW 6461   3.519   0.604   3.068
 1668SOL    HW1 6462   3.481   0.535   3.130
 1668SOL    HW2 6463   3.601   0.568   3.024
 1669SOL     OW 6464   2.114   1.564   3.606
 1669SOL    HW1 6465   2.084   1.621   3.682
 1669SOL    HW2 6466   2.107   1.467   3.632
 1670SOL     OW 6467   2.533   0.464   3.131
 1670SOL    HW1 6468   2.499   0.375   3.101
 1670SOL    HW2 6469   2.559   0.518   3.051
 1671SOL     OW 6470   2.792   1.678   3.327
 1671SOL    HW1 6471   2.768   1.660   3.232
 1671SOL    HW2 6472   2.822   1.772   3.337
 1672SOL     OW 6473   2.021   1.137   3.328
 1672SOL    HW1 6474   2.043   1.076   3.404
 1672SOL    HW2 6475   2.031   1.088   3.242
 1673SOL     OW 6476   3.209   1.059   3.096
 1673SOL    HW1 6477   3.233   0.996   3.022
 1673SOL    HW2 6478   3.119   1.099   3.078
 1674SOL     OW 6479   3.164   0.855   2.171
 1674SOL    HW1 6480   3.078   0.824   2.213
 1674SOL    HW2 6481   3.160   0.841   2.072
 1675SOL     OW 6482   3.621   1.747   3.016
 1675SOL    HW1 6483   3.682   1.777   2.943
 1675SOL    HW2 6484   3.583   1.658   2.994
 1676SOL     OW 6485   3.114   1.731   2.990
 1676SOL    HW1 6486   3.198   1.736   2.936
 1676SOL    HW2 6487   3.091   1.635   3.008
 1677SOL     OW 6488   1.945   1.258   2.884
 1677SOL    HW1 6489   1.940   1.257   2.984
 1677SOL    HW2 6490   1.862   1.217   2.846
 1678SOL     OW 6491   2.550   1.662   3.578
 1678SOL    HW1 6492   2.494   1.743   3.587
 1678SOL    HW2 6493   2.602   1.666   3.492
 1679SOL     OW 6494   3.588   0.135   2.385
 1679SOL    HW1 6495   3.661   0.118   2.318
 1679SOL    HW2 6496   3.557   0.048   2.423
 1680SOL     OW 6497   3.250   1.573   2.339
 1680SOL    HW1 6498   3.317   1.585   2.265
 1680SOL    HW2 6499   3.210   1.662   2.362
 1681SOL     OW 6500   1.992   1.794   3.713
 1681SOL    HW1 6501   1.951   1.720   3.766
 1681SOL    HW2 6502   2.056   1.845   3.771
 1682SOL     OW 6503   3.142   0.927   2.534
 1682SOL    HW1 6504   3.202   0.846   2.536
 1682SOL    HW2 6505   3.182   0.996   2.474
 1683SOL     OW 6506   2.692   1.273   3.284
 1683SOL    HW1 6507   2.687   1.306   3.379
 1683SOL    HW2 6508   2.606   1.292   3.238
 1684SOL     OW 6509   2.534   1.616   2.016
 1684SOL    HW1 6510   2.543   1.626   1.917
 1684SOL    HW2 6511   2.494   1.527   2.037
 1685SOL     OW 6512   3.512   1.720   3.256
 1685SOL    HW1 6513   3.565   1.730   3.172
 1685SOL    HW2 6514   3.485   1.810   3.290
 1686SOL     OW 6515   3.703   0.175   2.825
 1686SOL    HW1 6516   3.742   0.090   2.789
 1686SOL    HW2 6517   3.605   0.177   2.806
 1687SOL     OW 6518   3.056   1.612   1.893
 1687SOL    HW1 6519   3.062   1.519   1.930
 1687SOL    HW2 6520   2.997   1.612   1.813
 1688SOL     OW 6521   2.684   1.002   3.234
 1688SOL    HW1 6522   2.724   1.001   3.142
 1688SOL    HW2 6523   2.694   1.094   3.274
 1689SOL     OW 6524   3.366   1.607   1.906
 1689SOL    HW1 6525   3.274   1.644   1.913
 1689SOL    HW2 6526   3.404   1.627   1.816
 1690SOL     OW 6527   2.234   1.288   3.352
 1690SOL    HW1 6528   2.221   1.381   3.318
 1690SOL    HW2 6529   2.150   1.236   3.339
 1691SOL     OW 6530   3.476   1.292   3.151
 1691SOL    HW1 6531   3.536   1.295   3.231
 1691SOL    HW2 6532   3.401   1.356   3.164
 1692SOL     OW 6533   2.901   1.098   2.558
 1692SOL    HW1 6534   2.831   1.051   2.612
 1692SOL    HW2 6535   2.960   1.030   2.515
 1693SOL     OW 6536   2.452   1.487   2.353
 1693SOL    HW1 6537   2.494   1.429   2.283
 1693SOL    HW2 6538   2.408   1.566   2.309
 1694SOL     OW 6539   2.117   1.348   2.152
 1694SOL    HW1 6540   2.021   1.349   2.125
 1694SOL    HW2 6541   2.129   1.401   2.236
 1695SOL     OW 6542   1.967   1.013   3.588
 1695SOL    HW1 6543   1.890   0.980   3.642
 1695SOL    HW2 6544   2.052   0.983   3.630
 1696SOL     OW 6545   2.534   0.203   3.351
 1696SOL    HW1 6546   2.624   0.187   3.311
 1696SOL    HW2 6547   2.542   0.208   3.450
 1697SOL     OW 6548   3.302   0.856   3.260
 1697SOL    HW1 6549   3.245   0.908   3.197
 1697SOL    HW2 6550   3.398   0.868   3.236
 1698SOL     OW 6551   3.045   1.335   1.981
 1698SOL    HW1 6552   2.946   1.324   1.983
 1698SOL    HW2 6553   3.079   1.350   2.074
 1699SOL     OW 6554   2.475   0.842   3.293
 1699SOL    HW1 6555   2.531   0.923   3.276
 1699SOL    HW2 6556   2.534   0.762   3.296
 1700SOL     OW 6557   3.355   1.767   2.821
 1700SOL    HW1 6558   3.388   1.831   2.752
 1700SOL    HW2 6559   3.421   1.761   2.896
 1701SOL     OW 6560   2.578   0.565   3.570
 1701SOL    HW1 6561   2.597   0.630   3.644
 1701SOL    HW2 6562   2.638   0.485   3.579
 1702SOL     OW 6563   2.252   1.741   3.422
 1702SOL    HW1 6564   2.161   1.782   3.420
 1702SOL    HW2 6565   2.245   1.647   3.454
 1703SOL     OW 6566   3.536   0.883   3.116
 1703SOL    HW1 6567   3.509   0.794   3.079
 1703SOL    HW2 6568   3.537   0.951   3.043
 1704SOL     OW 6569   3.087   0.325   2.311
 1704SOL    HW1 6570   3.152   0.251   2.300
 1704SOL    HW2 6571   3.107   0.375   2.395
 1705SOL     OW 6572   2.456   0.745   2.514
 1705SOL    HW1 6573   2.506   0.830   2.495
 1705SOL    HW2 6574   2.368   0.747   2.466
 1706SOL     OW 6575   3.592   0.934   3.379
 1706SOL    HW1 6576   3.630   1.025   3.394
 1706SOL    HW2 6577   3.584   0.917   3.280
 1707SOL     OW 6578   2.721   1.374   1.878
 1707SOL    HW1 6579   2.675   1.389   1.966
 1707SOL    HW2 6580   2.765   1.459   1.848
 1708SOL     OW 6581   2.523   1.790   2.815
 1708SOL    HW1 6582   2.477   1.878   2.802
 1708SOL    HW2 6583   2.622   1.802   2.808
 1709SOL     OW 6584   2.721   0.956   2.723
 1709SOL    HW1 6585   2.775   0.887   2.771
 1709SOL    HW2 6586   2.689   1.025   2.789
 1710SOL     OW 6587   3.723   1.569   2.713
 1710SOL    HW1 6588   3.652   1.557   2.643
 1710SOL    HW2 6589   3.724   1.490   2.773
 1711SOL     OW 6590   2.083   1.314   3.706
 1711SOL    HW1 6591   2.018   1.241   3.685
 1711SOL    HW2 6592   2.087   1.328   3.804
 1712SOL     OW 6593   1.941   1.240   2.515
 1712SOL    HW1 6594   1.940   1.193   2.603
 1712SOL    HW2 6595   2.023   1.212   2.464
 1713SOL     OW 6596   2.534   1.391   3.486
 1713SOL    HW1 6597   2.456   1.341   3.524
 1713SOL    HW2 6598   2.531   1.486   3.517
 1714SOL     OW 6599   3.686   0.192   3.089
 1714SOL    HW1 6600   3.682   0.102   3.133
 1714SOL    HW2 6601   3.689   0.181   2.990
 1715SOL     OW 6602   3.567   1.487   2.966
 1715SOL    HW1 6603   3.474   1.462   2.939
 1715SOL    HW2 6604   3.593   1.437   3.048
 1716SOL     OW 6605   2.179   0.547   3.142
 1716SOL    HW1 6606   2.217   0.488   3.214
 1716SOL    HW2 6607   2.219   0.521   3.054
 1717SOL     OW 6608   2.674   1.586   2.549
 1717SOL    HW1 6609   2.706   1.596   2.455
 1717SOL    HW2 6610   2.595   1.524   2.551
 1718SOL     OW 6611   2.632   1.330   2.163
 1718SOL    HW1 6612   2.586   1.243   2.180
 1718SOL    HW2 6613   2.723   1.327   2.204
 1719SOL     OW 6614   2.480   1.567   3.146
 1719SOL    HW1 6615   2.475   1.649   3.203
 1719SOL    HW2 6616   2.569   1.564   3.101
 1720SOL     OW 6617   3.214   0.052   2.030
 1720SOL    HW1 6618   3.249   0.011   1.946
 1720SOL    HW2 6619   3.124   0.014   2.050
 1721SOL     OW 6620   3.162   0.453   2.553
 1721SOL    HW1 6621   3.103   0.533   2.557
 1721SOL    HW2 6622   3.177   0.418   2.646
 1722SOL     OW 6623   3.455   0.221   2.744
 1722SOL    HW1 6624   3.371   0.220   2.798
 1722SOL    HW2 6625   3.457   0.304   2.688
 1723SOL     OW 6626   1.901   1.077   2.162
 1723SOL    HW1 6627   2.000   1.066   2.153
 1723SOL    HW2 6628   1.861   0.991   2.194
 1724SOL     OW 6629   2.737   1.646   2.199
 1724SOL    HW1 6630   2.660   1.611   2.145
 1724SOL    HW2 6631   2.705   1.717   2.261
 1725SOL     OW 6632   2.092   0.628   3.837
 1725SOL    HW1 6633   1.999   0.626   3.874
 1725SOL    HW2 6634   2.093   0.589   3.745
 1726SOL     OW 6635   2.087   0.275   4.720
 1726SOL    HW1 6636   2.122   0.258   4.812
 1726SOL    HW2 6637   1.999   0.230   4.708
 1727SOL     OW 6638   1.881   0.368   4.371
 1727SOL    HW1 6639   1.799   0.411   4.410
 1727SOL    HW2 6640   1.853   0.295   4.308
 1728SOL     OW 6641   3.417   1.511   4.427
 1728SOL    HW1 6642   3.360   1.495   4.508
 1728SOL    HW2 6643   3.358   1.521   4.347
 1729SOL     OW 6644   2.997   0.703   4.441
 1729SOL    HW1 6645   3.054   0.781   4.416
 1729SOL    HW2 6646   2.937   0.729   4.517
 1730SOL     OW 6647   3.617   0.607   3.955
 1730SOL    HW1 6648   3.605   0.594   3.856
 1730SOL    HW2 6649   3.587   0.526   4.004
 1731SOL     OW 6650   2.630   1.144   4.747
 1731SOL    HW1 6651   2.552   1.161   4.807
 1731SOL    HW2 6652   2.664   1.231   4.711
 1732SOL     OW 6653   3.465   0.447   4.461
 1732SOL    HW1 6654   3.391   0.493   4.411
 1732SOL    HW2 6655   3.516   0.515   4.514
 1733SOL     OW 6656   2.093   1.713   4.207
 1733SOL    HW1 6657   2.127   1.790   4.261
 1733SOL    HW2 6658   2.137   1.713   4.117
 1734SOL     OW 6659   2.092   1.434   4.262
 1734SOL    HW1 6660   2.066   1.530   4.262
 1734SOL    HW2 6661   2.021   1.380   4.307
 1735SOL     OW 6662   2.102   1.091   4.610
 1735SOL    HW1 6663   2.116   1.007   4.662
 1735SOL    HW2 6664   2.047   1.155   4.665
 1736SOL     OW 6665   2.468   0.964   3.847
 1736SOL    HW1 6666   2.475   1.048   3.793
 1736SOL    HW2 6667   2.514   0.977   3.935
 1737SOL     OW 6668   1.984   0.643   4.287
 1737SOL    HW1 6669   1.939   0.555   4.304
 1737SOL    HW2 6670   1.983   0.697   4.371
 1738SOL     OW 6671   3.704   1.767   4.083
 1738SOL    HW1 6672   3.758   1.738   4.163
 1738SOL    HW2 6673   3.734   1.857   4.054
 1739SOL     OW 6674   1.889   1.596   3.841
 1739SOL    HW1 6675   1.870   1.500   3.862
 1739SOL    HW2 6676   1.856   1.654   3.916
 1740SOL     OW 6677   3.551   0.922   4.336
 1740SOL    HW1 6678   3.646   0.893   4.344
 1740SOL    HW2 6679   3.543   0.987   4.261
 1741SOL     OW 6680   3.503   1.108   4.156
 1741SOL    HW1 6681   3.589   1.110   4.104
 1741SOL    HW2 6682   3.517   1.155   4.244
 1742SOL     OW 6683   2.671   0.004   4.226
 1742SOL    HW1 6684   2.711   0.095   4.217
 1742SOL    HW2 6685   2.571   0.012   4.232
 1743SOL     OW 6686   2.059   0.976   4.988
 1743SOL    HW1 6687   2.148   0.931   4.974
 1743SOL    HW2 6688   1.986   0.911   4.969
 1744SOL     OW 6689   3.328   1.417   4.677
 1744SOL    HW1 6690   3.269   1.423   4.757
 1744SOL    HW2 6691   3.313   1.329   4.631
 1745SOL     OW 6692   3.529   1.714   4.296
 1745SOL    HW1 6693   3.488   1.691   4.208
 1745SOL    HW2 6694   3.511   1.640   4.361
 1746SOL     OW 6695   2.460   0.729   3.994
 1746SOL    HW1 6696   2.484   0.798   3.926
 1746SOL    HW2 6697   2.382   0.762   4.048
 1747SOL     OW 6698   3.143   0.345   4.668
 1747SOL    HW1 6699   3.057   0.295   4.655
 1747SOL    HW2 6700   3.205   0.291   4.724
 1748SOL     OW 6701   2.853   0.410   4.966
 1748SOL    HW1 6702   2.776   0.444   5.020
 1748SOL    HW2 6703   2.819   0.359   4.887
 1749SOL     OW 6704   2.903   0.701   4.153
 1749SOL    HW1 6705   2.929   0.697   4.249
 1749SOL    HW2 6706   2.818   0.650   4.139
 1750SOL     OW 6707   1.938   0.811   4.513
 1750SOL    HW1 6708   2.037   0.799   4.522
 1750SOL    HW2 6709   1.914   0.906   4.534
 1751SOL     OW 6710   2.727   0.348   3.919
 1751SOL    HW1 6711   2.786   0.411   3.870
 1751SOL    HW2 6712   2.746   0.254   3.890
 1752SOL     OW 6713   3.224   1.144   4.269
 1752SOL    HW1 6714   3.307   1.115   4.221
 1752SOL    HW2 6715   3.175   1.211   4.213
 1753SOL     OW 6716   2.412   0.196   4.609
 1753SOL    HW1 6717   2.407   0.191   4.709
 1753SOL    HW2 6718   2.414   0.292   4.580
 1754SOL     OW 6719   3.657   1.066   4.597
 1754SOL    HW1 6720   3.595   1.051   4.521
 1754SOL    HW2 6721   3.605   1.077   4.682
 1755SOL     OW 6722   2.183   0.943   3.966
 1755SOL    HW1 6723   2.265   0.982   3.924
 1755SOL    HW2 6724   2.156   0.861   3.917
 1756SOL     OW 6725   3.320   0.735   4.452
 1756SOL    HW1 6726   3.315   0.670   4.527
 1756SOL    HW2 6727   3.400   0.794   4.465
 1757SOL     OW 6728   2.973   1.776   3.961
 1757SOL    HW1 6729   2.913   1.714   4.011
 1757SOL    HW2 6730   3.004   1.732   3.876
 1758SOL     OW 6731   2.326   1.743   4.047
 1758SOL    HW1 6732   2.359   1.782   4.133
 1758SOL    HW2 6733   2.402   1.736   3.982
 1759SOL     OW 6734   2.111   1.785   4.965
 1759SOL    HW1 6735   2.168   1.720   5.015
 1759SOL    HW2 6736   2.095   1.752   4.872
 1760SOL     OW 6737   2.244   0.700   4.204
 1760SOL    HW1 6738   2.289   0.610   4.201
 1760SOL    HW2 6739   2.150   0.689   4.237
 1761SOL     OW 6740   2.476   0.122   3.841
 1761SOL    HW1 6741   2.574   0.100   3.848
 1761SOL    HW2 6742   2.445   0.105   3.748
 1762SOL     OW 6743   2.784   0.503   4.623
 1762SOL    HW1 6744   2.759   0.494   4.527
 1762SOL    HW2 6745   2.832   0.421   4.654
 1763SOL     OW 6746   2.401   0.064   4.236
 1763SOL    HW1 6747   2.320   0.065   4.294
 1763SOL    HW2 6748   2.404   0.147   4.181
 1764SOL     OW 6749   2.159   0.035   3.895
 1764SOL    HW1 6750   2.208   0.119   3.874
 1764SOL    HW2 6751   2.221  -0.030   3.940
 1765SOL     OW 6752   2.797   0.236   4.204
 1765SOL    HW1 6753   2.749   0.277   4.126
 1765SOL    HW2 6754   2.896   0.234   4.185
 1766SOL     OW 6755   3.089   1.570   4.517
 1766SOL    HW1 6756   3.110   1.644   4.452
 1766SOL    HW2 6757   3.157   1.570   4.590
 1767SOL     OW 6758   3.133   1.797   4.315
 1767SOL    HW1 6759   3.177   1.861   4.251
 1767SOL    HW2 6760   3.083   1.849   4.385
 1768SOL     OW 6761   2.894   0.549   3.740
 1768SOL    HW1 6762   2.853   0.631   3.701
 1768SOL    HW2 6763   2.958   0.575   3.813
 1769SOL     OW 6764   2.423   0.222   4.871
 1769SOL    HW1 6765   2.461   0.138   4.908
 1769SOL    HW2 6766   2.335   0.241   4.915
 1770SOL     OW 6767   2.728   0.454   4.366
 1770SOL    HW1 6768   2.696   0.526   4.304
 1770SOL    HW2 6769   2.752   0.373   4.313
 1771SOL     OW 6770   2.879   0.039   4.477
 1771SOL    HW1 6771   2.807   0.044   4.408
 1771SOL    HW2 6772   2.855  -0.030   4.546
 1772SOL     OW 6773   3.291   1.173   4.591
 1772SOL    HW1 6774   3.236   1.089   4.584
 1772SOL    HW2 6775   3.317   1.202   4.499
 1773SOL     OW 6776   3.328   0.590   4.716
 1773SOL    HW1 6777   3.298   0.495   4.723
 1773SOL    HW2 6778   3.401   0.606   4.782
 1774SOL     OW 6779   3.719   0.833   4.101
 1774SOL    HW1 6780   3.761   0.769   4.165
 1774SOL    HW2 6781   3.681   0.782   4.023
 1775SOL     OW 6782   2.350   1.385   3.898
 1775SOL    HW1 6783   2.263   1.370   3.945
 1775SOL    HW2 6784   2.333   1.411   3.803
 1776SOL     OW 6785   3.526   1.280   4.381
 1776SOL    HW1 6786   3.625   1.288   4.395
 1776SOL    HW2 6787   3.481   1.364   4.412
 1777SOL     OW 6788   3.252   0.575   3.802
 1777SOL    HW1 6789   3.198   0.554   3.883
 1777SOL    HW2 6790   3.343   0.534   3.811
 1778SOL     OW 6791   2.389   0.256   4.052
 1778SOL    HW1 6792   2.416   0.197   3.977
 1778SOL    HW2 6793   2.389   0.351   4.021
 1779SOL     OW 6794   2.973   1.195   4.824
 1779SOL    HW1 6795   2.933   1.239   4.905
 1779SOL    HW2 6796   2.932   1.232   4.741
 1780SOL     OW 6797   3.500   1.099   4.803
 1780SOL    HW1 6798   3.505   1.180   4.862
 1780SOL    HW2 6799   3.414   1.101   4.752
 1781SOL     OW 6800   2.567   1.050   4.092
 1781SOL    HW1 6801   2.553   1.057   4.191
 1781SOL    HW2 6802   2.651   0.999   4.074
 1782SOL     OW 6803   2.272   0.813   4.975
 1782SOL    HW1 6804   2.358   0.825   5.025
 1782SOL    HW2 6805   2.230   0.726   5.002
 1783SOL     OW 6806   2.229   1.100   4.225
 1783SOL    HW1 6807   2.222   1.183   4.169
 1783SOL    HW2 6808   2.233   1.020   4.165
 1784SOL     OW 6809   2.428   0.537   4.589
 1784SOL    HW1 6810   2.440   0.603   4.515
 1784SOL    HW2 6811   2.474   0.571   4.672
 1785SOL     OW 6812   3.134   1.445   4.866
 1785SOL    HW1 6813   3.181   1.458   4.953
 1785SOL    HW2 6814   3.068   1.371   4.875
 1786SOL     OW 6815   3.444   0.639   4.196
 1786SOL    HW1 6816   3.413   0.700   4.269
 1786SOL    HW2 6817   3.494   0.691   4.127
 1787SOL     OW 6818   2.435   0.870   4.753
 1787SOL    HW1 6819   2.479   0.959   4.744
 1787SOL    HW2 6820   2.372   0.870   4.830
 1788SOL     OW 6821   3.222   0.862   4.769
 1788SOL    HW1 6822   3.147   0.862   4.703
 1788SOL    HW2 6823   3.259   0.770   4.778
 1789SOL     OW 6824   3.071   0.525   3.999
 1789SOL    HW1 6825   3.084   0.441   4.053
 1789SOL    HW2 6826   3.042   0.599   4.059
 1790SOL     OW 6827   2.169   0.213   4.955
 1790SOL    HW1 6828   2.146   0.250   5.045
 1790SOL    HW2 6829   2.139   0.118   4.949
 1791SOL     OW 6830   1.899   1.310   5.006
 1791SOL    HW1 6831   1.952   1.261   5.074
 1791SOL    HW2 6832   1.921   1.408   5.011
 1792SOL     OW 6833   2.594   0.634   4.788
 1792SOL    HW1 6834   2.653   0.608   4.712
 1792SOL    HW2 6835   2.566   0.730   4.777
 1793SOL     OW 6836   2.169   0.063   4.342
 1793SOL    HW1 6837   2.158   0.157   4.375
 1793SOL    HW2 6838   2.164   0.000   4.419
 1794SOL     OW 6839   3.484   0.367   4.098
 1794SOL    HW1 6840   3.486   0.291   4.162
 1794SOL    HW2 6841   3.436   0.444   4.138
 1795SOL     OW 6842   2.885   0.766   4.690
 1795SOL    HW1 6843   2.900   0.787   4.786
 1795SOL    HW2 6844   2.855   0.671   4.681
 1796SOL     OW 6845   3.165   0.838   3.766
 1796SOL    HW1 6846   3.199   0.745   3.781
 1796SOL    HW2 6847   3.183   0.865   3.671
 1797SOL     OW 6848   2.930   1.333   4.573
 1797SOL    HW1 6849   2.937   1.249   4.518
 1797SOL    HW2 6850   2.992   1.402   4.537
 1798SOL     OW 6851   2.181   0.810   4.673
 1798SOL    HW1 6852   2.274   0.846   4.678
 1798SOL    HW2 6853   2.175   0.725   4.725
 1799SOL     OW 6854   2.201   0.509   4.730
 1799SOL    HW1 6855   2.149   0.426   4.713
 1799SOL    HW2 6856   2.278   0.514   4.666
 1800SOL     OW 6857   1.870   1.326   3.924
 1800SOL    HW1 6858   1.777   1.347   3.893
 1800SOL    HW2 6859   1.880   1.227   3.937
 1801SOL     OW 6860   1.950   1.801   4.651
 1801SOL    HW1 6861   1.908   1.715   4.624
 1801SOL    HW2 6862   2.044   1.804   4.617
 1802SOL     OW 6863   2.864   0.796   4.962
 1802SOL    HW1 6864   2.905   0.764   5.048
 1802SOL    HW2 6865   2.768   0.769   4.959
 1803SOL     OW 6866   1.902   0.544   4.838
 1803SOL    HW1 6867   1.987   0.511   4.797
 1803SOL    HW2 6868   1.915   0.559   4.936
 1804SOL     OW 6869   2.677   0.572   4.049
 1804SOL    HW1 6870   2.684   0.483   4.003
 1804SOL    HW2 6871   2.583   0.606   4.041
 1805SOL     OW 6872   3.519   0.604   4.930
 1805SOL    HW1 6873   3.481   0.535   4.992
 1805SOL    HW2 6874   3.601   0.568   4.886
 1806SOL     OW 6875   2.533   0.464   4.993
 1806SOL    HW1 6876   2.499   0.375   4.963
 1806SOL    HW2 6877   2.559   0.518   4.913
 1807SOL     OW 6878   2.792   1.678   5.189
 1807SOL    HW1 6879   2.768   1.660   5.094
 1807SOL    HW2 6880   2.822   1.772   5.199
 1808SOL     OW 6881   2.335   0.500   3.915
 1808SOL    HW1 6882   2.396   0.580   3.919
 1808SOL    HW2 6883   2.240   0.531   3.922
 1809SOL     OW 6884   3.209   1.059   4.958
 1809SOL    HW1 6885   3.233   0.996   4.884
 1809SOL    HW2 6886   3.119   1.099   4.940
 1810SOL     OW 6887   3.164   0.855   4.033
 1810SOL    HW1 6888   3.078   0.824   4.075
 1810SOL    HW2 6889   3.160   0.841   3.934
 1811SOL     OW 6890   3.621   1.747   4.878
 1811SOL    HW1 6891   3.682   1.777   4.805
 1811SOL    HW2 6892   3.583   1.658   4.856
 1812SOL     OW 6893   3.114   1.731   4.852
 1812SOL    HW1 6894   3.198   1.736   4.798
 1812SOL    HW2 6895   3.091   1.635   4.870
 1813SOL     OW 6896   1.945   1.258   4.746
 1813SOL    HW1 6897   1.940   1.257   4.846
 1813SOL    HW2 6898   1.862   1.217   4.708
 1814SOL     OW 6899   3.588   0.135   4.247
 1814SOL    HW1 6900   3.661   0.118   4.180
 1814SOL    HW2 6901   3.557   0.048   4.285
 1815SOL     OW 6902   3.250   1.573   4.201
 1815SOL    HW1 6903   3.317   1.585   4.127
 1815SOL    HW2 6904   3.210   1.662   4.224
 1816SOL     OW 6905   3.142   0.927   4.396
 1816SOL    HW1 6906   3.202   0.846   4.398
 1816SOL    HW2 6907   3.182   0.996   4.336
 1817SOL     OW 6908   2.534   1.616   3.878
 1817SOL    HW1 6909   2.543   1.626   3.779
 1817SOL    HW2 6910   2.494   1.527   3.899
 1818SOL     OW 6911   3.512   1.720   5.118
 1818SOL    HW1 6912   3.565   1.730   5.034
 1818SOL    HW2 6913   3.485   1.810   5.152
 1819SOL     OW 6914   3.703   0.175   4.687
 1819SOL    HW1 6915   3.742   0.090   4.651
 1819SOL    HW2 6916   3.605   0.177   4.668
 1820SOL     OW 6917   2.125   0.326   4.444
 1820SOL    HW1 6918   2.046   0.377   4.410
 1820SOL    HW2 6919   2.116   0.311   4.542
 1821SOL     OW 6920   3.056   1.612   3.755
 1821SOL    HW1 6921   3.062   1.519   3.792
 1821SOL    HW2 6922   2.997   1.612   3.675
 1822SOL     OW 6923   2.684   1.002   5.096
 1822SOL    HW1 6924   2.724   1.001   5.004
 1822SOL    HW2 6925   2.694   1.094   5.136
 1823SOL     OW 6926   2.778   0.910   4.015
 1823SOL    HW1 6927   2.841   0.948   3.947
 1823SOL    HW2 6928   2.818   0.827   4.054
 1824SOL     OW 6929   2.901   1.098   4.420
 1824SOL    HW1 6930   2.831   1.051   4.474
 1824SOL    HW2 6931   2.960   1.030   4.377
 1825SOL     OW 6932   2.876   0.236   4.695
 1825SOL    HW1 6933   2.868   0.200   4.602
 1825SOL    HW2 6934   2.874   0.160   4.760
 1826SOL     OW 6935   2.452   1.487   4.215
 1826SOL    HW1 6936   2.494   1.429   4.145
 1826SOL    HW2 6937   2.408   1.566   4.171
 1827SOL     OW 6938   3.571   0.385   5.105
 1827SOL    HW1 6939   3.644   0.454   5.109
 1827SOL    HW2 6940   3.599   0.310   5.046
 1828SOL     OW 6941   2.117   1.348   4.014
 1828SOL    HW1 6942   2.021   1.349   3.987
 1828SOL    HW2 6943   2.129   1.401   4.098
 1829SOL     OW 6944   1.937   0.345   3.757
 1829SOL    HW1 6945   1.845   0.317   3.728
 1829SOL    HW2 6946   1.968   0.422   3.701
 1830SOL     OW 6947   1.934   0.166   4.042
 1830SOL    HW1 6948   1.917   0.249   3.988
 1830SOL    HW2 6949   2.024   0.129   4.020
 1831SOL     OW 6950   3.355   1.767   4.683
 1831SOL    HW1 6951   3.388   1.831   4.614
 1831SOL    HW2 6952   3.421   1.761   4.758
 1832SOL     OW 6953   3.312   1.220   5.357
 1832SOL    HW1 6954   3.303   1.210   5.456
 1832SOL    HW2 6955   3.408   1.213   5.331
 1833SOL     OW 6956   3.536   0.883   4.978
 1833SOL    HW1 6957   3.509   0.794   4.941
 1833SOL    HW2 6958   3.537   0.951   4.905
 1834SOL     OW 6959   3.087   0.325   4.173
 1834SOL    HW1 6960   3.152   0.251   4.162
 1834SOL    HW2 6961   3.107   0.375   4.257
 1835SOL     OW 6962   2.456   0.745   4.376
 1835SOL    HW1 6963   2.506   0.830   4.357
 1835SOL    HW2 6964   2.368   0.747   4.328
 1836SOL     OW 6965   3.592   0.934   5.241
 1836SOL    HW1 6966   3.630   1.025   5.256
 1836SOL    HW2 6967   3.584   0.917   5.142
 1837SOL     OW 6968   2.523   1.790   4.677
 1837SOL    HW1 6969   2.477   1.878   4.664
 1837SOL    HW2 6970   2.622   1.802   4.670
 1838SOL     OW 6971   2.721   0.956   4.585
 1838SOL    HW1 6972   2.775   0.887   4.633
 1838SOL    HW2 6973   2.689   1.025   4.651
 1839SOL     OW 6974   2.945   0.984   3.811
 1839SOL    HW1 6975   2.922   1.037   3.729
 1839SOL    HW2 6976   3.026   0.928   3.792
 1840SOL     OW 6977   3.723   1.569   4.575
 1840SOL    HW1 6978   3.652   1.557   4.505
 1840SOL    HW2 6979   3.724   1.490   4.635
 1841SOL     OW 6980   1.941   1.240   4.377
 1841SOL    HW1 6981   1.940   1.193   4.465
 1841SOL    HW2 6982   2.023   1.212   4.326
 1842SOL     OW 6983   3.686   0.192   4.951
 1842SOL    HW1 6984   3.682   0.102   4.995
 1842SOL    HW2 6985   3.689   0.181   4.852
 1843SOL     OW 6986   2.290   0.424   4.244
 1843SOL    HW1 6987   2.320   0.352   4.182
 1843SOL    HW2 6988   2.251   0.384   4.327
 1844SOL     OW 6989   3.567   1.487   4.828
 1844SOL    HW1 6990   3.474   1.462   4.801
 1844SOL    HW2 6991   3.593   1.437   4.910
 1845SOL     OW 6992   3.286   0.214   4.836
 1845SOL    HW1 6993   3.338   0.149   4.891
 1845SOL    HW2 6994   3.237   0.277   4.897
 1846SOL     OW 6995   2.863   0.034   4.878
 1846SOL    HW1 6996   2.800  -0.038   4.847
 1846SOL    HW2 6997   2.956  -0.002   4.878
 1847SOL     OW 6998   3.162   0.453   4.415
 1847SOL    HW1 6999   3.103   0.533   4.419
 1847SOL    HW2 7000   3.177   0.418   4.508
 1848SOL     OW 7001   3.455   0.221   4.606
 1848SOL    HW1 7002   3.371   0.220   4.660
 1848SOL    HW2 7003   3.457   0.304   4.550
 1849SOL     OW 7004   1.901   1.077   4.024
 1849SOL    HW1 7005   2.000   1.066   4.015
 1849SOL    HW2 7006   1.861   0.991   4.056
 1850SOL     OW 7007   2.737   1.646   4.061
 1850SOL    HW1 7008   2.660   1.611   4.007
 1850SOL    HW2 7009   2.705   1.717   4.123
 1851SOL     OW 7010   2.092   2.490   0.113
 1851SOL    HW1 7011   1.999   2.488   0.150
 1851SOL    HW2 7012   2.093   2.451   0.021
 1852SOL     OW 7013   2.087   2.137   0.996
 1852SOL    HW1 7014   2.122   2.120   1.088
 1852SOL    HW2 7015   1.999   2.092   0.984
 1853SOL     OW 7016   1.881   2.230   0.647
 1853SOL    HW1 7017   1.799   2.273   0.686
 1853SOL    HW2 7018   1.853   2.157   0.584
 1854SOL     OW 7019   2.431   3.137   1.165
 1854SOL    HW1 7020   2.338   3.130   1.128
 1854SOL    HW2 7021   2.442   3.226   1.209
 1855SOL     OW 7022   2.997   2.565   0.717
 1855SOL    HW1 7023   3.054   2.643   0.692
 1855SOL    HW2 7024   2.937   2.591   0.793
 1856SOL     OW 7025   2.630   3.006   1.023
 1856SOL    HW1 7026   2.552   3.023   1.083
 1856SOL    HW2 7027   2.664   3.093   0.987
 1857SOL     OW 7028   2.712   2.660   1.823
 1857SOL    HW1 7029   2.708   2.736   1.888
 1857SOL    HW2 7030   2.734   2.696   1.732
 1858SOL     OW 7031   2.548   3.023   1.803
 1858SOL    HW1 7032   2.608   3.102   1.817
 1858SOL    HW2 7033   2.462   3.054   1.762
 1859SOL     OW 7034   2.197   3.297   1.061
 1859SOL    HW1 7035   2.119   3.266   1.008
 1859SOL    HW2 7036   2.255   3.355   1.004
 1860SOL     OW 7037   3.322   3.367   1.339
 1860SOL    HW1 7038   3.346   3.461   1.365
 1860SOL    HW2 7039   3.306   3.313   1.421
 1861SOL     OW 7040   3.465   2.309   0.737
 1861SOL    HW1 7041   3.391   2.355   0.687
 1861SOL    HW2 7042   3.516   2.377   0.790
 1862SOL     OW 7043   2.989   3.203   1.690
 1862SOL    HW1 7044   3.036   3.203   1.778
 1862SOL    HW2 7045   2.941   3.116   1.679
 1863SOL     OW 7046   2.092   3.296   0.538
 1863SOL    HW1 7047   2.066   3.392   0.538
 1863SOL    HW2 7048   2.021   3.242   0.583
 1864SOL     OW 7049   2.468   2.826   0.123
 1864SOL    HW1 7050   2.475   2.910   0.069
 1864SOL    HW2 7051   2.514   2.839   0.211
 1865SOL     OW 7052   3.551   2.784   0.612
 1865SOL    HW1 7053   3.646   2.755   0.620
 1865SOL    HW2 7054   3.543   2.849   0.537
 1866SOL     OW 7055   3.503   2.970   0.432
 1866SOL    HW1 7056   3.589   2.972   0.380
 1866SOL    HW2 7057   3.517   3.017   0.520
 1867SOL     OW 7058   2.475   3.227   0.726
 1867SOL    HW1 7059   2.426   3.140   0.735
 1867SOL    HW2 7060   2.452   3.270   0.639
 1868SOL     OW 7061   3.155   3.090   1.423
 1868SOL    HW1 7062   3.192   3.017   1.365
 1868SOL    HW2 7063   3.207   3.095   1.508
 1869SOL     OW 7064   2.671   1.866   0.502
 1869SOL    HW1 7065   2.711   1.957   0.493
 1869SOL    HW2 7066   2.571   1.874   0.508
 1870SOL     OW 7067   2.059   2.838   1.264
 1870SOL    HW1 7068   2.148   2.793   1.250
 1870SOL    HW2 7069   1.986   2.773   1.245
 1871SOL     OW 7070   3.049   3.654   1.616
 1871SOL    HW1 7071   3.073   3.714   1.540
 1871SOL    HW2 7072   3.056   3.559   1.586
 1872SOL     OW 7073   2.179   2.113   1.801
 1872SOL    HW1 7074   2.250   2.184   1.807
 1872SOL    HW2 7075   2.091   2.152   1.829
 1873SOL     OW 7076   2.460   2.591   0.270
 1873SOL    HW1 7077   2.484   2.660   0.202
 1873SOL    HW2 7078   2.382   2.624   0.324
 1874SOL     OW 7079   3.143   2.207   0.944
 1874SOL    HW1 7080   3.057   2.157   0.931
 1874SOL    HW2 7081   3.205   2.153   1.000
 1875SOL     OW 7082   2.669   2.467   1.465
 1875SOL    HW1 7083   2.622   2.464   1.554
 1875SOL    HW2 7084   2.618   2.412   1.399
 1876SOL     OW 7085   3.256   2.331   1.674
 1876SOL    HW1 7086   3.236   2.374   1.762
 1876SOL    HW2 7087   3.334   2.269   1.683
 1877SOL     OW 7088   2.835   2.752   1.572
 1877SOL    HW1 7089   2.881   2.668   1.543
 1877SOL    HW2 7090   2.779   2.786   1.497
 1878SOL     OW 7091   2.853   2.272   1.242
 1878SOL    HW1 7092   2.776   2.306   1.296
 1878SOL    HW2 7093   2.819   2.221   1.163
 1879SOL     OW 7094   1.938   2.673   0.789
 1879SOL    HW1 7095   2.037   2.661   0.798
 1879SOL    HW2 7096   1.914   2.768   0.810
 1880SOL     OW 7097   1.992   3.683   1.571
 1880SOL    HW1 7098   1.982   3.668   1.670
 1880SOL    HW2 7099   1.906   3.719   1.535
 1881SOL     OW 7100   3.581   2.447   1.831
 1881SOL    HW1 7101   3.555   2.536   1.795
 1881SOL    HW2 7102   3.579   2.379   1.758
 1882SOL     OW 7103   3.224   3.006   0.545
 1882SOL    HW1 7104   3.307   2.977   0.497
 1882SOL    HW2 7105   3.175   3.073   0.489
 1883SOL     OW 7106   2.412   2.058   0.885
 1883SOL    HW1 7107   2.407   2.053   0.985
 1883SOL    HW2 7108   2.414   2.154   0.856
 1884SOL     OW 7109   2.870   3.318   0.477
 1884SOL    HW1 7110   2.824   3.390   0.425
 1884SOL    HW2 7111   2.866   3.338   0.575
 1885SOL     OW 7112   2.213   3.663   0.853
 1885SOL    HW1 7113   2.263   3.577   0.859
 1885SOL    HW2 7114   2.278   3.740   0.850
 1886SOL     OW 7115   3.657   2.928   0.873
 1886SOL    HW1 7116   3.595   2.913   0.797
 1886SOL    HW2 7117   3.605   2.939   0.958
 1887SOL     OW 7118   3.089   3.412   1.506
 1887SOL    HW1 7119   3.095   3.335   1.570
 1887SOL    HW2 7120   3.037   3.386   1.426
 1888SOL     OW 7121   2.183   2.805   0.242
 1888SOL    HW1 7122   2.265   2.844   0.200
 1888SOL    HW2 7123   2.156   2.723   0.193
 1889SOL     OW 7124   3.320   2.597   0.728
 1889SOL    HW1 7125   3.315   2.532   0.803
 1889SOL    HW2 7126   3.400   2.656   0.741
 1890SOL     OW 7127   2.323   3.128   1.727
 1890SOL    HW1 7128   2.273   3.129   1.641
 1890SOL    HW2 7129   2.260   3.110   1.803
 1891SOL     OW 7130   3.494   3.239   0.081
 1891SOL    HW1 7131   3.462   3.333   0.071
 1891SOL    HW2 7132   3.418   3.176   0.069
 1892SOL     OW 7133   2.326   3.605   0.323
 1892SOL    HW1 7134   2.359   3.644   0.409
 1892SOL    HW2 7135   2.402   3.598   0.258
 1893SOL     OW 7136   3.262   1.969   0.426
 1893SOL    HW1 7137   3.238   1.932   0.336
 1893SOL    HW2 7138   3.361   1.985   0.430
 1894SOL     OW 7139   2.111   3.647   1.241
 1894SOL    HW1 7140   2.168   3.582   1.291
 1894SOL    HW2 7141   2.095   3.614   1.148
 1895SOL     OW 7142   2.802   3.560   0.904
 1895SOL    HW1 7143   2.882   3.503   0.925
 1895SOL    HW2 7144   2.753   3.520   0.827
 1896SOL     OW 7145   2.643   2.126   1.749
 1896SOL    HW1 7146   2.710   2.065   1.792
 1896SOL    HW2 7147   2.570   2.145   1.814
 1897SOL     OW 7148   2.750   3.376   1.195
 1897SOL    HW1 7149   2.727   3.351   1.101
 1897SOL    HW2 7150   2.811   3.307   1.234
 1898SOL     OW 7151   3.213   2.452   1.433
 1898SOL    HW1 7152   3.241   2.409   1.518
 1898SOL    HW2 7153   3.238   2.548   1.434
 1899SOL     OW 7154   2.665   3.264   0.924
 1899SOL    HW1 7155   2.755   3.278   0.882
 1899SOL    HW2 7156   2.594   3.266   0.853
 1900SOL     OW 7157   2.784   2.365   0.899
 1900SOL    HW1 7158   2.759   2.356   0.803
 1900SOL    HW2 7159   2.832   2.283   0.930
 1901SOL     OW 7160   2.401   1.926   0.512
 1901SOL    HW1 7161   2.320   1.927   0.570
 1901SOL    HW2 7162   2.404   2.009   0.457
 1902SOL     OW 7163   2.159   1.897   0.171
 1902SOL    HW1 7164   2.208   1.981   0.150
 1902SOL    HW2 7165   2.221   1.832   0.216
 1903SOL     OW 7166   2.938   2.545   1.464
 1903SOL    HW1 7167   2.858   2.484   1.467
 1903SOL    HW2 7168   3.019   2.492   1.440
 1904SOL     OW 7169   3.133   3.659   0.591
 1904SOL    HW1 7170   3.177   3.723   0.527
 1904SOL    HW2 7171   3.083   3.711   0.661
 1905SOL     OW 7172   2.894   2.411   0.016
 1905SOL    HW1 7173   2.853   2.493  -0.023
 1905SOL    HW2 7174   2.958   2.437   0.089
 1906SOL     OW 7175   2.423   2.084   1.147
 1906SOL    HW1 7176   2.461   2.000   1.184
 1906SOL    HW2 7177   2.335   2.103   1.191
 1907SOL     OW 7178   2.728   2.316   0.642
 1907SOL    HW1 7179   2.696   2.388   0.580
 1907SOL    HW2 7180   2.752   2.235   0.589
 1908SOL     OW 7181   2.879   1.901   0.753
 1908SOL    HW1 7182   2.807   1.906   0.684
 1908SOL    HW2 7183   2.855   1.832   0.822
 1909SOL     OW 7184   3.291   3.035   0.867
 1909SOL    HW1 7185   3.236   2.951   0.860
 1909SOL    HW2 7186   3.317   3.064   0.775
 1910SOL     OW 7187   3.328   2.452   0.992
 1910SOL    HW1 7188   3.298   2.357   0.999
 1910SOL    HW2 7189   3.401   2.468   1.058
 1911SOL     OW 7190   3.719   2.695   0.377
 1911SOL    HW1 7191   3.761   2.631   0.441
 1911SOL    HW2 7192   3.681   2.644   0.299
 1912SOL     OW 7193   2.350   3.247   0.174
 1912SOL    HW1 7194   2.263   3.232   0.221
 1912SOL    HW2 7195   2.333   3.273   0.079
 1913SOL     OW 7196   3.526   3.142   0.657
 1913SOL    HW1 7197   3.625   3.150   0.671
 1913SOL    HW2 7198   3.481   3.226   0.688
 1914SOL     OW 7199   3.252   2.437   0.078
 1914SOL    HW1 7200   3.198   2.416   0.159
 1914SOL    HW2 7201   3.343   2.396   0.087
 1915SOL     OW 7202   3.616   3.085   1.588
 1915SOL    HW1 7203   3.707   3.046   1.575
 1915SOL    HW2 7204   3.624   3.181   1.612
 1916SOL     OW 7205   2.926   3.209   1.340
 1916SOL    HW1 7206   2.846   3.186   1.395
 1916SOL    HW2 7207   3.009   3.183   1.389
 1917SOL     OW 7208   3.454   3.491   1.625
 1917SOL    HW1 7209   3.481   3.525   1.535
 1917SOL    HW2 7210   3.533   3.453   1.671
 1918SOL     OW 7211   2.973   3.057   1.100
 1918SOL    HW1 7212   2.933   3.101   1.181
 1918SOL    HW2 7213   2.932   3.094   1.017
 1919SOL     OW 7214   3.500   2.961   1.079
 1919SOL    HW1 7215   3.505   3.042   1.138
 1919SOL    HW2 7216   3.414   2.963   1.028
 1920SOL     OW 7217   2.777   1.951   1.402
 1920SOL    HW1 7218   2.802   1.931   1.307
 1920SOL    HW2 7219   2.849   2.007   1.444
 1921SOL     OW 7220   2.842   2.978   1.719
 1921SOL    HW1 7221   2.743   2.984   1.729
 1921SOL    HW2 7222   2.865   2.898   1.663
 1922SOL     OW 7223   2.567   2.912   0.368
 1922SOL    HW1 7224   2.553   2.919   0.467
 1922SOL    HW2 7225   2.651   2.861   0.350
 1923SOL     OW 7226   2.272   2.675   1.251
 1923SOL    HW1 7227   2.358   2.687   1.301
 1923SOL    HW2 7228   2.230   2.588   1.278
 1924SOL     OW 7229   3.136   2.248   1.262
 1924SOL    HW1 7230   3.157   2.322   1.326
 1924SOL    HW2 7231   3.047   2.265   1.219
 1925SOL     OW 7232   1.926   3.426   1.331
 1925SOL    HW1 7233   1.880   3.508   1.297
 1925SOL    HW2 7234   2.024   3.445   1.340
 1926SOL     OW 7235   2.229   2.962   0.501
 1926SOL    HW1 7236   2.222   3.045   0.445
 1926SOL    HW2 7237   2.233   2.882   0.441
 1927SOL     OW 7238   2.428   2.399   0.865
 1927SOL    HW1 7239   2.440   2.465   0.791
 1927SOL    HW2 7240   2.474   2.433   0.948
 1928SOL     OW 7241   3.134   3.307   1.142
 1928SOL    HW1 7242   3.181   3.320   1.229
 1928SOL    HW2 7243   3.068   3.233   1.151
 1929SOL     OW 7244   3.444   2.501   0.472
 1929SOL    HW1 7245   3.413   2.562   0.545
 1929SOL    HW2 7246   3.494   2.553   0.403
 1930SOL     OW 7247   2.216   3.372   1.329
 1930SOL    HW1 7248   2.195   3.328   1.242
 1930SOL    HW2 7249   2.313   3.398   1.332
 1931SOL     OW 7250   2.264   2.613   1.598
 1931SOL    HW1 7251   2.332   2.668   1.551
 1931SOL    HW2 7252   2.304   2.525   1.625
 1932SOL     OW 7253   3.449   2.641   1.670
 1932SOL    HW1 7254   3.357   2.679   1.665
 1932SOL    HW2 7255   3.509   2.688   1.605
 1933SOL     OW 7256   2.875   1.967   1.770
 1933SOL    HW1 7257   2.881   2.052   1.718
 1933SOL    HW2 7258   2.907   1.891   1.713
 1934SOL     OW 7259   2.435   2.732   1.029
 1934SOL    HW1 7260   2.479   2.821   1.020
 1934SOL    HW2 7261   2.372   2.732   1.106
 1935SOL     OW 7262   3.222   2.724   1.045
 1935SOL    HW1 7263   3.147   2.724   0.979
 1935SOL    HW2 7264   3.259   2.632   1.054
 1936SOL     OW 7265   3.071   2.387   0.275
 1936SOL    HW1 7266   3.084   2.303   0.329
 1936SOL    HW2 7267   3.042   2.461   0.335
 1937SOL     OW 7268   1.899   3.172   1.282
 1937SOL    HW1 7269   1.952   3.123   1.350
 1937SOL    HW2 7270   1.921   3.270   1.287
 1938SOL     OW 7271   2.594   2.496   1.064
 1938SOL    HW1 7272   2.653   2.470   0.988
 1938SOL    HW2 7273   2.566   2.592   1.053
 1939SOL     OW 7274   3.590   2.797   1.854
 1939SOL    HW1 7275   3.544   2.790   1.765
 1939SOL    HW2 7276   3.528   2.841   1.920
 1940SOL     OW 7277   2.169   1.925   0.618
 1940SOL    HW1 7278   2.158   2.019   0.651
 1940SOL    HW2 7279   2.164   1.862   0.695
 1941SOL     OW 7280   3.484   2.229   0.374
 1941SOL    HW1 7281   3.486   2.153   0.438
 1941SOL    HW2 7282   3.436   2.306   0.414
 1942SOL     OW 7283   2.885   2.628   0.966
 1942SOL    HW1 7284   2.900   2.649   1.062
 1942SOL    HW2 7285   2.855   2.533   0.957
 1943SOL     OW 7286   2.842   3.435   1.700
 1943SOL    HW1 7287   2.822   3.479   1.612
 1943SOL    HW2 7288   2.881   3.344   1.684
 1944SOL     OW 7289   3.721   3.380   1.605
 1944SOL    HW1 7290   3.735   3.407   1.510
 1944SOL    HW2 7291   3.804   3.402   1.658
 1945SOL     OW 7292   2.212   2.760   1.804
 1945SOL    HW1 7293   2.288   2.804   1.852
 1945SOL    HW2 7294   2.247   2.713   1.722
 1946SOL     OW 7295   3.402   2.136   0.125
 1946SOL    HW1 7296   3.341   2.061   0.148
 1946SOL    HW2 7297   3.424   2.188   0.208
 1947SOL     OW 7298   3.165   2.700   0.042
 1947SOL    HW1 7299   3.199   2.607   0.057
 1947SOL    HW2 7300   3.183   2.727  -0.053
 1948SOL     OW 7301   2.930   3.195   0.849
 1948SOL    HW1 7302   2.937   3.111   0.794
 1948SOL    HW2 7303   2.992   3.264   0.813
 1949SOL     OW 7304   2.181   2.672   0.949
 1949SOL    HW1 7305   2.274   2.708   0.954
 1949SOL    HW2 7306   2.175   2.587   1.001
 1950SOL     OW 7307   2.201   2.371   1.006
 1950SOL    HW1 7308   2.149   2.288   0.989
 1950SOL    HW2 7309   2.278   2.376   0.942
 1951SOL     OW 7310   3.000   2.242   1.678
 1951SOL    HW1 7311   2.955   2.305   1.742
 1951SOL    HW2 7312   3.093   2.273   1.661
 1952SOL     OW 7313   3.022   2.069   1.477
 1952SOL    HW1 7314   3.022   2.133   1.554
 1952SOL    HW2 7315   3.050   2.117   1.394
 1953SOL     OW 7316   1.950   3.663   0.927
 1953SOL    HW1 7317   1.908   3.577   0.900
 1953SOL    HW2 7318   2.044   3.666   0.893
 1954SOL     OW 7319   2.366   3.430   0.910
 1954SOL    HW1 7320   2.432   3.504   0.919
 1954SOL    HW2 7321   2.410   3.351   0.868
 1955SOL     OW 7322   2.864   2.658   1.238
 1955SOL    HW1 7323   2.905   2.626   1.324
 1955SOL    HW2 7324   2.768   2.631   1.235
 1956SOL     OW 7325   1.902   2.406   1.114
 1956SOL    HW1 7326   1.987   2.373   1.073
 1956SOL    HW2 7327   1.915   2.421   1.212
 1957SOL     OW 7328   3.231   2.812   1.660
 1957SOL    HW1 7329   3.270   2.901   1.680
 1957SOL    HW2 7330   3.241   2.792   1.563
 1958SOL     OW 7331   3.519   2.466   1.206
 1958SOL    HW1 7332   3.481   2.397   1.268
 1958SOL    HW2 7333   3.601   2.430   1.162
 1959SOL     OW 7334   2.114   3.426   1.744
 1959SOL    HW1 7335   2.084   3.483   1.820
 1959SOL    HW2 7336   2.107   3.329   1.770
 1960SOL     OW 7337   2.533   2.326   1.269
 1960SOL    HW1 7338   2.499   2.237   1.239
 1960SOL    HW2 7339   2.559   2.380   1.189
 1961SOL     OW 7340   2.792   3.540   1.465
 1961SOL    HW1 7341   2.768   3.522   1.370
 1961SOL    HW2 7342   2.822   3.634   1.475
 1962SOL     OW 7343   2.021   2.999   1.466
 1962SOL    HW1 7344   2.043   2.938   1.542
 1962SOL    HW2 7345   2.031   2.950   1.380
 1963SOL     OW 7346   3.209   2.921   1.234
 1963SOL    HW1 7347   3.233   2.858   1.160
 1963SOL    HW2 7348   3.119   2.961   1.216
 1964SOL     OW 7349   3.164   2.717   0.309
 1964SOL    HW1 7350   3.078   2.686   0.351
 1964SOL    HW2 7351   3.160   2.703   0.210
 1965SOL     OW 7352   3.621   3.609   1.154
 1965SOL    HW1 7353   3.682   3.639   1.081
 1965SOL    HW2 7354   3.583   3.520   1.132
 1966SOL     OW 7355   3.114   3.593   1.128
 1966SOL    HW1 7356   3.198   3.598   1.074
 1966SOL    HW2 7357   3.091   3.497   1.146
 1967SOL     OW 7358   1.945   3.120   1.022
 1967SOL    HW1 7359   1.940   3.119   1.122
 1967SOL    HW2 7360   1.862   3.079   0.984
 1968SOL     OW 7361   2.550   3.524   1.716
 1968SOL    HW1 7362   2.494   3.605   1.725
 1968SOL    HW2 7363   2.602   3.528   1.630
 1969SOL     OW 7364   2.765   1.948   0.133
 1969SOL    HW1 7365   2.816   1.949   0.047
 1969SOL    HW2 7366   2.821   1.906   0.204
 1970SOL     OW 7367   3.588   1.997   0.523
 1970SOL    HW1 7368   3.661   1.980   0.456
 1970SOL    HW2 7369   3.557   1.910   0.561
 1971SOL     OW 7370   1.992   3.656   1.851
 1971SOL    HW1 7371   1.951   3.582   1.904
 1971SOL    HW2 7372   2.056   3.707   1.909
 1972SOL     OW 7373   3.142   2.789   0.672
 1972SOL    HW1 7374   3.202   2.708   0.674
 1972SOL    HW2 7375   3.182   2.858   0.612
 1973SOL     OW 7376   2.692   3.135   1.422
 1973SOL    HW1 7377   2.687   3.168   1.517
 1973SOL    HW2 7378   2.606   3.154   1.376
 1974SOL     OW 7379   2.534   3.478   0.154
 1974SOL    HW1 7380   2.543   3.488   0.055
 1974SOL    HW2 7381   2.494   3.389   0.175
 1975SOL     OW 7382   3.512   3.582   1.394
 1975SOL    HW1 7383   3.565   3.592   1.310
 1975SOL    HW2 7384   3.485   3.672   1.428
 1976SOL     OW 7385   3.703   2.037   0.963
 1976SOL    HW1 7386   3.742   1.952   0.927
 1976SOL    HW2 7387   3.605   2.039   0.944
 1977SOL     OW 7388   2.125   2.188   0.720
 1977SOL    HW1 7389   2.046   2.239   0.686
 1977SOL    HW2 7390   2.116   2.173   0.818
 1978SOL     OW 7391   2.684   2.864   1.372
 1978SOL    HW1 7392   2.724   2.863   1.280
 1978SOL    HW2 7393   2.694   2.956   1.412
 1979SOL     OW 7394   2.778   2.772   0.291
 1979SOL    HW1 7395   2.841   2.810   0.223
 1979SOL    HW2 7396   2.818   2.689   0.330
 1980SOL     OW 7397   2.234   3.150   1.490
 1980SOL    HW1 7398   2.221   3.243   1.456
 1980SOL    HW2 7399   2.150   3.098   1.477
 1981SOL     OW 7400   3.476   3.154   1.289
 1981SOL    HW1 7401   3.536   3.157   1.369
 1981SOL    HW2 7402   3.401   3.218   1.302
 1982SOL     OW 7403   2.901   2.960   0.696
 1982SOL    HW1 7404   2.831   2.913   0.750
 1982SOL    HW2 7405   2.960   2.892   0.653
 1983SOL     OW 7406   2.876   2.098   0.971
 1983SOL    HW1 7407   2.868   2.062   0.878
 1983SOL    HW2 7408   2.874   2.022   1.036
 1984SOL     OW 7409   2.452   3.349   0.491
 1984SOL    HW1 7410   2.494   3.291   0.421
 1984SOL    HW2 7411   2.408   3.428   0.447
 1985SOL     OW 7412   3.571   2.247   1.381
 1985SOL    HW1 7413   3.644   2.316   1.385
 1985SOL    HW2 7414   3.599   2.172   1.322
 1986SOL     OW 7415   2.117   3.210   0.290
 1986SOL    HW1 7416   2.021   3.211   0.263
 1986SOL    HW2 7417   2.129   3.263   0.374
 1987SOL     OW 7418   1.967   2.875   1.726
 1987SOL    HW1 7419   1.890   2.842   1.780
 1987SOL    HW2 7420   2.052   2.845   1.768
 1988SOL     OW 7421   2.534   2.065   1.489
 1988SOL    HW1 7422   2.624   2.049   1.449
 1988SOL    HW2 7423   2.542   2.070   1.588
 1989SOL     OW 7424   3.302   2.718   1.398
 1989SOL    HW1 7425   3.245   2.770   1.335
 1989SOL    HW2 7426   3.398   2.730   1.374
 1990SOL     OW 7427   1.934   2.028   0.318
 1990SOL    HW1 7428   1.917   2.111   0.264
 1990SOL    HW2 7429   2.024   1.991   0.296
 1991SOL     OW 7430   3.045   3.197   0.119
 1991SOL    HW1 7431   2.946   3.186   0.121
 1991SOL    HW2 7432   3.079   3.212   0.212
 1992SOL     OW 7433   2.475   2.704   1.431
 1992SOL    HW1 7434   2.531   2.785   1.414
 1992SOL    HW2 7435   2.534   2.624   1.434
 1993SOL     OW 7436   3.355   3.629   0.959
 1993SOL    HW1 7437   3.388   3.693   0.890
 1993SOL    HW2 7438   3.421   3.623   1.034
 1994SOL     OW 7439   2.578   2.427   1.708
 1994SOL    HW1 7440   2.597   2.492   1.782
 1994SOL    HW2 7441   2.638   2.347   1.717
 1995SOL     OW 7442   3.312   3.082   1.633
 1995SOL    HW1 7443   3.303   3.072   1.732
 1995SOL    HW2 7444   3.408   3.075   1.607
 1996SOL     OW 7445   3.536   2.745   1.254
 1996SOL    HW1 7446   3.509   2.656   1.217
 1996SOL    HW2 7447   3.537   2.813   1.181
 1997SOL     OW 7448   3.087   2.187   0.449
 1997SOL    HW1 7449   3.152   2.113   0.438
 1997SOL    HW2 7450   3.107   2.237   0.533
 1998SOL     OW 7451   3.639   2.204   1.642
 1998SOL    HW1 7452   3.622   2.235   1.548
 1998SOL    HW2 7453   3.555   2.167   1.680
 1999SOL     OW 7454   3.592   2.796   1.517
 1999SOL    HW1 7455   3.630   2.887   1.532
 1999SOL    HW2 7456   3.584   2.779   1.418
 2000SOL     OW 7457   2.721   3.236   0.016
 2000SOL    HW1 7458   2.675   3.251   0.104
 2000SOL    HW2 7459   2.765   3.321  -0.014
 2001SOL     OW 7460   2.523   3.652   0.953
 2001SOL    HW1 7461   2.477   3.740   0.940
 2001SOL    HW2 7462   2.622   3.664   0.946
 2002SOL     OW 7463   2.721   2.818   0.861
 2002SOL    HW1 7464   2.775   2.749   0.909
 2002SOL    HW2 7465   2.689   2.887   0.927
 2003SOL     OW 7466   2.945   2.846   0.087
 2003SOL    HW1 7467   2.922   2.899   0.005
 2003SOL    HW2 7468   3.026   2.790   0.068
 2004SOL     OW 7469   3.723   3.431   0.851
 2004SOL    HW1 7470   3.652   3.419   0.781
 2004SOL    HW2 7471   3.724   3.352   0.911
 2005SOL     OW 7472   2.083   3.176   1.844
 2005SOL    HW1 7473   2.018   3.103   1.823
 2005SOL    HW2 7474   2.087   3.190   1.942
 2006SOL     OW 7475   1.941   3.102   0.653
 2006SOL    HW1 7476   1.940   3.055   0.741
 2006SOL    HW2 7477   2.023   3.074   0.602
 2007SOL     OW 7478   2.534   3.253   1.624
 2007SOL    HW1 7479   2.456   3.203   1.662
 2007SOL    HW2 7480   2.531   3.348   1.655
 2008SOL     OW 7481   3.686   2.054   1.227
 2008SOL    HW1 7482   3.682   1.964   1.271
 2008SOL    HW2 7483   3.689   2.043   1.128
 2009SOL     OW 7484   3.567   3.349   1.104
 2009SOL    HW1 7485   3.474   3.324   1.077
 2009SOL    HW2 7486   3.593   3.299   1.186
 2010SOL     OW 7487   2.179   2.409   1.280
 2010SOL    HW1 7488   2.217   2.350   1.352
 2010SOL    HW2 7489   2.219   2.383   1.192
 2011SOL     OW 7490   2.674   3.448   0.687
 2011SOL    HW1 7491   2.706   3.458   0.593
 2011SOL    HW2 7492   2.595   3.386   0.689
 2012SOL     OW 7493   3.286   2.076   1.112
 2012SOL    HW1 7494   3.338   2.011   1.167
 2012SOL    HW2 7495   3.237   2.139   1.173
 2013SOL     OW 7496   2.863   1.896   1.154
 2013SOL    HW1 7497   2.800   1.824   1.123
 2013SOL    HW2 7498   2.956   1.860   1.154
 2014SOL     OW 7499   2.632   3.192   0.301
 2014SOL    HW1 7500   2.586   3.105   0.318
 2014SOL    HW2 7501   2.723   3.189   0.342
 2015SOL     OW 7502   2.480   3.429   1.284
 2015SOL    HW1 7503   2.475   3.511   1.341
 2015SOL    HW2 7504   2.569   3.426   1.239
 2016SOL     OW 7505   3.214   1.914   0.168
 2016SOL    HW1 7506   3.249   1.873   0.084
 2016SOL    HW2 7507   3.124   1.876   0.188
 2017SOL     OW 7508   3.162   2.315   0.691
 2017SOL    HW1 7509   3.103   2.395   0.695
 2017SOL    HW2 7510   3.177   2.280   0.784
 2018SOL     OW 7511   3.455   2.083   0.882
 2018SOL    HW1 7512   3.371   2.082   0.936
 2018SOL    HW2 7513   3.457   2.166   0.826
 2019SOL     OW 7514   1.901   2.939   0.300
 2019SOL    HW1 7515   2.000   2.928   0.291
 2019SOL    HW2 7516   1.861   2.853   0.332
 2020SOL     OW 7517   2.737   3.508   0.337
 2020SOL    HW1 7518   2.660   3.473   0.283
 2020SOL    HW2 7519   2.705   3.579   0.399
 2021SOL     OW 7520   2.092   2.490   1.975
 2021SOL    HW1 7521   1.999   2.488   2.012
 2021SOL    HW2 7522   2.093   2.451   1.883
 2022SOL     OW 7523   2.087   2.137   2.858
 2022SOL    HW1 7524   2.122   2.120   2.950
 2022SOL    HW2 7525   1.999   2.092   2.846
 2023SOL     OW 7526   1.881   2.230   2.509
 2023SOL    HW1 7527   1.799   2.273   2.548
 2023SOL    HW2 7528   1.853   2.157   2.446
 2024SOL     OW 7529   2.431   3.137   3.027
 2024SOL    HW1 7530   2.338   3.130   2.990
 2024SOL    HW2 7531   2.442   3.226   3.071
 2025SOL     OW 7532   3.417   3.373   2.565
 2025SOL    HW1 7533   3.360   3.357   2.646
 2025SOL    HW2 7534   3.358   3.383   2.485
 2026SOL     OW 7535   3.617   2.469   2.093
 2026SOL    HW1 7536   3.605   2.456   1.994
 2026SOL    HW2 7537   3.587   2.388   2.142
 2027SOL     OW 7538   2.630   3.006   2.885
 2027SOL    HW1 7539   2.552   3.023   2.945
 2027SOL    HW2 7540   2.664   3.093   2.849
 2028SOL     OW 7541   2.548   3.023   3.665
 2028SOL    HW1 7542   2.608   3.102   3.679
 2028SOL    HW2 7543   2.462   3.054   3.624
 2029SOL     OW 7544   2.197   3.297   2.923
 2029SOL    HW1 7545   2.119   3.266   2.870
 2029SOL    HW2 7546   2.255   3.355   2.866
 2030SOL     OW 7547   3.322   3.367   3.201
 2030SOL    HW1 7548   3.346   3.461   3.227
 2030SOL    HW2 7549   3.306   3.313   3.283
 2031SOL     OW 7550   2.300   2.254   3.361
 2031SOL    HW1 7551   2.382   2.198   3.370
 2031SOL    HW2 7552   2.219   2.196   3.365
 2032SOL     OW 7553   3.465   2.309   2.599
 2032SOL    HW1 7554   3.391   2.355   2.549
 2032SOL    HW2 7555   3.516   2.377   2.652
 2033SOL     OW 7556   2.093   3.575   2.345
 2033SOL    HW1 7557   2.127   3.652   2.399
 2033SOL    HW2 7558   2.137   3.575   2.255
 2034SOL     OW 7559   2.989   3.203   3.552
 2034SOL    HW1 7560   3.036   3.203   3.640
 2034SOL    HW2 7561   2.941   3.116   3.541
 2035SOL     OW 7562   2.092   3.296   2.400
 2035SOL    HW1 7563   2.066   3.392   2.400
 2035SOL    HW2 7564   2.021   3.242   2.445
 2036SOL     OW 7565   2.102   2.953   2.748
 2036SOL    HW1 7566   2.116   2.869   2.800
 2036SOL    HW2 7567   2.047   3.017   2.803
 2037SOL     OW 7568   2.482   3.648   3.301
 2037SOL    HW1 7569   2.390   3.631   3.336
 2037SOL    HW2 7570   2.510   3.740   3.327
 2038SOL     OW 7571   2.468   2.826   1.985
 2038SOL    HW1 7572   2.475   2.910   1.931
 2038SOL    HW2 7573   2.514   2.839   2.073
 2039SOL     OW 7574   3.704   3.629   2.221
 2039SOL    HW1 7575   3.758   3.600   2.301
 2039SOL    HW2 7576   3.734   3.719   2.192
 2040SOL     OW 7577   1.889   3.458   1.979
 2040SOL    HW1 7578   1.870   3.362   2.000
 2040SOL    HW2 7579   1.856   3.516   2.054
 2041SOL     OW 7580   1.975   2.599   3.459
 2041SOL    HW1 7581   2.063   2.586   3.504
 2041SOL    HW2 7582   1.962   2.696   3.437
 2042SOL     OW 7583   2.475   3.227   2.588
 2042SOL    HW1 7584   2.426   3.140   2.597
 2042SOL    HW2 7585   2.452   3.270   2.501
 2043SOL     OW 7586   3.155   3.090   3.285
 2043SOL    HW1 7587   3.192   3.017   3.227
 2043SOL    HW2 7588   3.207   3.095   3.370
 2044SOL     OW 7589   2.671   1.866   2.364
 2044SOL    HW1 7590   2.711   1.957   2.355
 2044SOL    HW2 7591   2.571   1.874   2.370
 2045SOL     OW 7592   2.059   2.838   3.126
 2045SOL    HW1 7593   2.148   2.793   3.112
 2045SOL    HW2 7594   1.986   2.773   3.107
 2046SOL     OW 7595   3.049   3.654   3.478
 2046SOL    HW1 7596   3.073   3.714   3.402
 2046SOL    HW2 7597   3.056   3.559   3.448
 2047SOL     OW 7598   2.179   2.113   3.663
 2047SOL    HW1 7599   2.250   2.184   3.669
 2047SOL    HW2 7600   2.091   2.152   3.691
 2048SOL     OW 7601   3.529   3.576   2.434
 2048SOL    HW1 7602   3.488   3.553   2.346
 2048SOL    HW2 7603   3.511   3.502   2.499
 2049SOL     OW 7604   2.460   2.591   2.132
 2049SOL    HW1 7605   2.484   2.660   2.064
 2049SOL    HW2 7606   2.382   2.624   2.186
 2050SOL     OW 7607   3.143   2.207   2.806
 2050SOL    HW1 7608   3.057   2.157   2.793
 2050SOL    HW2 7609   3.205   2.153   2.862
 2051SOL     OW 7610   3.438   3.524   2.169
 2051SOL    HW1 7611   3.527   3.570   2.172
 2051SOL    HW2 7612   3.417   3.500   2.074
 2052SOL     OW 7613   2.669   2.467   3.327
 2052SOL    HW1 7614   2.622   2.464   3.416
 2052SOL    HW2 7615   2.618   2.412   3.261
 2053SOL     OW 7616   2.835   2.752   3.434
 2053SOL    HW1 7617   2.881   2.668   3.405
 2053SOL    HW2 7618   2.779   2.786   3.359
 2054SOL     OW 7619   2.853   2.272   3.104
 2054SOL    HW1 7620   2.776   2.306   3.158
 2054SOL    HW2 7621   2.819   2.221   3.025
 2055SOL     OW 7622   2.903   2.563   2.291
 2055SOL    HW1 7623   2.929   2.559   2.387
 2055SOL    HW2 7624   2.818   2.512   2.277
 2056SOL     OW 7625   1.938   2.673   2.651
 2056SOL    HW1 7626   2.037   2.661   2.660
 2056SOL    HW2 7627   1.914   2.768   2.672
 2057SOL     OW 7628   1.992   3.683   3.433
 2057SOL    HW1 7629   1.982   3.668   3.532
 2057SOL    HW2 7630   1.906   3.719   3.397
 2058SOL     OW 7631   2.727   2.210   2.057
 2058SOL    HW1 7632   2.786   2.273   2.008
 2058SOL    HW2 7633   2.746   2.116   2.028
 2059SOL     OW 7634   3.581   2.447   3.693
 2059SOL    HW1 7635   3.555   2.536   3.657
 2059SOL    HW2 7636   3.579   2.379   3.620
 2060SOL     OW 7637   2.412   2.058   2.747
 2060SOL    HW1 7638   2.407   2.053   2.847
 2060SOL    HW2 7639   2.414   2.154   2.718
 2061SOL     OW 7640   2.870   3.318   2.339
 2061SOL    HW1 7641   2.824   3.390   2.287
 2061SOL    HW2 7642   2.866   3.338   2.437
 2062SOL     OW 7643   2.213   3.663   2.715
 2062SOL    HW1 7644   2.263   3.577   2.721
 2062SOL    HW2 7645   2.278   3.740   2.712
 2063SOL     OW 7646   3.089   3.412   3.368
 2063SOL    HW1 7647   3.095   3.335   3.432
 2063SOL    HW2 7648   3.037   3.386   3.288
 2064SOL     OW 7649   2.183   2.805   2.104
 2064SOL    HW1 7650   2.265   2.844   2.062
 2064SOL    HW2 7651   2.156   2.723   2.055
 2065SOL     OW 7652   2.323   3.128   3.589
 2065SOL    HW1 7653   2.273   3.129   3.503
 2065SOL    HW2 7654   2.260   3.110   3.665
 2066SOL     OW 7655   2.973   3.638   2.099
 2066SOL    HW1 7656   2.913   3.576   2.149
 2066SOL    HW2 7657   3.004   3.594   2.014
 2067SOL     OW 7658   2.064   2.147   3.360
 2067SOL    HW1 7659   1.984   2.207   3.347
 2067SOL    HW2 7660   2.054   2.098   3.446
 2068SOL     OW 7661   3.494   3.239   1.943
 2068SOL    HW1 7662   3.462   3.333   1.933
 2068SOL    HW2 7663   3.418   3.176   1.931
 2069SOL     OW 7664   3.262   1.969   2.288
 2069SOL    HW1 7665   3.238   1.932   2.198
 2069SOL    HW2 7666   3.361   1.985   2.292
 2070SOL     OW 7667   2.111   3.647   3.103
 2070SOL    HW1 7668   2.168   3.582   3.153
 2070SOL    HW2 7669   2.095   3.614   3.010
 2071SOL     OW 7670   2.802   3.560   2.766
 2071SOL    HW1 7671   2.882   3.503   2.787
 2071SOL    HW2 7672   2.753   3.520   2.689
 2072SOL     OW 7673   2.244   2.562   2.342
 2072SOL    HW1 7674   2.289   2.472   2.339
 2072SOL    HW2 7675   2.150   2.551   2.375
 2073SOL     OW 7676   3.409   2.084   3.591
 2073SOL    HW1 7677   3.404   2.121   3.683
 2073SOL    HW2 7678   3.337   2.015   3.579
 2074SOL     OW 7679   2.476   1.984   1.979
 2074SOL    HW1 7680   2.574   1.962   1.986
 2074SOL    HW2 7681   2.445   1.967   1.886
 2075SOL     OW 7682   2.643   2.126   3.611
 2075SOL    HW1 7683   2.710   2.065   3.654
 2075SOL    HW2 7684   2.570   2.145   3.676
 2076SOL     OW 7685   2.750   3.376   3.057
 2076SOL    HW1 7686   2.727   3.351   2.963
 2076SOL    HW2 7687   2.811   3.307   3.096
 2077SOL     OW 7688   3.213   2.452   3.295
 2077SOL    HW1 7689   3.241   2.409   3.380
 2077SOL    HW2 7690   3.238   2.548   3.296
 2078SOL     OW 7691   2.665   3.264   2.786
 2078SOL    HW1 7692   2.755   3.278   2.744
 2078SOL    HW2 7693   2.594   3.266   2.715
 2079SOL     OW 7694   2.401   1.926   2.374
 2079SOL    HW1 7695   2.320   1.927   2.432
 2079SOL    HW2 7696   2.404   2.009   2.319
 2080SOL     OW 7697   2.159   1.897   2.033
 2080SOL    HW1 7698   2.208   1.981   2.012
 2080SOL    HW2 7699   2.221   1.832   2.078
 2081SOL     OW 7700   2.797   2.098   2.342
 2081SOL    HW1 7701   2.749   2.139   2.264
 2081SOL    HW2 7702   2.896   2.096   2.323
 2082SOL     OW 7703   3.089   3.432   2.655
 2082SOL    HW1 7704   3.110   3.506   2.590
 2082SOL    HW2 7705   3.157   3.432   2.728
 2083SOL     OW 7706   2.321   3.014   2.603
 2083SOL    HW1 7707   2.250   2.987   2.668
 2083SOL    HW2 7708   2.295   2.986   2.510
 2084SOL     OW 7709   3.133   3.659   2.453
 2084SOL    HW1 7710   3.177   3.723   2.389
 2084SOL    HW2 7711   3.083   3.711   2.523
 2085SOL     OW 7712   2.894   2.411   1.878
 2085SOL    HW1 7713   2.853   2.493   1.839
 2085SOL    HW2 7714   2.958   2.437   1.951
 2086SOL     OW 7715   1.940   2.418   3.248
 2086SOL    HW1 7716   2.032   2.417   3.207
 2086SOL    HW2 7717   1.934   2.492   3.315
 2087SOL     OW 7718   2.423   2.084   3.009
 2087SOL    HW1 7719   2.461   2.000   3.046
 2087SOL    HW2 7720   2.335   2.103   3.053
 2088SOL     OW 7721   2.879   1.901   2.615
 2088SOL    HW1 7722   2.807   1.906   2.546
 2088SOL    HW2 7723   2.855   1.832   2.684
 2089SOL     OW 7724   3.328   2.452   2.854
 2089SOL    HW1 7725   3.298   2.357   2.861
 2089SOL    HW2 7726   3.401   2.468   2.920
 2090SOL     OW 7727   3.719   2.695   2.239
 2090SOL    HW1 7728   3.761   2.631   2.303
 2090SOL    HW2 7729   3.681   2.644   2.161
 2091SOL     OW 7730   2.350   3.247   2.036
 2091SOL    HW1 7731   2.263   3.232   2.083
 2091SOL    HW2 7732   2.333   3.273   1.941
 2092SOL     OW 7733   3.526   3.142   2.519
 2092SOL    HW1 7734   3.625   3.150   2.533
 2092SOL    HW2 7735   3.481   3.226   2.550
 2093SOL     OW 7736   3.252   2.437   1.940
 2093SOL    HW1 7737   3.198   2.416   2.021
 2093SOL    HW2 7738   3.343   2.396   1.949
 2094SOL     OW 7739   2.389   2.118   2.190
 2094SOL    HW1 7740   2.416   2.059   2.115
 2094SOL    HW2 7741   2.389   2.213   2.159
 2095SOL     OW 7742   3.616   3.085   3.450
 2095SOL    HW1 7743   3.707   3.046   3.437
 2095SOL    HW2 7744   3.624   3.181   3.474
 2096SOL     OW 7745   2.926   3.209   3.202
 2096SOL    HW1 7746   2.846   3.186   3.257
 2096SOL    HW2 7747   3.009   3.183   3.251
 2097SOL     OW 7748   3.454   3.491   3.487
 2097SOL    HW1 7749   3.481   3.525   3.397
 2097SOL    HW2 7750   3.533   3.453   3.533
 2098SOL     OW 7751   2.973   3.057   2.962
 2098SOL    HW1 7752   2.933   3.101   3.043
 2098SOL    HW2 7753   2.932   3.094   2.879
 2099SOL     OW 7754   2.777   1.951   3.264
 2099SOL    HW1 7755   2.802   1.931   3.169
 2099SOL    HW2 7756   2.849   2.007   3.306
 2100SOL     OW 7757   2.842   2.978   3.581
 2100SOL    HW1 7758   2.743   2.984   3.591
 2100SOL    HW2 7759   2.865   2.898   3.525
 2101SOL     OW 7760   2.272   2.675   3.113
 2101SOL    HW1 7761   2.358   2.687   3.163
 2101SOL    HW2 7762   2.230   2.588   3.140
 2102SOL     OW 7763   3.136   2.248   3.124
 2102SOL    HW1 7764   3.157   2.322   3.188
 2102SOL    HW2 7765   3.047   2.265   3.081
 2103SOL     OW 7766   1.926   3.426   3.193
 2103SOL    HW1 7767   1.880   3.508   3.159
 2103SOL    HW2 7768   2.024   3.445   3.202
 2104SOL     OW 7769   2.229   2.962   2.363
 2104SOL    HW1 7770   2.222   3.045   2.307
 2104SOL    HW2 7771   2.233   2.882   2.303
 2105SOL     OW 7772   3.134   3.307   3.004
 2105SOL    HW1 7773   3.181   3.320   3.091
 2105SOL    HW2 7774   3.068   3.233   3.013
 2106SOL     OW 7775   3.444   2.501   2.334
 2106SOL    HW1 7776   3.413   2.562   2.407
 2106SOL    HW2 7777   3.494   2.553   2.265
 2107SOL     OW 7778   2.216   3.372   3.191
 2107SOL    HW1 7779   2.195   3.328   3.104
 2107SOL    HW2 7780   2.313   3.398   3.194
 2108SOL     OW 7781   2.264   2.613   3.460
 2108SOL    HW1 7782   2.332   2.668   3.413
 2108SOL    HW2 7783   2.304   2.525   3.487
 2109SOL     OW 7784   2.875   1.967   3.632
 2109SOL    HW1 7785   2.881   2.052   3.580
 2109SOL    HW2 7786   2.907   1.891   3.575
 2110SOL     OW 7787   2.366   1.912   3.602
 2110SOL    HW1 7788   2.324   1.855   3.532
 2110SOL    HW2 7789   2.300   1.981   3.634
 2111SOL     OW 7790   2.435   2.732   2.891
 2111SOL    HW1 7791   2.479   2.821   2.882
 2111SOL    HW2 7792   2.372   2.732   2.968
 2112SOL     OW 7793   3.222   2.724   2.907
 2112SOL    HW1 7794   3.147   2.724   2.841
 2112SOL    HW2 7795   3.259   2.632   2.916
 2113SOL     OW 7796   3.071   2.387   2.137
 2113SOL    HW1 7797   3.084   2.303   2.191
 2113SOL    HW2 7798   3.042   2.461   2.197
 2114SOL     OW 7799   2.169   2.075   3.093
 2114SOL    HW1 7800   2.146   2.112   3.183
 2114SOL    HW2 7801   2.139   1.980   3.087
 2115SOL     OW 7802   1.899   3.172   3.144
 2115SOL    HW1 7803   1.952   3.123   3.212
 2115SOL    HW2 7804   1.921   3.270   3.149
 2116SOL     OW 7805   3.590   2.797   3.716
 2116SOL    HW1 7806   3.544   2.790   3.627
 2116SOL    HW2 7807   3.528   2.841   3.782
 2117SOL     OW 7808   2.169   1.925   2.480
 2117SOL    HW1 7809   2.158   2.019   2.513
 2117SOL    HW2 7810   2.164   1.862   2.557
 2118SOL     OW 7811   3.484   2.229   2.236
 2118SOL    HW1 7812   3.486   2.153   2.300
 2118SOL    HW2 7813   3.436   2.306   2.276
 2119SOL     OW 7814   2.885   2.628   2.828
 2119SOL    HW1 7815   2.900   2.649   2.924
 2119SOL    HW2 7816   2.855   2.533   2.819
 2120SOL     OW 7817   2.842   3.435   3.562
 2120SOL    HW1 7818   2.822   3.479   3.474
 2120SOL    HW2 7819   2.881   3.344   3.546
 2121SOL     OW 7820   3.721   3.380   3.467
 2121SOL    HW1 7821   3.735   3.407   3.372
 2121SOL    HW2 7822   3.804   3.402   3.520
 2122SOL     OW 7823   2.212   2.760   3.666
 2122SOL    HW1 7824   2.288   2.804   3.714
 2122SOL    HW2 7825   2.247   2.713   3.584
 2123SOL     OW 7826   3.402   2.136   1.987
 2123SOL    HW1 7827   3.341   2.061   2.010
 2123SOL    HW2 7828   3.424   2.188   2.070
 2124SOL     OW 7829   3.165   2.700   1.904
 2124SOL    HW1 7830   3.199   2.607   1.919
 2124SOL    HW2 7831   3.183   2.727   1.809
 2125SOL     OW 7832   2.930   3.195   2.711
 2125SOL    HW1 7833   2.937   3.111   2.656
 2125SOL    HW2 7834   2.992   3.264   2.675
 2126SOL     OW 7835   2.181   2.672   2.811
 2126SOL    HW1 7836   2.274   2.708   2.816
 2126SOL    HW2 7837   2.175   2.587   2.863
 2127SOL     OW 7838   2.201   2.371   2.868
 2127SOL    HW1 7839   2.149   2.288   2.851
 2127SOL    HW2 7840   2.278   2.376   2.804
 2128SOL     OW 7841   3.000   2.242   3.540
 2128SOL    HW1 7842   2.955   2.305   3.604
 2128SOL    HW2 7843   3.093   2.273   3.523
 2129SOL     OW 7844   3.022   2.069   3.339
 2129SOL    HW1 7845   3.022   2.133   3.416
 2129SOL    HW2 7846   3.050   2.117   3.256
 2130SOL     OW 7847   1.870   3.188   2.062
 2130SOL    HW1 7848   1.777   3.209   2.031
 2130SOL    HW2 7849   1.880   3.089   2.075
 2131SOL     OW 7850   1.950   3.663   2.789
 2131SOL    HW1 7851   1.908   3.577   2.762
 2131SOL    HW2 7852   2.044   3.666   2.755
 2132SOL     OW 7853   2.366   3.430   2.772
 2132SOL    HW1 7854   2.432   3.504   2.781
 2132SOL    HW2 7855   2.410   3.351   2.730
 2133SOL     OW 7856   1.902   2.406   2.976
 2133SOL    HW1 7857   1.987   2.373   2.935
 2133SOL    HW2 7858   1.915   2.421   3.074
 2134SOL     OW 7859   2.051   2.382   3.584
 2134SOL    HW1 7860   2.110   2.342   3.514
 2134SOL    HW2 7861   1.993   2.453   3.543
 2135SOL     OW 7862   2.677   2.434   2.187
 2135SOL    HW1 7863   2.684   2.345   2.141
 2135SOL    HW2 7864   2.583   2.468   2.179
 2136SOL     OW 7865   3.519   2.466   3.068
 2136SOL    HW1 7866   3.481   2.397   3.130
 2136SOL    HW2 7867   3.601   2.430   3.024
 2137SOL     OW 7868   2.114   3.426   3.606
 2137SOL    HW1 7869   2.084   3.483   3.682
 2137SOL    HW2 7870   2.107   3.329   3.632
 2138SOL     OW 7871   2.533   2.326   3.131
 2138SOL    HW1 7872   2.499   2.237   3.101
 2138SOL    HW2 7873   2.559   2.380   3.051
 2139SOL     OW 7874   2.792   3.540   3.327
 2139SOL    HW1 7875   2.768   3.522   3.232
 2139SOL    HW2 7876   2.822   3.634   3.337
 2140SOL     OW 7877   2.335   2.362   2.053
 2140SOL    HW1 7878   2.396   2.442   2.057
 2140SOL    HW2 7879   2.240   2.393   2.060
 2141SOL     OW 7880   2.021   2.999   3.328
 2141SOL    HW1 7881   2.043   2.938   3.404
 2141SOL    HW2 7882   2.031   2.950   3.242
 2142SOL     OW 7883   3.164   2.717   2.171
 2142SOL    HW1 7884   3.078   2.686   2.213
 2142SOL    HW2 7885   3.160   2.703   2.072
 2143SOL     OW 7886   3.621   3.609   3.016
 2143SOL    HW1 7887   3.682   3.639   2.943
 2143SOL    HW2 7888   3.583   3.520   2.994
 2144SOL     OW 7889   3.114   3.593   2.990
 2144SOL    HW1 7890   3.198   3.598   2.936
 2144SOL    HW2 7891   3.091   3.497   3.008
 2145SOL     OW 7892   1.945   3.120   2.884
 2145SOL    HW1 7893   1.940   3.119   2.984
 2145SOL    HW2 7894   1.862   3.079   2.846
 2146SOL     OW 7895   2.550   3.524   3.578
 2146SOL    HW1 7896   2.494   3.605   3.587
 2146SOL    HW2 7897   2.602   3.528   3.492
 2147SOL     OW 7898   3.588   1.997   2.385
 2147SOL    HW1 7899   3.661   1.980   2.318
 2147SOL    HW2 7900   3.557   1.910   2.423
 2148SOL     OW 7901   3.250   3.435   2.339
 2148SOL    HW1 7902   3.317   3.447   2.265
 2148SOL    HW2 7903   3.210   3.524   2.362
 2149SOL     OW 7904   1.992   3.656   3.713
 2149SOL    HW1 7905   1.951   3.582   3.766
 2149SOL    HW2 7906   2.056   3.707   3.771
 2150SOL     OW 7907   2.692   3.135   3.284
 2150SOL    HW1 7908   2.687   3.168   3.379
 2150SOL    HW2 7909   2.606   3.154   3.238
 2151SOL     OW 7910   2.534   3.478   2.016
 2151SOL    HW1 7911   2.543   3.488   1.917
 2151SOL    HW2 7912   2.494   3.389   2.037
 2152SOL     OW 7913   3.512   3.582   3.256
 2152SOL    HW1 7914   3.565   3.592   3.172
 2152SOL    HW2 7915   3.485   3.672   3.290
 2153SOL     OW 7916   3.703   2.037   2.825
 2153SOL    HW1 7917   3.742   1.952   2.789
 2153SOL    HW2 7918   3.605   2.039   2.806
 2154SOL     OW 7919   3.056   3.474   1.893
 2154SOL    HW1 7920   3.062   3.381   1.930
 2154SOL    HW2 7921   2.997   3.474   1.813
 2155SOL     OW 7922   2.684   2.864   3.234
 2155SOL    HW1 7923   2.724   2.863   3.142
 2155SOL    HW2 7924   2.694   2.956   3.274
 2156SOL     OW 7925   2.778   2.772   2.153
 2156SOL    HW1 7926   2.841   2.810   2.085
 2156SOL    HW2 7927   2.818   2.689   2.192
 2157SOL     OW 7928   3.366   3.469   1.906
 2157SOL    HW1 7929   3.274   3.506   1.913
 2157SOL    HW2 7930   3.404   3.489   1.816
 2158SOL     OW 7931   2.234   3.150   3.352
 2158SOL    HW1 7932   2.221   3.243   3.318
 2158SOL    HW2 7933   2.150   3.098   3.339
 2159SOL     OW 7934   3.476   3.154   3.151
 2159SOL    HW1 7935   3.536   3.157   3.231
 2159SOL    HW2 7936   3.401   3.218   3.164
 2160SOL     OW 7937   2.901   2.960   2.558
 2160SOL    HW1 7938   2.831   2.913   2.612
 2160SOL    HW2 7939   2.960   2.892   2.515
 2161SOL     OW 7940   2.876   2.098   2.833
 2161SOL    HW1 7941   2.868   2.062   2.740
 2161SOL    HW2 7942   2.874   2.022   2.898
 2162SOL     OW 7943   2.117   3.210   2.152
 2162SOL    HW1 7944   2.021   3.211   2.125
 2162SOL    HW2 7945   2.129   3.263   2.236
 2163SOL     OW 7946   1.967   2.875   3.588
 2163SOL    HW1 7947   1.890   2.842   3.642
 2163SOL    HW2 7948   2.052   2.845   3.630
 2164SOL     OW 7949   2.534   2.065   3.351
 2164SOL    HW1 7950   2.624   2.049   3.311
 2164SOL    HW2 7951   2.542   2.070   3.450
 2165SOL     OW 7952   1.937   2.207   1.895
 2165SOL    HW1 7953   1.845   2.179   1.866
 2165SOL    HW2 7954   1.968   2.284   1.839
 2166SOL     OW 7955   1.934   2.028   2.180
 2166SOL    HW1 7956   1.917   2.111   2.126
 2166SOL    HW2 7957   2.024   1.991   2.158
 2167SOL     OW 7958   3.045   3.197   1.981
 2167SOL    HW1 7959   2.946   3.186   1.983
 2167SOL    HW2 7960   3.079   3.212   2.074
 2168SOL     OW 7961   2.475   2.704   3.293
 2168SOL    HW1 7962   2.531   2.785   3.276
 2168SOL    HW2 7963   2.534   2.624   3.296
 2169SOL     OW 7964   3.355   3.629   2.821
 2169SOL    HW1 7965   3.388   3.693   2.752
 2169SOL    HW2 7966   3.421   3.623   2.896
 2170SOL     OW 7967   2.578   2.427   3.570
 2170SOL    HW1 7968   2.597   2.492   3.644
 2170SOL    HW2 7969   2.638   2.347   3.579
 2171SOL     OW 7970   3.312   3.082   3.495
 2171SOL    HW1 7971   3.303   3.072   3.594
 2171SOL    HW2 7972   3.408   3.075   3.469
 2172SOL     OW 7973   2.252   3.603   3.422
 2172SOL    HW1 7974   2.161   3.644   3.420
 2172SOL    HW2 7975   2.245   3.509   3.454
 2173SOL     OW 7976   3.536   2.745   3.116
 2173SOL    HW1 7977   3.509   2.656   3.079
 2173SOL    HW2 7978   3.537   2.813   3.043
 2174SOL     OW 7979   3.087   2.187   2.311
 2174SOL    HW1 7980   3.152   2.113   2.300
 2174SOL    HW2 7981   3.107   2.237   2.395
 2175SOL     OW 7982   3.592   2.796   3.379
 2175SOL    HW1 7983   3.630   2.887   3.394
 2175SOL    HW2 7984   3.584   2.779   3.280
 2176SOL     OW 7985   2.721   3.236   1.878
 2176SOL    HW1 7986   2.675   3.251   1.966
 2176SOL    HW2 7987   2.765   3.321   1.848
 2177SOL     OW 7988   2.523   3.652   2.815
 2177SOL    HW1 7989   2.477   3.740   2.802
 2177SOL    HW2 7990   2.622   3.664   2.808
 2178SOL     OW 7991   2.945   2.846   1.949
 2178SOL    HW1 7992   2.922   2.899   1.867
 2178SOL    HW2 7993   3.026   2.790   1.930
 2179SOL     OW 7994   3.723   3.431   2.713
 2179SOL    HW1 7995   3.652   3.419   2.643
 2179SOL    HW2 7996   3.724   3.352   2.773
 2180SOL     OW 7997   2.083   3.176   3.706
 2180SOL    HW1 7998   2.018   3.103   3.685
 2180SOL    HW2 7999   2.087   3.190   3.804
 2181SOL     OW 8000   1.941   3.102   2.515
 2181SOL    HW1 8001   1.940   3.055   2.603
 2181SOL    HW2 8002   2.023   3.074   2.464
 2182SOL     OW 8003   2.534   3.253   3.486
 2182SOL    HW1 8004   2.456   3.203   3.524
 2182SOL    HW2 8005   2.531   3.348   3.517
 2183SOL     OW 8006   3.686   2.054   3.089
 2183SOL    HW1 8007   3.682   1.964   3.133
 2183SOL    HW2 8008   3.689   2.043   2.990
 2184SOL     OW 8009   3.567   3.349   2.966
 2184SOL    HW1 8010   3.474   3.324   2.939
 2184SOL    HW2 8011   3.593   3.299   3.048
 2185SOL     OW 8012   2.179   2.409   3.142
 2185SOL    HW1 8013   2.217   2.350   3.214
 2185SOL    HW2 8014   2.219   2.383   3.054
 2186SOL     OW 8015   2.674   3.448   2.549
 2186SOL    HW1 8016   2.706   3.458   2.455
 2186SOL    HW2 8017   2.595   3.386   2.551
 2187SOL     OW 8018   3.286   2.076   2.974
 2187SOL    HW1 8019   3.338   2.011   3.029
 2187SOL    HW2 8020   3.237   2.139   3.035
 2188SOL     OW 8021   2.863   1.896   3.016
 2188SOL    HW1 8022   2.800   1.824   2.985
 2188SOL    HW2 8023   2.956   1.860   3.016
 2189SOL     OW 8024   2.632   3.192   2.163
 2189SOL    HW1 8025   2.586   3.105   2.180
 2189SOL    HW2 8026   2.723   3.189   2.204
 2190SOL     OW 8027   2.480   3.429   3.146
 2190SOL    HW1 8028   2.475   3.511   3.203
 2190SOL    HW2 8029   2.569   3.426   3.101
 2191SOL     OW 8030   3.214   1.914   2.030
 2191SOL    HW1 8031   3.249   1.873   1.946
 2191SOL    HW2 8032   3.124   1.876   2.050
 2192SOL     OW 8033   3.455   2.083   2.744
 2192SOL    HW1 8034   3.371   2.082   2.798
 2192SOL    HW2 8035   3.457   2.166   2.688
 2193SOL     OW 8036   1.901   2.939   2.162
 2193SOL    HW1 8037   2.000   2.928   2.153
 2193SOL    HW2 8038   1.861   2.853   2.194
 2194SOL     OW 8039   2.737   3.508   2.199
 2194SOL    HW1 8040   2.660   3.473   2.145
 2194SOL    HW2 8041   2.705   3.579   2.261
 2195SOL     OW 8042   2.092   2.490   3.837
 2195SOL    HW1 8043   1.999   2.488   3.874
 2195SOL    HW2 8044   2.093   2.451   3.745
 2196SOL     OW 8045   2.087   2.137   4.720
 2196SOL    HW1 8046   2.122   2.120   4.812
 2196SOL    HW2 8047   1.999   2.092   4.708
 2197SOL     OW 8048   1.881   2.230   4.371
 2197SOL    HW1 8049   1.799   2.273   4.410
 2197SOL    HW2 8050   1.853   2.157   4.308
 2198SOL     OW 8051   2.431   3.137   4.889
 2198SOL    HW1 8052   2.338   3.130   4.852
 2198SOL    HW2 8053   2.442   3.226   4.933
 2199SOL     OW 8054   2.997   2.565   4.441
 2199SOL    HW1 8055   3.054   2.643   4.416
 2199SOL    HW2 8056   2.937   2.591   4.517
 2200SOL     OW 8057   3.617   2.469   3.955
 2200SOL    HW1 8058   3.605   2.456   3.856
 2200SOL    HW2 8059   3.587   2.388   4.004
 2201SOL     OW 8060   2.630   3.006   4.747
 2201SOL    HW1 8061   2.552   3.023   4.807
 2201SOL    HW2 8062   2.664   3.093   4.711
 2202SOL     OW 8063   2.547   2.874   4.389
 2202SOL    HW1 8064   2.616   2.858   4.459
 2202SOL    HW2 8065   2.474   2.931   4.427
 2203SOL     OW 8066   2.197   3.297   4.785
 2203SOL    HW1 8067   2.119   3.266   4.732
 2203SOL    HW2 8068   2.255   3.355   4.728
 2204SOL     OW 8069   3.465   2.309   4.461
 2204SOL    HW1 8070   3.391   2.355   4.411
 2204SOL    HW2 8071   3.516   2.377   4.514
 2205SOL     OW 8072   2.093   3.575   4.207
 2205SOL    HW1 8073   2.127   3.652   4.261
 2205SOL    HW2 8074   2.137   3.575   4.117
 2206SOL     OW 8075   2.092   3.296   4.262
 2206SOL    HW1 8076   2.066   3.392   4.262
 2206SOL    HW2 8077   2.021   3.242   4.307
 2207SOL     OW 8078   2.102   2.953   4.610
 2207SOL    HW1 8079   2.116   2.869   4.662
 2207SOL    HW2 8080   2.047   3.017   4.665
 2208SOL     OW 8081   2.482   3.648   5.163
 2208SOL    HW1 8082   2.390   3.631   5.198
 2208SOL    HW2 8083   2.510   3.740   5.189
 2209SOL     OW 8084   2.468   2.826   3.847
 2209SOL    HW1 8085   2.475   2.910   3.793
 2209SOL    HW2 8086   2.514   2.839   3.935
 2210SOL     OW 8087   1.984   2.505   4.287
 2210SOL    HW1 8088   1.939   2.417   4.304
 2210SOL    HW2 8089   1.983   2.559   4.371
 2211SOL     OW 8090   1.889   3.458   3.841
 2211SOL    HW1 8091   1.870   3.362   3.862
 2211SOL    HW2 8092   1.856   3.516   3.916
 2212SOL     OW 8093   3.551   2.784   4.336
 2212SOL    HW1 8094   3.646   2.755   4.344
 2212SOL    HW2 8095   3.543   2.849   4.261
 2213SOL     OW 8096   3.503   2.970   4.156
 2213SOL    HW1 8097   3.589   2.972   4.104
 2213SOL    HW2 8098   3.517   3.017   4.244
 2214SOL     OW 8099   2.475   3.227   4.450
 2214SOL    HW1 8100   2.426   3.140   4.459
 2214SOL    HW2 8101   2.452   3.270   4.363
 2215SOL     OW 8102   2.671   1.866   4.226
 2215SOL    HW1 8103   2.711   1.957   4.217
 2215SOL    HW2 8104   2.571   1.874   4.232
 2216SOL     OW 8105   2.059   2.838   4.988
 2216SOL    HW1 8106   2.148   2.793   4.974
 2216SOL    HW2 8107   1.986   2.773   4.969
 2217SOL     OW 8108   2.460   2.591   3.994
 2217SOL    HW1 8109   2.484   2.660   3.926
 2217SOL    HW2 8110   2.382   2.624   4.048
 2218SOL     OW 8111   3.143   2.207   4.668
 2218SOL    HW1 8112   3.057   2.157   4.655
 2218SOL    HW2 8113   3.205   2.153   4.724
 2219SOL     OW 8114   2.853   2.272   4.966
 2219SOL    HW1 8115   2.776   2.306   5.020
 2219SOL    HW2 8116   2.819   2.221   4.887
 2220SOL     OW 8117   2.903   2.563   4.153
 2220SOL    HW1 8118   2.929   2.559   4.249
 2220SOL    HW2 8119   2.818   2.512   4.139
 2221SOL     OW 8120   1.938   2.673   4.513
 2221SOL    HW1 8121   2.037   2.661   4.522
 2221SOL    HW2 8122   1.914   2.768   4.534
 2222SOL     OW 8123   2.727   2.210   3.919
 2222SOL    HW1 8124   2.786   2.273   3.870
 2222SOL    HW2 8125   2.746   2.116   3.890
 2223SOL     OW 8126   2.412   2.058   4.609
 2223SOL    HW1 8127   2.407   2.053   4.709
 2223SOL    HW2 8128   2.414   2.154   4.580
 2224SOL     OW 8129   2.870   3.318   4.201
 2224SOL    HW1 8130   2.824   3.390   4.149
 2224SOL    HW2 8131   2.866   3.338   4.299
 2225SOL     OW 8132   2.213   3.663   4.577
 2225SOL    HW1 8133   2.263   3.577   4.583
 2225SOL    HW2 8134   2.278   3.740   4.574
 2226SOL     OW 8135   3.657   2.928   4.597
 2226SOL    HW1 8136   3.595   2.913   4.521
 2226SOL    HW2 8137   3.605   2.939   4.682
 2227SOL     OW 8138   2.183   2.805   3.966
 2227SOL    HW1 8139   2.265   2.844   3.924
 2227SOL    HW2 8140   2.156   2.723   3.917
 2228SOL     OW 8141   3.320   2.597   4.452
 2228SOL    HW1 8142   3.315   2.532   4.527
 2228SOL    HW2 8143   3.400   2.656   4.465
 2229SOL     OW 8144   2.973   3.638   3.961
 2229SOL    HW1 8145   2.913   3.576   4.011
 2229SOL    HW2 8146   3.004   3.594   3.876
 2230SOL     OW 8147   3.494   3.239   3.805
 2230SOL    HW1 8148   3.462   3.333   3.795
 2230SOL    HW2 8149   3.418   3.176   3.793
 2231SOL     OW 8150   2.326   3.605   4.047
 2231SOL    HW1 8151   2.359   3.644   4.133
 2231SOL    HW2 8152   2.402   3.598   3.982
 2232SOL     OW 8153   3.262   1.969   4.150
 2232SOL    HW1 8154   3.238   1.932   4.060
 2232SOL    HW2 8155   3.361   1.985   4.154
 2233SOL     OW 8156   2.111   3.647   4.965
 2233SOL    HW1 8157   2.168   3.582   5.015
 2233SOL    HW2 8158   2.095   3.614   4.872
 2234SOL     OW 8159   2.802   3.560   4.628
 2234SOL    HW1 8160   2.882   3.503   4.649
 2234SOL    HW2 8161   2.753   3.520   4.551
 2235SOL     OW 8162   2.244   2.562   4.204
 2235SOL    HW1 8163   2.289   2.472   4.201
 2235SOL    HW2 8164   2.150   2.551   4.237
 2236SOL     OW 8165   2.476   1.984   3.841
 2236SOL    HW1 8166   2.574   1.962   3.848
 2236SOL    HW2 8167   2.445   1.967   3.748
 2237SOL     OW 8168   2.665   3.264   4.648
 2237SOL    HW1 8169   2.755   3.278   4.606
 2237SOL    HW2 8170   2.594   3.266   4.577
 2238SOL     OW 8171   2.784   2.365   4.623
 2238SOL    HW1 8172   2.759   2.356   4.527
 2238SOL    HW2 8173   2.832   2.283   4.654
 2239SOL     OW 8174   2.401   1.926   4.236
 2239SOL    HW1 8175   2.320   1.927   4.294
 2239SOL    HW2 8176   2.404   2.009   4.181
 2240SOL     OW 8177   3.296   3.050   3.765
 2240SOL    HW1 8178   3.328   2.974   3.822
 2240SOL    HW2 8179   3.204   3.077   3.795
 2241SOL     OW 8180   2.159   1.897   3.895
 2241SOL    HW1 8181   2.208   1.981   3.874
 2241SOL    HW2 8182   2.221   1.832   3.940
 2242SOL     OW 8183   2.797   2.098   4.204
 2242SOL    HW1 8184   2.749   2.139   4.126
 2242SOL    HW2 8185   2.896   2.096   4.185
 2243SOL     OW 8186   3.089   3.432   4.517
 2243SOL    HW1 8187   3.110   3.506   4.452
 2243SOL    HW2 8188   3.157   3.432   4.590
 2244SOL     OW 8189   2.321   3.014   4.465
 2244SOL    HW1 8190   2.250   2.987   4.530
 2244SOL    HW2 8191   2.295   2.986   4.372
 2245SOL     OW 8192   3.133   3.659   4.315
 2245SOL    HW1 8193   3.177   3.723   4.251
 2245SOL    HW2 8194   3.083   3.711   4.385
 2246SOL     OW 8195   2.423   2.084   4.871
 2246SOL    HW1 8196   2.461   2.000   4.908
 2246SOL    HW2 8197   2.335   2.103   4.915
 2247SOL     OW 8198   2.728   2.316   4.366
 2247SOL    HW1 8199   2.696   2.388   4.304
 2247SOL    HW2 8200   2.752   2.235   4.313
 2248SOL     OW 8201   2.879   1.901   4.477
 2248SOL    HW1 8202   2.807   1.906   4.408
 2248SOL    HW2 8203   2.855   1.832   4.546
 2249SOL     OW 8204   3.328   2.452   4.716
 2249SOL    HW1 8205   3.298   2.357   4.723
 2249SOL    HW2 8206   3.401   2.468   4.782
 2250SOL     OW 8207   3.719   2.695   4.101
 2250SOL    HW1 8208   3.761   2.631   4.165
 2250SOL    HW2 8209   3.681   2.644   4.023
 2251SOL     OW 8210   2.350   3.247   3.898
 2251SOL    HW1 8211   2.263   3.232   3.945
 2251SOL    HW2 8212   2.333   3.273   3.803
 2252SOL     OW 8213   3.526   3.142   4.381
 2252SOL    HW1 8214   3.625   3.150   4.395
 2252SOL    HW2 8215   3.481   3.226   4.412
 2253SOL     OW 8216   3.252   2.437   3.802
 2253SOL    HW1 8217   3.198   2.416   3.883
 2253SOL    HW2 8218   3.343   2.396   3.811
 2254SOL     OW 8219   2.389   2.118   4.052
 2254SOL    HW1 8220   2.416   2.059   3.977
 2254SOL    HW2 8221   2.389   2.213   4.021
 2255SOL     OW 8222   2.567   2.912   4.092
 2255SOL    HW1 8223   2.553   2.919   4.191
 2255SOL    HW2 8224   2.651   2.861   4.074
 2256SOL     OW 8225   2.272   2.675   4.975
 2256SOL    HW1 8226   2.358   2.687   5.025
 2256SOL    HW2 8227   2.230   2.588   5.002
 2257SOL     OW 8228   3.136   2.248   4.986
 2257SOL    HW1 8229   3.157   2.322   5.050
 2257SOL    HW2 8230   3.047   2.265   4.943
 2258SOL     OW 8231   2.229   2.962   4.225
 2258SOL    HW1 8232   2.222   3.045   4.169
 2258SOL    HW2 8233   2.233   2.882   4.165
 2259SOL     OW 8234   2.428   2.399   4.589
 2259SOL    HW1 8235   2.440   2.465   4.515
 2259SOL    HW2 8236   2.474   2.433   4.672
 2260SOL     OW 8237   3.114   3.210   4.112
 2260SOL    HW1 8238   3.164   3.287   4.152
 2260SOL    HW2 8239   3.019   3.212   4.144
 2261SOL     OW 8240   3.444   2.501   4.196
 2261SOL    HW1 8241   3.413   2.562   4.269
 2261SOL    HW2 8242   3.494   2.553   4.127
 2262SOL     OW 8243   2.216   3.372   5.053
 2262SOL    HW1 8244   2.195   3.328   4.966
 2262SOL    HW2 8245   2.313   3.398   5.056
 2263SOL     OW 8246   2.435   2.732   4.753
 2263SOL    HW1 8247   2.479   2.821   4.744
 2263SOL    HW2 8248   2.372   2.732   4.830
 2264SOL     OW 8249   3.222   2.724   4.769
 2264SOL    HW1 8250   3.147   2.724   4.703
 2264SOL    HW2 8251   3.259   2.632   4.778
 2265SOL     OW 8252   3.071   2.387   3.999
 2265SOL    HW1 8253   3.084   2.303   4.053
 2265SOL    HW2 8254   3.042   2.461   4.059
 2266SOL     OW 8255   2.169   2.075   4.955
 2266SOL    HW1 8256   2.146   2.112   5.045
 2266SOL    HW2 8257   2.139   1.980   4.949
 2267SOL     OW 8258   1.899   3.172   5.006
 2267SOL    HW1 8259   1.952   3.123   5.074
 2267SOL    HW2 8260   1.921   3.270   5.011
 2268SOL     OW 8261   2.594   2.496   4.788
 2268SOL    HW1 8262   2.653   2.470   4.712
 2268SOL    HW2 8263   2.566   2.592   4.777
 2269SOL     OW 8264   2.169   1.925   4.342
 2269SOL    HW1 8265   2.158   2.019   4.375
 2269SOL    HW2 8266   2.164   1.862   4.419
 2270SOL     OW 8267   3.484   2.229   4.098
 2270SOL    HW1 8268   3.486   2.153   4.162
 2270SOL    HW2 8269   3.436   2.306   4.138
 2271SOL     OW 8270   2.885   2.628   4.690
 2271SOL    HW1 8271   2.900   2.649   4.786
 2271SOL    HW2 8272   2.855   2.533   4.681
 2272SOL     OW 8273   3.402   2.136   3.849
 2272SOL    HW1 8274   3.341   2.061   3.872
 2272SOL    HW2 8275   3.424   2.188   3.932
 2273SOL     OW 8276   2.181   2.672   4.673
 2273SOL    HW1 8277   2.274   2.708   4.678
 2273SOL    HW2 8278   2.175   2.587   4.725
 2274SOL     OW 8279   2.201   2.371   4.730
 2274SOL    HW1 8280   2.149   2.288   4.713
 2274SOL    HW2 8281   2.278   2.376   4.666
 2275SOL     OW 8282   3.022   2.069   5.201
 2275SOL    HW1 8283   3.022   2.133   5.278
 2275SOL    HW2 8284   3.050   2.117   5.118
 2276SOL     OW 8285   1.870   3.188   3.924
 2276SOL    HW1 8286   1.777   3.209   3.893
 2276SOL    HW2 8287   1.880   3.089   3.937
 2277SOL     OW 8288   1.950   3.663   4.651
 2277SOL    HW1 8289   1.908   3.577   4.624
 2277SOL    HW2 8290   2.044   3.666   4.617
 2278SOL     OW 8291   2.366   3.430   4.634
 2278SOL    HW1 8292   2.432   3.504   4.643
 2278SOL    HW2 8293   2.410   3.351   4.592
 2279SOL     OW 8294   2.864   2.658   4.962
 2279SOL    HW1 8295   2.905   2.626   5.048
 2279SOL    HW2 8296   2.768   2.631   4.959
 2280SOL     OW 8297   1.902   2.406   4.838
 2280SOL    HW1 8298   1.987   2.373   4.797
 2280SOL    HW2 8299   1.915   2.421   4.936
 2281SOL     OW 8300   2.677   2.434   4.049
 2281SOL    HW1 8301   2.684   2.345   4.003
 2281SOL    HW2 8302   2.583   2.468   4.041
 2282SOL     OW 8303   3.519   2.466   4.930
 2282SOL    HW1 8304   3.481   2.397   4.992
 2282SOL    HW2 8305   3.601   2.430   4.886
 2283SOL     OW 8306   2.533   2.326   4.993
 2283SOL    HW1 8307   2.499   2.237   4.963
 2283SOL    HW2 8308   2.559   2.380   4.913
 2284SOL     OW 8309   2.792   3.540   5.189
 2284SOL    HW1 8310   2.768   3.522   5.094
 2284SOL    HW2 8311   2.822   3.634   5.199
 2285SOL     OW 8312   2.335   2.362   3.915
 2285SOL    HW1 8313   2.396   2.442   3.919
 2285SOL    HW2 8314   2.240   2.393   3.922
 2286SOL     OW 8315   3.621   3.609   4.878
 2286SOL    HW1 8316   3.682   3.639   4.805
 2286SOL    HW2 8317   3.583   3.520   4.856
 2287SOL     OW 8318   3.114   3.593   4.852
 2287SOL    HW1 8319   3.198   3.598   4.798
 2287SOL    HW2 8320   3.091   3.497   4.870
 2288SOL     OW 8321   1.945   3.120   4.746
 2288SOL    HW1 8322   1.940   3.119   4.846
 2288SOL    HW2 8323   1.862   3.079   4.708
 2289SOL     OW 8324   3.588   1.997   4.247
 2289SOL    HW1 8325   3.661   1.980   4.180
 2289SOL    HW2 8326   3.557   1.910   4.285
 2290SOL     OW 8327   3.250   3.435   4.201
 2290SOL    HW1 8328   3.317   3.447   4.127
 2290SOL    HW2 8329   3.210   3.524   4.224
 2291SOL     OW 8330   2.534   3.478   3.878
 2291SOL    HW1 8331   2.543   3.488   3.779
 2291SOL    HW2 8332   2.494   3.389   3.899
 2292SOL     OW 8333   3.703   2.037   4.687
 2292SOL    HW1 8334   3.742   1.952   4.651
 2292SOL    HW2 8335   3.605   2.039   4.668
 2293SOL     OW 8336   2.125   2.188   4.444
 2293SOL    HW1 8337   2.046   2.239   4.410
 2293SOL    HW2 8338   2.116   2.173   4.542
 2294SOL     OW 8339   3.056   3.474   3.755
 2294SOL    HW1 8340   3.062   3.381   3.792
 2294SOL    HW2 8341   2.997   3.474   3.675
 2295SOL     OW 8342   2.684   2.864   5.096
 2295SOL    HW1 8343   2.724   2.863   5.004
 2295SOL    HW2 8344   2.694   2.956   5.136
 2296SOL     OW 8345   2.778   2.772   4.015
 2296SOL    HW1 8346   2.841   2.810   3.947
 2296SOL    HW2 8347   2.818   2.689   4.054
 2297SOL     OW 8348   3.366   3.469   3.768
 2297SOL    HW1 8349   3.274   3.506   3.775
 2297SOL    HW2 8350   3.404   3.489   3.678
 2298SOL     OW 8351   2.901   2.960   4.420
 2298SOL    HW1 8352   2.831   2.913   4.474
 2298SOL    HW2 8353   2.960   2.892   4.377
 2299SOL     OW 8354   2.876   2.098   4.695
 2299SOL    HW1 8355   2.868   2.062   4.602
 2299SOL    HW2 8356   2.874   2.022   4.760
 2300SOL     OW 8357   2.452   3.349   4.215
 2300SOL    HW1 8358   2.494   3.291   4.145
 2300SOL    HW2 8359   2.408   3.428   4.171
 2301SOL     OW 8360   2.117   3.210   4.014
 2301SOL    HW1 8361   2.021   3.211   3.987
 2301SOL    HW2 8362   2.129   3.263   4.098
 2302SOL     OW 8363   1.937   2.207   3.757
 2302SOL    HW1 8364   1.845   2.179   3.728
 2302SOL    HW2 8365   1.968   2.284   3.701
 2303SOL     OW 8366   1.934   2.028   4.042
 2303SOL    HW1 8367   1.917   2.111   3.988
 2303SOL    HW2 8368   2.024   1.991   4.020
 2304SOL     OW 8369   3.045   3.197   3.843
 2304SOL    HW1 8370   2.946   3.186   3.845
 2304SOL    HW2 8371   3.079   3.212   3.936
 2305SOL     OW 8372   3.355   3.629   4.683
 2305SOL    HW1 8373   3.388   3.693   4.614
 2305SOL    HW2 8374   3.421   3.623   4.758
 2306SOL     OW 8375   3.087   2.187   4.173
 2306SOL    HW1 8376   3.152   2.113   4.162
 2306SOL    HW2 8377   3.107   2.237   4.257
 2307SOL     OW 8378   2.456   2.607   4.376
 2307SOL    HW1 8379   2.506   2.692   4.357
 2307SOL    HW2 8380   2.368   2.609   4.328
 2308SOL     OW 8381   3.592   2.796   5.241
 2308SOL    HW1 8382   3.630   2.887   5.256
 2308SOL    HW2 8383   3.584   2.779   5.142
 2309SOL     OW 8384   2.721   3.236   3.740
 2309SOL    HW1 8385   2.675   3.251   3.828
 2309SOL    HW2 8386   2.765   3.321   3.710
 2310SOL     OW 8387   2.523   3.652   4.677
 2310SOL    HW1 8388   2.477   3.740   4.664
 2310SOL    HW2 8389   2.622   3.664   4.670
 2311SOL     OW 8390   2.721   2.818   4.585
 2311SOL    HW1 8391   2.775   2.749   4.633
 2311SOL    HW2 8392   2.689   2.887   4.651
 2312SOL     OW 8393   1.941   3.102   4.377
 2312SOL    HW1 8394   1.940   3.055   4.465
 2312SOL    HW2 8395   2.023   3.074   4.326
 2313SOL     OW 8396   3.686   2.054   4.951
 2313SOL    HW1 8397   3.682   1.964   4.995
 2313SOL    HW2 8398   3.689   2.043   4.852
 2314SOL     OW 8399   2.290   2.286   4.244
 2314SOL    HW1 8400   2.320   2.214   4.182
 2314SOL    HW2 8401   2.251   2.246   4.327
 2315SOL     OW 8402   3.567   3.349   4.828
 2315SOL    HW1 8403   3.474   3.324   4.801
 2315SOL    HW2 8404   3.593   3.299   4.910
 2316SOL     OW 8405   2.674   3.448   4.411
 2316SOL    HW1 8406   2.706   3.458   4.317
 2316SOL    HW2 8407   2.595   3.386   4.413
 2317SOL     OW 8408   3.286   2.076   4.836
 2317SOL    HW1 8409   3.338   2.011   4.891
 2317SOL    HW2 8410   3.237   2.139   4.897
 2318SOL     OW 8411   2.863   1.896   4.878
 2318SOL    HW1 8412   2.800   1.824   4.847
 2318SOL    HW2 8413   2.956   1.860   4.878
 2319SOL     OW 8414   2.632   3.192   4.025
 2319SOL    HW1 8415   2.586   3.105   4.042
 2319SOL    HW2 8416   2.723   3.189   4.066
 2320SOL     OW 8417   3.214   1.914   3.892
 2320SOL    HW1 8418   3.249   1.873   3.808
 2320SOL    HW2 8419   3.124   1.876   3.912
 2321SOL     OW 8420   3.162   2.315   4.415
 2321SOL    HW1 8421   3.103   2.395   4.419
 2321SOL    HW2 8422   3.177   2.280   4.508
 2322SOL     OW 8423   3.455   2.083   4.606
 2322SOL    HW1 8424   3.371   2.082   4.660
 2322SOL    HW2 8425   3.457   2.166   4.550
 2323SOL     OW 8426   1.901   2.939   4.024
 2323SOL    HW1 8427   2.000   2.928   4.015
 2323SOL    HW2 8428   1.861   2.853   4.056
 2324SOL     OW 8429   2.737   3.508   4.061
 2324SOL    HW1 8430   2.660   3.473   4.007
 2324SOL    HW2 8431   2.705   3.579   4.123
 2325SOL     OW 8432   2.092   4.352   0.113
 2325SOL    HW1 8433   1.999   4.350   0.150
 2325SOL    HW2 8434   2.093   4.313   0.021
 2326SOL     OW 8435   2.087   3.999   0.996
 2326SOL    HW1 8436   2.122   3.982   1.088
 2326SOL    HW2 8437   1.999   3.954   0.984
 2327SOL     OW 8438   1.881   4.092   0.647
 2327SOL    HW1 8439   1.799   4.135   0.686
 2327SOL    HW2 8440   1.853   4.019   0.584
 2328SOL     OW 8441   2.431   4.999   1.165
 2328SOL    HW1 8442   2.338   4.992   1.128
 2328SOL    HW2 8443   2.442   5.088   1.209
 2329SOL     OW 8444   3.417   5.235   0.703
 2329SOL    HW1 8445   3.360   5.219   0.784
 2329SOL    HW2 8446   3.358   5.245   0.623
 2330SOL     OW 8447   2.997   4.427   0.717
 2330SOL    HW1 8448   3.054   4.505   0.692
 2330SOL    HW2 8449   2.937   4.453   0.793
 2331SOL     OW 8450   3.617   4.331   0.231
 2331SOL    HW1 8451   3.605   4.318   0.132
 2331SOL    HW2 8452   3.587   4.250   0.280
 2332SOL     OW 8453   2.630   4.868   1.023
 2332SOL    HW1 8454   2.552   4.885   1.083
 2332SOL    HW2 8455   2.664   4.955   0.987
 2333SOL     OW 8456   2.712   4.522   1.823
 2333SOL    HW1 8457   2.708   4.598   1.888
 2333SOL    HW2 8458   2.734   4.558   1.732
 2334SOL     OW 8459   2.547   4.736   0.665
 2334SOL    HW1 8460   2.616   4.720   0.735
 2334SOL    HW2 8461   2.474   4.793   0.703
 2335SOL     OW 8462   2.548   4.885   1.803
 2335SOL    HW1 8463   2.608   4.964   1.817
 2335SOL    HW2 8464   2.462   4.916   1.762
 2336SOL     OW 8465   2.197   5.159   1.061
 2336SOL    HW1 8466   2.119   5.128   1.008
 2336SOL    HW2 8467   2.255   5.217   1.004
 2337SOL     OW 8468   3.465   4.171   0.737
 2337SOL    HW1 8469   3.391   4.217   0.687
 2337SOL    HW2 8470   3.516   4.239   0.790
 2338SOL     OW 8471   2.102   4.815   0.886
 2338SOL    HW1 8472   2.116   4.731   0.938
 2338SOL    HW2 8473   2.047   4.879   0.941
 2339SOL     OW 8474   2.468   4.688   0.123
 2339SOL    HW1 8475   2.475   4.772   0.069
 2339SOL    HW2 8476   2.514   4.701   0.211
 2340SOL     OW 8477   3.456   3.838   1.480
 2340SOL    HW1 8478   3.438   3.905   1.408
 2340SOL    HW2 8479   3.453   3.884   1.569
 2341SOL     OW 8480   1.984   4.367   0.563
 2341SOL    HW1 8481   1.939   4.279   0.580
 2341SOL    HW2 8482   1.983   4.421   0.647
 2342SOL     OW 8483   3.551   4.646   0.612
 2342SOL    HW1 8484   3.646   4.617   0.620
 2342SOL    HW2 8485   3.543   4.711   0.537
 2343SOL     OW 8486   3.503   4.832   0.432
 2343SOL    HW1 8487   3.589   4.834   0.380
 2343SOL    HW2 8488   3.517   4.879   0.520
 2344SOL     OW 8489   1.975   4.461   1.597
 2344SOL    HW1 8490   2.063   4.448   1.642
 2344SOL    HW2 8491   1.962   4.558   1.575
 2345SOL     OW 8492   3.155   4.952   1.423
 2345SOL    HW1 8493   3.192   4.879   1.365
 2345SOL    HW2 8494   3.207   4.957   1.508
 2346SOL     OW 8495   2.671   3.728   0.502
 2346SOL    HW1 8496   2.711   3.819   0.493
 2346SOL    HW2 8497   2.571   3.736   0.508
 2347SOL     OW 8498   2.059   4.700   1.264
 2347SOL    HW1 8499   2.148   4.655   1.250
 2347SOL    HW2 8500   1.986   4.635   1.245
 2348SOL     OW 8501   3.387   4.723   0.190
 2348SOL    HW1 8502   3.324   4.647   0.203
 2348SOL    HW2 8503   3.435   4.741   0.276
 2349SOL     OW 8504   3.328   5.141   0.953
 2349SOL    HW1 8505   3.269   5.147   1.033
 2349SOL    HW2 8506   3.313   5.053   0.907
 2350SOL     OW 8507   2.460   4.453   0.270
 2350SOL    HW1 8508   2.484   4.522   0.202
 2350SOL    HW2 8509   2.382   4.486   0.324
 2351SOL     OW 8510   3.143   4.069   0.944
 2351SOL    HW1 8511   3.057   4.019   0.931
 2351SOL    HW2 8512   3.205   4.015   1.000
 2352SOL     OW 8513   2.835   4.614   1.572
 2352SOL    HW1 8514   2.881   4.530   1.543
 2352SOL    HW2 8515   2.779   4.648   1.497
 2353SOL     OW 8516   2.853   4.134   1.242
 2353SOL    HW1 8517   2.776   4.168   1.296
 2353SOL    HW2 8518   2.819   4.083   1.163
 2354SOL     OW 8519   2.903   4.425   0.429
 2354SOL    HW1 8520   2.929   4.421   0.525
 2354SOL    HW2 8521   2.818   4.374   0.415
 2355SOL     OW 8522   1.938   4.535   0.789
 2355SOL    HW1 8523   2.037   4.523   0.798
 2355SOL    HW2 8524   1.914   4.630   0.810
 2356SOL     OW 8525   2.727   4.072   0.195
 2356SOL    HW1 8526   2.786   4.135   0.146
 2356SOL    HW2 8527   2.746   3.978   0.166
 2357SOL     OW 8528   3.224   4.868   0.545
 2357SOL    HW1 8529   3.307   4.839   0.497
 2357SOL    HW2 8530   3.175   4.935   0.489
 2358SOL     OW 8531   2.412   3.920   0.885
 2358SOL    HW1 8532   2.407   3.915   0.985
 2358SOL    HW2 8533   2.414   4.016   0.856
 2359SOL     OW 8534   3.657   4.790   0.873
 2359SOL    HW1 8535   3.595   4.775   0.797
 2359SOL    HW2 8536   3.605   4.801   0.958
 2360SOL     OW 8537   2.183   4.667   0.242
 2360SOL    HW1 8538   2.265   4.706   0.200
 2360SOL    HW2 8539   2.156   4.585   0.193
 2361SOL     OW 8540   3.320   4.459   0.728
 2361SOL    HW1 8541   3.315   4.394   0.803
 2361SOL    HW2 8542   3.400   4.518   0.741
 2362SOL     OW 8543   2.064   4.009   1.498
 2362SOL    HW1 8544   1.984   4.069   1.485
 2362SOL    HW2 8545   2.054   3.960   1.584
 2363SOL     OW 8546   3.494   5.101   0.081
 2363SOL    HW1 8547   3.462   5.195   0.071
 2363SOL    HW2 8548   3.418   5.038   0.069
 2364SOL     OW 8549   3.262   3.831   0.426
 2364SOL    HW1 8550   3.238   3.794   0.336
 2364SOL    HW2 8551   3.361   3.847   0.430
 2365SOL     OW 8552   2.244   4.424   0.480
 2365SOL    HW1 8553   2.289   4.334   0.477
 2365SOL    HW2 8554   2.150   4.413   0.513
 2366SOL     OW 8555   3.409   3.946   1.729
 2366SOL    HW1 8556   3.404   3.983   1.821
 2366SOL    HW2 8557   3.337   3.877   1.717
 2367SOL     OW 8558   2.643   3.988   1.749
 2367SOL    HW1 8559   2.710   3.927   1.792
 2367SOL    HW2 8560   2.570   4.007   1.814
 2368SOL     OW 8561   2.665   5.126   0.924
 2368SOL    HW1 8562   2.755   5.140   0.882
 2368SOL    HW2 8563   2.594   5.128   0.853
 2369SOL     OW 8564   2.784   4.227   0.899
 2369SOL    HW1 8565   2.759   4.218   0.803
 2369SOL    HW2 8566   2.832   4.145   0.930
 2370SOL     OW 8567   2.401   3.788   0.512
 2370SOL    HW1 8568   2.320   3.789   0.570
 2370SOL    HW2 8569   2.404   3.871   0.457
 2371SOL     OW 8570   3.296   4.912   0.041
 2371SOL    HW1 8571   3.328   4.836   0.098
 2371SOL    HW2 8572   3.204   4.939   0.071
 2372SOL     OW 8573   2.159   3.759   0.171
 2372SOL    HW1 8574   2.208   3.843   0.150
 2372SOL    HW2 8575   2.221   3.694   0.216
 2373SOL     OW 8576   2.797   3.960   0.480
 2373SOL    HW1 8577   2.749   4.001   0.402
 2373SOL    HW2 8578   2.896   3.958   0.461
 2374SOL     OW 8579   3.089   5.294   0.793
 2374SOL    HW1 8580   3.110   5.368   0.728
 2374SOL    HW2 8581   3.157   5.294   0.866
 2375SOL     OW 8582   2.321   4.876   0.741
 2375SOL    HW1 8583   2.250   4.849   0.806
 2375SOL    HW2 8584   2.295   4.848   0.648
 2376SOL     OW 8585   2.894   4.273   0.016
 2376SOL    HW1 8586   2.853   4.355  -0.023
 2376SOL    HW2 8587   2.958   4.299   0.089
 2377SOL     OW 8588   1.940   4.280   1.386
 2377SOL    HW1 8589   2.032   4.279   1.345
 2377SOL    HW2 8590   1.934   4.354   1.453
 2378SOL     OW 8591   2.423   3.946   1.147
 2378SOL    HW1 8592   2.461   3.862   1.184
 2378SOL    HW2 8593   2.335   3.965   1.191
 2379SOL     OW 8594   2.728   4.178   0.642
 2379SOL    HW1 8595   2.696   4.250   0.580
 2379SOL    HW2 8596   2.752   4.097   0.589
 2380SOL     OW 8597   2.879   3.763   0.753
 2380SOL    HW1 8598   2.807   3.768   0.684
 2380SOL    HW2 8599   2.855   3.694   0.822
 2381SOL     OW 8600   3.291   4.897   0.867
 2381SOL    HW1 8601   3.236   4.813   0.860
 2381SOL    HW2 8602   3.317   4.926   0.775
 2382SOL     OW 8603   3.328   4.314   0.992
 2382SOL    HW1 8604   3.298   4.219   0.999
 2382SOL    HW2 8605   3.401   4.330   1.058
 2383SOL     OW 8606   3.719   4.557   0.377
 2383SOL    HW1 8607   3.761   4.493   0.441
 2383SOL    HW2 8608   3.681   4.506   0.299
 2384SOL     OW 8609   3.526   5.004   0.657
 2384SOL    HW1 8610   3.625   5.012   0.671
 2384SOL    HW2 8611   3.481   5.088   0.688
 2385SOL     OW 8612   3.252   4.299   0.078
 2385SOL    HW1 8613   3.198   4.278   0.159
 2385SOL    HW2 8614   3.343   4.258   0.087
 2386SOL     OW 8615   2.389   3.980   0.328
 2386SOL    HW1 8616   2.416   3.921   0.253
 2386SOL    HW2 8617   2.389   4.075   0.297
 2387SOL     OW 8618   3.500   4.823   1.079
 2387SOL    HW1 8619   3.505   4.904   1.138
 2387SOL    HW2 8620   3.414   4.825   1.028
 2388SOL     OW 8621   2.777   3.813   1.402
 2388SOL    HW1 8622   2.802   3.793   1.307
 2388SOL    HW2 8623   2.849   3.869   1.444
 2389SOL     OW 8624   2.842   4.840   1.719
 2389SOL    HW1 8625   2.743   4.846   1.729
 2389SOL    HW2 8626   2.865   4.760   1.663
 2390SOL     OW 8627   2.567   4.774   0.368
 2390SOL    HW1 8628   2.553   4.781   0.467
 2390SOL    HW2 8629   2.651   4.723   0.350
 2391SOL     OW 8630   2.272   4.537   1.251
 2391SOL    HW1 8631   2.358   4.549   1.301
 2391SOL    HW2 8632   2.230   4.450   1.278
 2392SOL     OW 8633   3.136   4.110   1.262
 2392SOL    HW1 8634   3.157   4.184   1.326
 2392SOL    HW2 8635   3.047   4.127   1.219
 2393SOL     OW 8636   2.229   4.824   0.501
 2393SOL    HW1 8637   2.222   4.907   0.445
 2393SOL    HW2 8638   2.233   4.744   0.441
 2394SOL     OW 8639   2.428   4.261   0.865
 2394SOL    HW1 8640   2.440   4.327   0.791
 2394SOL    HW2 8641   2.474   4.295   0.948
 2395SOL     OW 8642   3.444   4.363   0.472
 2395SOL    HW1 8643   3.413   4.424   0.545
 2395SOL    HW2 8644   3.494   4.415   0.403
 2396SOL     OW 8645   2.264   4.475   1.598
 2396SOL    HW1 8646   2.332   4.530   1.551
 2396SOL    HW2 8647   2.304   4.387   1.625
 2397SOL     OW 8648   2.875   3.829   1.770
 2397SOL    HW1 8649   2.881   3.914   1.718
 2397SOL    HW2 8650   2.907   3.753   1.713
 2398SOL     OW 8651   2.435   4.594   1.029
 2398SOL    HW1 8652   2.479   4.683   1.020
 2398SOL    HW2 8653   2.372   4.594   1.106
 2399SOL     OW 8654   3.222   4.586   1.045
 2399SOL    HW1 8655   3.147   4.586   0.979
 2399SOL    HW2 8656   3.259   4.494   1.054
 2400SOL     OW 8657   3.071   4.249   0.275
 2400SOL    HW1 8658   3.084   4.165   0.329
 2400SOL    HW2 8659   3.042   4.323   0.335
 2401SOL     OW 8660   2.169   3.937   1.231
 2401SOL    HW1 8661   2.146   3.974   1.321
 2401SOL    HW2 8662   2.139   3.842   1.225
 2402SOL     OW 8663   2.594   4.358   1.064
 2402SOL    HW1 8664   2.653   4.332   0.988
 2402SOL    HW2 8665   2.566   4.454   1.053
 2403SOL     OW 8666   2.169   3.787   0.618
 2403SOL    HW1 8667   2.158   3.881   0.651
 2403SOL    HW2 8668   2.164   3.724   0.695
 2404SOL     OW 8669   3.484   4.091   0.374
 2404SOL    HW1 8670   3.486   4.015   0.438
 2404SOL    HW2 8671   3.436   4.168   0.414
 2405SOL     OW 8672   2.885   4.490   0.966
 2405SOL    HW1 8673   2.900   4.511   1.062
 2405SOL    HW2 8674   2.855   4.395   0.957
 2406SOL     OW 8675   2.212   4.622   1.804
 2406SOL    HW1 8676   2.288   4.666   1.852
 2406SOL    HW2 8677   2.247   4.575   1.722
 2407SOL     OW 8678   3.402   3.998   0.125
 2407SOL    HW1 8679   3.341   3.923   0.148
 2407SOL    HW2 8680   3.424   4.050   0.208
 2408SOL     OW 8681   3.165   4.562   0.042
 2408SOL    HW1 8682   3.199   4.469   0.057
 2408SOL    HW2 8683   3.183   4.589  -0.053
 2409SOL     OW 8684   2.181   4.534   0.949
 2409SOL    HW1 8685   2.274   4.570   0.954
 2409SOL    HW2 8686   2.175   4.449   1.001
 2410SOL     OW 8687   2.201   4.233   1.006
 2410SOL    HW1 8688   2.149   4.150   0.989
 2410SOL    HW2 8689   2.278   4.238   0.942
 2411SOL     OW 8690   3.022   3.931   1.477
 2411SOL    HW1 8691   3.022   3.995   1.554
 2411SOL    HW2 8692   3.050   3.979   1.394
 2412SOL     OW 8693   2.864   4.520   1.238
 2412SOL    HW1 8694   2.905   4.488   1.324
 2412SOL    HW2 8695   2.768   4.493   1.235
 2413SOL     OW 8696   1.902   4.268   1.114
 2413SOL    HW1 8697   1.987   4.235   1.073
 2413SOL    HW2 8698   1.915   4.283   1.212
 2414SOL     OW 8699   3.231   4.674   1.660
 2414SOL    HW1 8700   3.270   4.763   1.680
 2414SOL    HW2 8701   3.241   4.654   1.563
 2415SOL     OW 8702   2.677   4.296   0.325
 2415SOL    HW1 8703   2.684   4.207   0.279
 2415SOL    HW2 8704   2.583   4.330   0.317
 2416SOL     OW 8705   3.519   4.328   1.206
 2416SOL    HW1 8706   3.481   4.259   1.268
 2416SOL    HW2 8707   3.601   4.292   1.162
 2417SOL     OW 8708   2.533   4.188   1.269
 2417SOL    HW1 8709   2.499   4.099   1.239
 2417SOL    HW2 8710   2.559   4.242   1.189
 2418SOL     OW 8711   2.335   4.224   0.191
 2418SOL    HW1 8712   2.396   4.304   0.195
 2418SOL    HW2 8713   2.240   4.255   0.198
 2419SOL     OW 8714   2.021   4.861   1.466
 2419SOL    HW1 8715   2.043   4.800   1.542
 2419SOL    HW2 8716   2.031   4.812   1.380
 2420SOL     OW 8717   3.209   4.783   1.234
 2420SOL    HW1 8718   3.233   4.720   1.160
 2420SOL    HW2 8719   3.119   4.823   1.216
 2421SOL     OW 8720   3.164   4.579   0.309
 2421SOL    HW1 8721   3.078   4.548   0.351
 2421SOL    HW2 8722   3.160   4.565   0.210
 2422SOL     OW 8723   1.945   4.982   1.022
 2422SOL    HW1 8724   1.940   4.981   1.122
 2422SOL    HW2 8725   1.862   4.941   0.984
 2423SOL     OW 8726   2.765   3.810   0.133
 2423SOL    HW1 8727   2.816   3.811   0.047
 2423SOL    HW2 8728   2.821   3.768   0.204
 2424SOL     OW 8729   3.142   4.651   0.672
 2424SOL    HW1 8730   3.202   4.570   0.674
 2424SOL    HW2 8731   3.182   4.720   0.612
 2425SOL     OW 8732   2.692   4.997   1.422
 2425SOL    HW1 8733   2.687   5.030   1.517
 2425SOL    HW2 8734   2.606   5.016   1.376
 2426SOL     OW 8735   3.703   3.899   0.963
 2426SOL    HW1 8736   3.742   3.814   0.927
 2426SOL    HW2 8737   3.605   3.901   0.944
 2427SOL     OW 8738   2.125   4.050   0.720
 2427SOL    HW1 8739   2.046   4.101   0.686
 2427SOL    HW2 8740   2.116   4.035   0.818
 2428SOL     OW 8741   2.684   4.726   1.372
 2428SOL    HW1 8742   2.724   4.725   1.280
 2428SOL    HW2 8743   2.694   4.818   1.412
 2429SOL     OW 8744   2.778   4.634   0.291
 2429SOL    HW1 8745   2.841   4.672   0.223
 2429SOL    HW2 8746   2.818   4.551   0.330
 2430SOL     OW 8747   2.234   5.012   1.490
 2430SOL    HW1 8748   2.221   5.105   1.456
 2430SOL    HW2 8749   2.150   4.960   1.477
 2431SOL     OW 8750   3.476   5.016   1.289
 2431SOL    HW1 8751   3.536   5.019   1.369
 2431SOL    HW2 8752   3.401   5.080   1.302
 2432SOL     OW 8753   2.901   4.822   0.696
 2432SOL    HW1 8754   2.831   4.775   0.750
 2432SOL    HW2 8755   2.960   4.754   0.653
 2433SOL     OW 8756   2.876   3.960   0.971
 2433SOL    HW1 8757   2.868   3.924   0.878
 2433SOL    HW2 8758   2.874   3.884   1.036
 2434SOL     OW 8759   3.571   4.109   1.381
 2434SOL    HW1 8760   3.644   4.178   1.385
 2434SOL    HW2 8761   3.599   4.034   1.322
 2435SOL     OW 8762   1.967   4.737   1.726
 2435SOL    HW1 8763   1.890   4.704   1.780
 2435SOL    HW2 8764   2.052   4.707   1.768
 2436SOL     OW 8765   2.534   3.927   1.489
 2436SOL    HW1 8766   2.624   3.911   1.449
 2436SOL    HW2 8767   2.542   3.932   1.588
 2437SOL     OW 8768   3.302   4.580   1.398
 2437SOL    HW1 8769   3.245   4.632   1.335
 2437SOL    HW2 8770   3.398   4.592   1.374
 2438SOL     OW 8771   2.475   4.566   1.431
 2438SOL    HW1 8772   2.531   4.647   1.414
 2438SOL    HW2 8773   2.534   4.486   1.434
 2439SOL     OW 8774   2.578   4.289   1.708
 2439SOL    HW1 8775   2.597   4.354   1.782
 2439SOL    HW2 8776   2.638   4.209   1.717
 2440SOL     OW 8777   3.087   4.049   0.449
 2440SOL    HW1 8778   3.152   3.975   0.438
 2440SOL    HW2 8779   3.107   4.099   0.533
 2441SOL     OW 8780   2.456   4.469   0.652
 2441SOL    HW1 8781   2.506   4.554   0.633
 2441SOL    HW2 8782   2.368   4.471   0.604
 2442SOL     OW 8783   3.639   4.066   1.642
 2442SOL    HW1 8784   3.622   4.097   1.548
 2442SOL    HW2 8785   3.555   4.029   1.680
 2443SOL     OW 8786   2.721   4.680   0.861
 2443SOL    HW1 8787   2.775   4.611   0.909
 2443SOL    HW2 8788   2.689   4.749   0.927
 2444SOL     OW 8789   2.945   4.708   0.087
 2444SOL    HW1 8790   2.922   4.761   0.005
 2444SOL    HW2 8791   3.026   4.652   0.068
 2445SOL     OW 8792   1.941   4.964   0.653
 2445SOL    HW1 8793   1.940   4.917   0.741
 2445SOL    HW2 8794   2.023   4.936   0.602
 2446SOL     OW 8795   3.686   3.916   1.227
 2446SOL    HW1 8796   3.682   3.826   1.271
 2446SOL    HW2 8797   3.689   3.905   1.128
 2447SOL     OW 8798   2.290   4.148   0.520
 2447SOL    HW1 8799   2.320   4.076   0.458
 2447SOL    HW2 8800   2.251   4.108   0.603
 2448SOL     OW 8801   3.286   3.938   1.112
 2448SOL    HW1 8802   3.338   3.873   1.167
 2448SOL    HW2 8803   3.237   4.001   1.173
 2449SOL     OW 8804   2.863   3.758   1.154
 2449SOL    HW1 8805   2.800   3.686   1.123
 2449SOL    HW2 8806   2.956   3.722   1.154
 2450SOL     OW 8807   2.632   5.054   0.301
 2450SOL    HW1 8808   2.586   4.967   0.318
 2450SOL    HW2 8809   2.723   5.051   0.342
 2451SOL     OW 8810   3.214   3.776   0.168
 2451SOL    HW1 8811   3.249   3.735   0.084
 2451SOL    HW2 8812   3.124   3.738   0.188
 2452SOL     OW 8813   3.162   4.177   0.691
 2452SOL    HW1 8814   3.103   4.257   0.695
 2452SOL    HW2 8815   3.177   4.142   0.784
 2453SOL     OW 8816   3.455   3.945   0.882
 2453SOL    HW1 8817   3.371   3.944   0.936
 2453SOL    HW2 8818   3.457   4.028   0.826
 2454SOL     OW 8819   1.901   4.801   0.300
 2454SOL    HW1 8820   2.000   4.790   0.291
 2454SOL    HW2 8821   1.861   4.715   0.332
 2455SOL     OW 8822   2.092   4.352   1.975
 2455SOL    HW1 8823   1.999   4.350   2.012
 2455SOL    HW2 8824   2.093   4.313   1.883
 2456SOL     OW 8825   2.087   3.999   2.858
 2456SOL    HW1 8826   2.122   3.982   2.950
 2456SOL    HW2 8827   1.999   3.954   2.846
 2457SOL     OW 8828   1.881   4.092   2.509
 2457SOL    HW1 8829   1.799   4.135   2.548
 2457SOL    HW2 8830   1.853   4.019   2.446
 2458SOL     OW 8831   2.431   4.999   3.027
 2458SOL    HW1 8832   2.338   4.992   2.990
 2458SOL    HW2 8833   2.442   5.088   3.071
 2459SOL     OW 8834   3.417   5.235   2.565
 2459SOL    HW1 8835   3.360   5.219   2.646
 2459SOL    HW2 8836   3.358   5.245   2.485
 2460SOL     OW 8837   2.997   4.427   2.579
 2460SOL    HW1 8838   3.054   4.505   2.554
 2460SOL    HW2 8839   2.937   4.453   2.655
 2461SOL     OW 8840   2.630   4.868   2.885
 2461SOL    HW1 8841   2.552   4.885   2.945
 2461SOL    HW2 8842   2.664   4.955   2.849
 2462SOL     OW 8843   2.547   4.736   2.527
 2462SOL    HW1 8844   2.616   4.720   2.597
 2462SOL    HW2 8845   2.474   4.793   2.565
 2463SOL     OW 8846   2.548   4.885   3.665
 2463SOL    HW1 8847   2.608   4.964   3.679
 2463SOL    HW2 8848   2.462   4.916   3.624
 2464SOL     OW 8849   2.197   5.159   2.923
 2464SOL    HW1 8850   2.119   5.128   2.870
 2464SOL    HW2 8851   2.255   5.217   2.866
 2465SOL     OW 8852   2.300   4.116   3.361
 2465SOL    HW1 8853   2.382   4.060   3.370
 2465SOL    HW2 8854   2.219   4.058   3.365
 2466SOL     OW 8855   3.465   4.171   2.599
 2466SOL    HW1 8856   3.391   4.217   2.549
 2466SOL    HW2 8857   3.516   4.239   2.652
 2467SOL     OW 8858   2.102   4.815   2.748
 2467SOL    HW1 8859   2.116   4.731   2.800
 2467SOL    HW2 8860   2.047   4.879   2.803
 2468SOL     OW 8861   2.468   4.688   1.985
 2468SOL    HW1 8862   2.475   4.772   1.931
 2468SOL    HW2 8863   2.514   4.701   2.073
 2469SOL     OW 8864   3.456   3.838   3.342
 2469SOL    HW1 8865   3.438   3.905   3.270
 2469SOL    HW2 8866   3.453   3.884   3.431
 2470SOL     OW 8867   1.984   4.367   2.425
 2470SOL    HW1 8868   1.939   4.279   2.442
 2470SOL    HW2 8869   1.983   4.421   2.509
 2471SOL     OW 8870   3.551   4.646   2.474
 2471SOL    HW1 8871   3.646   4.617   2.482
 2471SOL    HW2 8872   3.543   4.711   2.399
 2472SOL     OW 8873   1.975   4.461   3.459
 2472SOL    HW1 8874   2.063   4.448   3.504
 2472SOL    HW2 8875   1.962   4.558   3.437
 2473SOL     OW 8876   2.671   3.728   2.364
 2473SOL    HW1 8877   2.711   3.819   2.355
 2473SOL    HW2 8878   2.571   3.736   2.370
 2474SOL     OW 8879   2.059   4.700   3.126
 2474SOL    HW1 8880   2.148   4.655   3.112
 2474SOL    HW2 8881   1.986   4.635   3.107
 2475SOL     OW 8882   3.387   4.723   2.052
 2475SOL    HW1 8883   3.324   4.647   2.065
 2475SOL    HW2 8884   3.435   4.741   2.138
 2476SOL     OW 8885   2.179   3.975   3.663
 2476SOL    HW1 8886   2.250   4.046   3.669
 2476SOL    HW2 8887   2.091   4.014   3.691
 2477SOL     OW 8888   3.328   5.141   2.815
 2477SOL    HW1 8889   3.269   5.147   2.895
 2477SOL    HW2 8890   3.313   5.053   2.769
 2478SOL     OW 8891   2.460   4.453   2.132
 2478SOL    HW1 8892   2.484   4.522   2.064
 2478SOL    HW2 8893   2.382   4.486   2.186
 2479SOL     OW 8894   3.143   4.069   2.806
 2479SOL    HW1 8895   3.057   4.019   2.793
 2479SOL    HW2 8896   3.205   4.015   2.862
 2480SOL     OW 8897   2.669   4.329   3.327
 2480SOL    HW1 8898   2.622   4.326   3.416
 2480SOL    HW2 8899   2.618   4.274   3.261
 2481SOL     OW 8900   3.256   4.193   3.536
 2481SOL    HW1 8901   3.236   4.236   3.624
 2481SOL    HW2 8902   3.334   4.131   3.545
 2482SOL     OW 8903   2.853   4.134   3.104
 2482SOL    HW1 8904   2.776   4.168   3.158
 2482SOL    HW2 8905   2.819   4.083   3.025
 2483SOL     OW 8906   2.903   4.425   2.291
 2483SOL    HW1 8907   2.929   4.421   2.387
 2483SOL    HW2 8908   2.818   4.374   2.277
 2484SOL     OW 8909   1.938   4.535   2.651
 2484SOL    HW1 8910   2.037   4.523   2.660
 2484SOL    HW2 8911   1.914   4.630   2.672
 2485SOL     OW 8912   2.727   4.072   2.057
 2485SOL    HW1 8913   2.786   4.135   2.008
 2485SOL    HW2 8914   2.746   3.978   2.028
 2486SOL     OW 8915   3.581   4.309   3.693
 2486SOL    HW1 8916   3.555   4.398   3.657
 2486SOL    HW2 8917   3.579   4.241   3.620
 2487SOL     OW 8918   3.224   4.868   2.407
 2487SOL    HW1 8919   3.307   4.839   2.359
 2487SOL    HW2 8920   3.175   4.935   2.351
 2488SOL     OW 8921   2.412   3.920   2.747
 2488SOL    HW1 8922   2.407   3.915   2.847
 2488SOL    HW2 8923   2.414   4.016   2.718
 2489SOL     OW 8924   3.657   4.790   2.735
 2489SOL    HW1 8925   3.595   4.775   2.659
 2489SOL    HW2 8926   3.605   4.801   2.820
 2490SOL     OW 8927   2.183   4.667   2.104
 2490SOL    HW1 8928   2.265   4.706   2.062
 2490SOL    HW2 8929   2.156   4.585   2.055
 2491SOL     OW 8930   3.320   4.459   2.590
 2491SOL    HW1 8931   3.315   4.394   2.665
 2491SOL    HW2 8932   3.400   4.518   2.603
 2492SOL     OW 8933   2.064   4.009   3.360
 2492SOL    HW1 8934   1.984   4.069   3.347
 2492SOL    HW2 8935   2.054   3.960   3.446
 2493SOL     OW 8936   3.262   3.831   2.288
 2493SOL    HW1 8937   3.238   3.794   2.198
 2493SOL    HW2 8938   3.361   3.847   2.292
 2494SOL     OW 8939   2.244   4.424   2.342
 2494SOL    HW1 8940   2.289   4.334   2.339
 2494SOL    HW2 8941   2.150   4.413   2.375
 2495SOL     OW 8942   3.409   3.946   3.591
 2495SOL    HW1 8943   3.404   3.983   3.683
 2495SOL    HW2 8944   3.337   3.877   3.579
 2496SOL     OW 8945   2.643   3.988   3.611
 2496SOL    HW1 8946   2.710   3.927   3.654
 2496SOL    HW2 8947   2.570   4.007   3.676
 2497SOL     OW 8948   3.213   4.314   3.295
 2497SOL    HW1 8949   3.241   4.271   3.380
 2497SOL    HW2 8950   3.238   4.410   3.296
 2498SOL     OW 8951   2.665   5.126   2.786
 2498SOL    HW1 8952   2.755   5.140   2.744
 2498SOL    HW2 8953   2.594   5.128   2.715
 2499SOL     OW 8954   2.784   4.227   2.761
 2499SOL    HW1 8955   2.759   4.218   2.665
 2499SOL    HW2 8956   2.832   4.145   2.792
 2500SOL     OW 8957   2.401   3.788   2.374
 2500SOL    HW1 8958   2.320   3.789   2.432
 2500SOL    HW2 8959   2.404   3.871   2.319
 2501SOL     OW 8960   3.296   4.912   1.903
 2501SOL    HW1 8961   3.328   4.836   1.960
 2501SOL    HW2 8962   3.204   4.939   1.933
 2502SOL     OW 8963   2.797   3.960   2.342
 2502SOL    HW1 8964   2.749   4.001   2.264
 2502SOL    HW2 8965   2.896   3.958   2.323
 2503SOL     OW 8966   2.938   4.407   3.326
 2503SOL    HW1 8967   2.858   4.346   3.329
 2503SOL    HW2 8968   3.019   4.354   3.302
 2504SOL     OW 8969   2.321   4.876   2.603
 2504SOL    HW1 8970   2.250   4.849   2.668
 2504SOL    HW2 8971   2.295   4.848   2.510
 2505SOL     OW 8972   1.940   4.280   3.248
 2505SOL    HW1 8973   2.032   4.279   3.207
 2505SOL    HW2 8974   1.934   4.354   3.315
 2506SOL     OW 8975   2.423   3.946   3.009
 2506SOL    HW1 8976   2.461   3.862   3.046
 2506SOL    HW2 8977   2.335   3.965   3.053
 2507SOL     OW 8978   2.728   4.178   2.504
 2507SOL    HW1 8979   2.696   4.250   2.442
 2507SOL    HW2 8980   2.752   4.097   2.451
 2508SOL     OW 8981   2.879   3.763   2.615
 2508SOL    HW1 8982   2.807   3.768   2.546
 2508SOL    HW2 8983   2.855   3.694   2.684
 2509SOL     OW 8984   3.291   4.897   2.729
 2509SOL    HW1 8985   3.236   4.813   2.722
 2509SOL    HW2 8986   3.317   4.926   2.637
 2510SOL     OW 8987   3.328   4.314   2.854
 2510SOL    HW1 8988   3.298   4.219   2.861
 2510SOL    HW2 8989   3.401   4.330   2.920
 2511SOL     OW 8990   3.719   4.557   2.239
 2511SOL    HW1 8991   3.761   4.493   2.303
 2511SOL    HW2 8992   3.681   4.506   2.161
 2512SOL     OW 8993   3.526   5.004   2.519
 2512SOL    HW1 8994   3.625   5.012   2.533
 2512SOL    HW2 8995   3.481   5.088   2.550
 2513SOL     OW 8996   3.616   4.947   3.450
 2513SOL    HW1 8997   3.707   4.908   3.437
 2513SOL    HW2 8998   3.624   5.043   3.474
 2514SOL     OW 8999   3.500   4.823   2.941
 2514SOL    HW1 9000   3.505   4.904   3.000
 2514SOL    HW2 9001   3.414   4.825   2.890
 2515SOL     OW 9002   2.777   3.813   3.264
 2515SOL    HW1 9003   2.802   3.793   3.169
 2515SOL    HW2 9004   2.849   3.869   3.306
 2516SOL     OW 9005   2.567   4.774   2.230
 2516SOL    HW1 9006   2.553   4.781   2.329
 2516SOL    HW2 9007   2.651   4.723   2.212
 2517SOL     OW 9008   2.272   4.537   3.113
 2517SOL    HW1 9009   2.358   4.549   3.163
 2517SOL    HW2 9010   2.230   4.450   3.140
 2518SOL     OW 9011   3.136   4.110   3.124
 2518SOL    HW1 9012   3.157   4.184   3.188
 2518SOL    HW2 9013   3.047   4.127   3.081
 2519SOL     OW 9014   2.229   4.824   2.363
 2519SOL    HW1 9015   2.222   4.907   2.307
 2519SOL    HW2 9016   2.233   4.744   2.303
 2520SOL     OW 9017   2.428   4.261   2.727
 2520SOL    HW1 9018   2.440   4.327   2.653
 2520SOL    HW2 9019   2.474   4.295   2.810
 2521SOL     OW 9020   2.264   4.475   3.460
 2521SOL    HW1 9021   2.332   4.530   3.413
 2521SOL    HW2 9022   2.304   4.387   3.487
 2522SOL     OW 9023   3.449   4.503   3.532
 2522SOL    HW1 9024   3.357   4.541   3.527
 2522SOL    HW2 9025   3.509   4.550   3.467
 2523SOL     OW 9026   2.875   3.829   3.632
 2523SOL    HW1 9027   2.881   3.914   3.580
 2523SOL    HW2 9028   2.907   3.753   3.575
 2524SOL     OW 9029   2.366   3.774   3.602
 2524SOL    HW1 9030   2.324   3.717   3.532
 2524SOL    HW2 9031   2.300   3.843   3.634
 2525SOL     OW 9032   2.435   4.594   2.891
 2525SOL    HW1 9033   2.479   4.683   2.882
 2525SOL    HW2 9034   2.372   4.594   2.968
 2526SOL     OW 9035   2.169   3.937   3.093
 2526SOL    HW1 9036   2.146   3.974   3.183
 2526SOL    HW2 9037   2.139   3.842   3.087
 2527SOL     OW 9038   2.594   4.358   2.926
 2527SOL    HW1 9039   2.653   4.332   2.850
 2527SOL    HW2 9040   2.566   4.454   2.915
 2528SOL     OW 9041   3.590   4.659   3.716
 2528SOL    HW1 9042   3.544   4.652   3.627
 2528SOL    HW2 9043   3.528   4.703   3.782
 2529SOL     OW 9044   2.169   3.787   2.480
 2529SOL    HW1 9045   2.158   3.881   2.513
 2529SOL    HW2 9046   2.164   3.724   2.557
 2530SOL     OW 9047   3.484   4.091   2.236
 2530SOL    HW1 9048   3.486   4.015   2.300
 2530SOL    HW2 9049   3.436   4.168   2.276
 2531SOL     OW 9050   3.721   5.242   3.467
 2531SOL    HW1 9051   3.735   5.269   3.372
 2531SOL    HW2 9052   3.804   5.264   3.520
 2532SOL     OW 9053   2.212   4.622   3.666
 2532SOL    HW1 9054   2.288   4.666   3.714
 2532SOL    HW2 9055   2.247   4.575   3.584
 2533SOL     OW 9056   3.402   3.998   1.987
 2533SOL    HW1 9057   3.341   3.923   2.010
 2533SOL    HW2 9058   3.424   4.050   2.070
 2534SOL     OW 9059   2.181   4.534   2.811
 2534SOL    HW1 9060   2.274   4.570   2.816
 2534SOL    HW2 9061   2.175   4.449   2.863
 2535SOL     OW 9062   2.201   4.233   2.868
 2535SOL    HW1 9063   2.149   4.150   2.851
 2535SOL    HW2 9064   2.278   4.238   2.804
 2536SOL     OW 9065   3.000   4.104   3.540
 2536SOL    HW1 9066   2.955   4.167   3.604
 2536SOL    HW2 9067   3.093   4.135   3.523
 2537SOL     OW 9068   3.022   3.931   3.339
 2537SOL    HW1 9069   3.022   3.995   3.416
 2537SOL    HW2 9070   3.050   3.979   3.256
 2538SOL     OW 9071   1.902   4.268   2.976
 2538SOL    HW1 9072   1.987   4.235   2.935
 2538SOL    HW2 9073   1.915   4.283   3.074
 2539SOL     OW 9074   2.051   4.244   3.584
 2539SOL    HW1 9075   2.110   4.204   3.514
 2539SOL    HW2 9076   1.993   4.315   3.543
 2540SOL     OW 9077   3.231   4.674   3.522
 2540SOL    HW1 9078   3.270   4.763   3.542
 2540SOL    HW2 9079   3.241   4.654   3.425
 2541SOL     OW 9080   2.677   4.296   2.187
 2541SOL    HW1 9081   2.684   4.207   2.141
 2541SOL    HW2 9082   2.583   4.330   2.179
 2542SOL     OW 9083   3.519   4.328   3.068
 2542SOL    HW1 9084   3.481   4.259   3.130
 2542SOL    HW2 9085   3.601   4.292   3.024
 2543SOL     OW 9086   2.533   4.188   3.131
 2543SOL    HW1 9087   2.499   4.099   3.101
 2543SOL    HW2 9088   2.559   4.242   3.051
 2544SOL     OW 9089   2.021   4.861   3.328
 2544SOL    HW1 9090   2.043   4.800   3.404
 2544SOL    HW2 9091   2.031   4.812   3.242
 2545SOL     OW 9092   1.945   4.982   2.884
 2545SOL    HW1 9093   1.940   4.981   2.984
 2545SOL    HW2 9094   1.862   4.941   2.846
 2546SOL     OW 9095   3.588   3.859   2.385
 2546SOL    HW1 9096   3.661   3.842   2.318
 2546SOL    HW2 9097   3.557   3.772   2.423
 2547SOL     OW 9098   3.142   4.651   2.534
 2547SOL    HW1 9099   3.202   4.570   2.536
 2547SOL    HW2 9100   3.182   4.720   2.474
 2548SOL     OW 9101   3.703   3.899   2.825
 2548SOL    HW1 9102   3.742   3.814   2.789
 2548SOL    HW2 9103   3.605   3.901   2.806
 2549SOL     OW 9104   2.125   4.050   2.582
 2549SOL    HW1 9105   2.046   4.101   2.548
 2549SOL    HW2 9106   2.116   4.035   2.680
 2550SOL     OW 9107   3.056   5.336   1.893
 2550SOL    HW1 9108   3.062   5.243   1.930
 2550SOL    HW2 9109   2.997   5.336   1.813
 2551SOL     OW 9110   2.778   4.634   2.153
 2551SOL    HW1 9111   2.841   4.672   2.085
 2551SOL    HW2 9112   2.818   4.551   2.192
 2552SOL     OW 9113   2.234   5.012   3.352
 2552SOL    HW1 9114   2.221   5.105   3.318
 2552SOL    HW2 9115   2.150   4.960   3.339
 2553SOL     OW 9116   2.901   4.822   2.558
 2553SOL    HW1 9117   2.831   4.775   2.612
 2553SOL    HW2 9118   2.960   4.754   2.515
 2554SOL     OW 9119   2.876   3.960   2.833
 2554SOL    HW1 9120   2.868   3.924   2.740
 2554SOL    HW2 9121   2.874   3.884   2.898
 2555SOL     OW 9122   3.571   4.109   3.243
 2555SOL    HW1 9123   3.644   4.178   3.247
 2555SOL    HW2 9124   3.599   4.034   3.184
 2556SOL     OW 9125   1.967   4.737   3.588
 2556SOL    HW1 9126   1.890   4.704   3.642
 2556SOL    HW2 9127   2.052   4.707   3.630
 2557SOL     OW 9128   2.534   3.927   3.351
 2557SOL    HW1 9129   2.624   3.911   3.311
 2557SOL    HW2 9130   2.542   3.932   3.450
 2558SOL     OW 9131   1.937   4.069   1.895
 2558SOL    HW1 9132   1.845   4.041   1.866
 2558SOL    HW2 9133   1.968   4.146   1.839
 2559SOL     OW 9134   3.302   4.580   3.260
 2559SOL    HW1 9135   3.245   4.632   3.197
 2559SOL    HW2 9136   3.398   4.592   3.236
 2560SOL     OW 9137   2.475   4.566   3.293
 2560SOL    HW1 9138   2.531   4.647   3.276
 2560SOL    HW2 9139   2.534   4.486   3.296
 2561SOL     OW 9140   2.578   4.289   3.570
 2561SOL    HW1 9141   2.597   4.354   3.644
 2561SOL    HW2 9142   2.638   4.209   3.579
 2562SOL     OW 9143   3.536   4.607   3.116
 2562SOL    HW1 9144   3.509   4.518   3.079
 2562SOL    HW2 9145   3.537   4.675   3.043
 2563SOL     OW 9146   3.087   4.049   2.311
 2563SOL    HW1 9147   3.152   3.975   2.300
 2563SOL    HW2 9148   3.107   4.099   2.395
 2564SOL     OW 9149   2.456   4.469   2.514
 2564SOL    HW1 9150   2.506   4.554   2.495
 2564SOL    HW2 9151   2.368   4.471   2.466
 2565SOL     OW 9152   3.639   4.066   3.504
 2565SOL    HW1 9153   3.622   4.097   3.410
 2565SOL    HW2 9154   3.555   4.029   3.542
 2566SOL     OW 9155   3.592   4.658   3.379
 2566SOL    HW1 9156   3.630   4.749   3.394
 2566SOL    HW2 9157   3.584   4.641   3.280
 2567SOL     OW 9158   2.945   4.708   1.949
 2567SOL    HW1 9159   2.922   4.761   1.867
 2567SOL    HW2 9160   3.026   4.652   1.930
 2568SOL     OW 9161   1.941   4.964   2.515
 2568SOL    HW1 9162   1.940   4.917   2.603
 2568SOL    HW2 9163   2.023   4.936   2.464
 2569SOL     OW 9164   3.686   3.916   3.089
 2569SOL    HW1 9165   3.682   3.826   3.133
 2569SOL    HW2 9166   3.689   3.905   2.990
 2570SOL     OW 9167   2.179   4.271   3.142
 2570SOL    HW1 9168   2.217   4.212   3.214
 2570SOL    HW2 9169   2.219   4.245   3.054
 2571SOL     OW 9170   3.286   3.938   2.974
 2571SOL    HW1 9171   3.338   3.873   3.029
 2571SOL    HW2 9172   3.237   4.001   3.035
 2572SOL     OW 9173   2.863   3.758   3.016
 2572SOL    HW1 9174   2.800   3.686   2.985
 2572SOL    HW2 9175   2.956   3.722   3.016
 2573SOL     OW 9176   2.632   5.054   2.163
 2573SOL    HW1 9177   2.586   4.967   2.180
 2573SOL    HW2 9178   2.723   5.051   2.204
 2574SOL     OW 9179   3.214   3.776   2.030
 2574SOL    HW1 9180   3.249   3.735   1.946
 2574SOL    HW2 9181   3.124   3.738   2.050
 2575SOL     OW 9182   3.162   4.177   2.553
 2575SOL    HW1 9183   3.103   4.257   2.557
 2575SOL    HW2 9184   3.177   4.142   2.646
 2576SOL     OW 9185   3.455   3.945   2.744
 2576SOL    HW1 9186   3.371   3.944   2.798
 2576SOL    HW2 9187   3.457   4.028   2.688
 2577SOL     OW 9188   1.901   4.801   2.162
 2577SOL    HW1 9189   2.000   4.790   2.153
 2577SOL    HW2 9190   1.861   4.715   2.194
 2578SOL     OW 9191   2.092   4.352   3.837
 2578SOL    HW1 9192   1.999   4.350   3.874
 2578SOL    HW2 9193   2.093   4.313   3.745
 2579SOL     OW 9194   2.087   3.999   4.720
 2579SOL    HW1 9195   2.122   3.982   4.812
 2579SOL    HW2 9196   1.999   3.954   4.708
 2580SOL     OW 9197   1.881   4.092   4.371
 2580SOL    HW1 9198   1.799   4.135   4.410
 2580SOL    HW2 9199   1.853   4.019   4.308
 2581SOL     OW 9200   2.431   4.999   4.889
 2581SOL    HW1 9201   2.338   4.992   4.852
 2581SOL    HW2 9202   2.442   5.088   4.933
 2582SOL     OW 9203   3.417   5.235   4.427
 2582SOL    HW1 9204   3.360   5.219   4.508
 2582SOL    HW2 9205   3.358   5.245   4.347
 2583SOL     OW 9206   3.617   4.331   3.955
 2583SOL    HW1 9207   3.605   4.318   3.856
 2583SOL    HW2 9208   3.587   4.250   4.004
 2584SOL     OW 9209   2.630   4.868   4.747
 2584SOL    HW1 9210   2.552   4.885   4.807
 2584SOL    HW2 9211   2.664   4.955   4.711
 2585SOL     OW 9212   2.547   4.736   4.389
 2585SOL    HW1 9213   2.616   4.720   4.459
 2585SOL    HW2 9214   2.474   4.793   4.427
 2586SOL     OW 9215   2.197   5.159   4.785
 2586SOL    HW1 9216   2.119   5.128   4.732
 2586SOL    HW2 9217   2.255   5.217   4.728
 2587SOL     OW 9218   3.465   4.171   4.461
 2587SOL    HW1 9219   3.391   4.217   4.411
 2587SOL    HW2 9220   3.516   4.239   4.514
 2588SOL     OW 9221   2.102   4.815   4.610
 2588SOL    HW1 9222   2.116   4.731   4.662
 2588SOL    HW2 9223   2.047   4.879   4.665
 2589SOL     OW 9224   2.468   4.688   3.847
 2589SOL    HW1 9225   2.475   4.772   3.793
 2589SOL    HW2 9226   2.514   4.701   3.935
 2590SOL     OW 9227   1.984   4.367   4.287
 2590SOL    HW1 9228   1.939   4.279   4.304
 2590SOL    HW2 9229   1.983   4.421   4.371
 2591SOL     OW 9230   3.551   4.646   4.336
 2591SOL    HW1 9231   3.646   4.617   4.344
 2591SOL    HW2 9232   3.543   4.711   4.261
 2592SOL     OW 9233   3.503   4.832   4.156
 2592SOL    HW1 9234   3.589   4.834   4.104
 2592SOL    HW2 9235   3.517   4.879   4.244
 2593SOL     OW 9236   2.671   3.728   4.226
 2593SOL    HW1 9237   2.711   3.819   4.217
 2593SOL    HW2 9238   2.571   3.736   4.232
 2594SOL     OW 9239   2.059   4.700   4.988
 2594SOL    HW1 9240   2.148   4.655   4.974
 2594SOL    HW2 9241   1.986   4.635   4.969
 2595SOL     OW 9242   3.387   4.723   3.914
 2595SOL    HW1 9243   3.324   4.647   3.927
 2595SOL    HW2 9244   3.435   4.741   4.000
 2596SOL     OW 9245   3.328   5.141   4.677
 2596SOL    HW1 9246   3.269   5.147   4.757
 2596SOL    HW2 9247   3.313   5.053   4.631
 2597SOL     OW 9248   3.143   4.069   4.668
 2597SOL    HW1 9249   3.057   4.019   4.655
 2597SOL    HW2 9250   3.205   4.015   4.724
 2598SOL     OW 9251   2.853   4.134   4.966
 2598SOL    HW1 9252   2.776   4.168   5.020
 2598SOL    HW2 9253   2.819   4.083   4.887
 2599SOL     OW 9254   1.938   4.535   4.513
 2599SOL    HW1 9255   2.037   4.523   4.522
 2599SOL    HW2 9256   1.914   4.630   4.534
 2600SOL     OW 9257   2.727   4.072   3.919
 2600SOL    HW1 9258   2.786   4.135   3.870
 2600SOL    HW2 9259   2.746   3.978   3.890
 2601SOL     OW 9260   3.224   4.868   4.269
 2601SOL    HW1 9261   3.307   4.839   4.221
 2601SOL    HW2 9262   3.175   4.935   4.213
 2602SOL     OW 9263   2.412   3.920   4.609
 2602SOL    HW1 9264   2.407   3.915   4.709
 2602SOL    HW2 9265   2.414   4.016   4.580
 2603SOL     OW 9266   3.657   4.790   4.597
 2603SOL    HW1 9267   3.595   4.775   4.521
 2603SOL    HW2 9268   3.605   4.801   4.682
 2604SOL     OW 9269   2.183   4.667   3.966
 2604SOL    HW1 9270   2.265   4.706   3.924
 2604SOL    HW2 9271   2.156   4.585   3.917
 2605SOL     OW 9272   3.320   4.459   4.452
 2605SOL    HW1 9273   3.315   4.394   4.527
 2605SOL    HW2 9274   3.400   4.518   4.465
 2606SOL     OW 9275   3.262   3.831   4.150
 2606SOL    HW1 9276   3.238   3.794   4.060
 2606SOL    HW2 9277   3.361   3.847   4.154
 2607SOL     OW 9278   2.244   4.424   4.204
 2607SOL    HW1 9279   2.289   4.334   4.201
 2607SOL    HW2 9280   2.150   4.413   4.237
 2608SOL     OW 9281   2.476   3.846   3.841
 2608SOL    HW1 9282   2.574   3.824   3.848
 2608SOL    HW2 9283   2.445   3.829   3.748
 2609SOL     OW 9284   2.665   5.126   4.648
 2609SOL    HW1 9285   2.755   5.140   4.606
 2609SOL    HW2 9286   2.594   5.128   4.577
 2610SOL     OW 9287   2.784   4.227   4.623
 2610SOL    HW1 9288   2.759   4.218   4.527
 2610SOL    HW2 9289   2.832   4.145   4.654
 2611SOL     OW 9290   2.401   3.788   4.236
 2611SOL    HW1 9291   2.320   3.789   4.294
 2611SOL    HW2 9292   2.404   3.871   4.181
 2612SOL     OW 9293   2.159   3.759   3.895
 2612SOL    HW1 9294   2.208   3.843   3.874
 2612SOL    HW2 9295   2.221   3.694   3.940
 2613SOL     OW 9296   2.797   3.960   4.204
 2613SOL    HW1 9297   2.749   4.001   4.126
 2613SOL    HW2 9298   2.896   3.958   4.185
 2614SOL     OW 9299   3.089   5.294   4.517
 2614SOL    HW1 9300   3.110   5.368   4.452
 2614SOL    HW2 9301   3.157   5.294   4.590
 2615SOL     OW 9302   2.321   4.876   4.465
 2615SOL    HW1 9303   2.250   4.849   4.530
 2615SOL    HW2 9304   2.295   4.848   4.372
 2616SOL     OW 9305   2.894   4.273   3.740
 2616SOL    HW1 9306   2.853   4.355   3.701
 2616SOL    HW2 9307   2.958   4.299   3.813
 2617SOL     OW 9308   2.423   3.946   4.871
 2617SOL    HW1 9309   2.461   3.862   4.908
 2617SOL    HW2 9310   2.335   3.965   4.915
 2618SOL     OW 9311   2.879   3.763   4.477
 2618SOL    HW1 9312   2.807   3.768   4.408
 2618SOL    HW2 9313   2.855   3.694   4.546
 2619SOL     OW 9314   3.291   4.897   4.591
 2619SOL    HW1 9315   3.236   4.813   4.584
 2619SOL    HW2 9316   3.317   4.926   4.499
 2620SOL     OW 9317   3.328   4.314   4.716
 2620SOL    HW1 9318   3.298   4.219   4.723
 2620SOL    HW2 9319   3.401   4.330   4.782
 2621SOL     OW 9320   3.719   4.557   4.101
 2621SOL    HW1 9321   3.761   4.493   4.165
 2621SOL    HW2 9322   3.681   4.506   4.023
 2622SOL     OW 9323   3.526   5.004   4.381
 2622SOL    HW1 9324   3.625   5.012   4.395
 2622SOL    HW2 9325   3.481   5.088   4.412
 2623SOL     OW 9326   3.252   4.299   3.802
 2623SOL    HW1 9327   3.198   4.278   3.883
 2623SOL    HW2 9328   3.343   4.258   3.811
 2624SOL     OW 9329   2.389   3.980   4.052
 2624SOL    HW1 9330   2.416   3.921   3.977
 2624SOL    HW2 9331   2.389   4.075   4.021
 2625SOL     OW 9332   3.500   4.823   4.803
 2625SOL    HW1 9333   3.505   4.904   4.862
 2625SOL    HW2 9334   3.414   4.825   4.752
 2626SOL     OW 9335   2.567   4.774   4.092
 2626SOL    HW1 9336   2.553   4.781   4.191
 2626SOL    HW2 9337   2.651   4.723   4.074
 2627SOL     OW 9338   2.272   4.537   4.975
 2627SOL    HW1 9339   2.358   4.549   5.025
 2627SOL    HW2 9340   2.230   4.450   5.002
 2628SOL     OW 9341   3.136   4.110   4.986
 2628SOL    HW1 9342   3.157   4.184   5.050
 2628SOL    HW2 9343   3.047   4.127   4.943
 2629SOL     OW 9344   2.229   4.824   4.225
 2629SOL    HW1 9345   2.222   4.907   4.169
 2629SOL    HW2 9346   2.233   4.744   4.165
 2630SOL     OW 9347   3.444   4.363   4.196
 2630SOL    HW1 9348   3.413   4.424   4.269
 2630SOL    HW2 9349   3.494   4.415   4.127
 2631SOL     OW 9350   2.435   4.594   4.753
 2631SOL    HW1 9351   2.479   4.683   4.744
 2631SOL    HW2 9352   2.372   4.594   4.830
 2632SOL     OW 9353   3.222   4.586   4.769
 2632SOL    HW1 9354   3.147   4.586   4.703
 2632SOL    HW2 9355   3.259   4.494   4.778
 2633SOL     OW 9356   3.071   4.249   3.999
 2633SOL    HW1 9357   3.084   4.165   4.053
 2633SOL    HW2 9358   3.042   4.323   4.059
 2634SOL     OW 9359   2.169   3.937   4.955
 2634SOL    HW1 9360   2.146   3.974   5.045
 2634SOL    HW2 9361   2.139   3.842   4.949
 2635SOL     OW 9362   2.169   3.787   4.342
 2635SOL    HW1 9363   2.158   3.881   4.375
 2635SOL    HW2 9364   2.164   3.724   4.419
 2636SOL     OW 9365   3.484   4.091   4.098
 2636SOL    HW1 9366   3.486   4.015   4.162
 2636SOL    HW2 9367   3.436   4.168   4.138
 2637SOL     OW 9368   3.402   3.998   3.849
 2637SOL    HW1 9369   3.341   3.923   3.872
 2637SOL    HW2 9370   3.424   4.050   3.932
 2638SOL     OW 9371   3.165   4.562   3.766
 2638SOL    HW1 9372   3.199   4.469   3.781
 2638SOL    HW2 9373   3.183   4.589   3.671
 2639SOL     OW 9374   3.022   3.931   5.201
 2639SOL    HW1 9375   3.022   3.995   5.278
 2639SOL    HW2 9376   3.050   3.979   5.118
 2640SOL     OW 9377   1.870   5.050   3.924
 2640SOL    HW1 9378   1.777   5.071   3.893
 2640SOL    HW2 9379   1.880   4.951   3.937
 2641SOL     OW 9380   2.864   4.520   4.962
 2641SOL    HW1 9381   2.905   4.488   5.048
 2641SOL    HW2 9382   2.768   4.493   4.959
 2642SOL     OW 9383   1.902   4.268   4.838
 2642SOL    HW1 9384   1.987   4.235   4.797
 2642SOL    HW2 9385   1.915   4.283   4.936
 2643SOL     OW 9386   2.677   4.296   4.049
 2643SOL    HW1 9387   2.684   4.207   4.003
 2643SOL    HW2 9388   2.583   4.330   4.041
 2644SOL     OW 9389   3.519   4.328   4.930
 2644SOL    HW1 9390   3.481   4.259   4.992
 2644SOL    HW2 9391   3.601   4.292   4.886
 2645SOL     OW 9392   2.533   4.188   4.993
 2645SOL    HW1 9393   2.499   4.099   4.963
 2645SOL    HW2 9394   2.559   4.242   4.913
 2646SOL     OW 9395   3.209   4.783   4.958
 2646SOL    HW1 9396   3.233   4.720   4.884
 2646SOL    HW2 9397   3.119   4.823   4.940
 2647SOL     OW 9398   3.164   4.579   4.033
 2647SOL    HW1 9399   3.078   4.548   4.075
 2647SOL    HW2 9400   3.160   4.565   3.934
 2648SOL     OW 9401   1.945   4.982   4.746
 2648SOL    HW1 9402   1.940   4.981   4.846
 2648SOL    HW2 9403   1.862   4.941   4.708
 2649SOL     OW 9404   3.588   3.859   4.247
 2649SOL    HW1 9405   3.661   3.842   4.180
 2649SOL    HW2 9406   3.557   3.772   4.285
 2650SOL     OW 9407   3.142   4.651   4.396
 2650SOL    HW1 9408   3.202   4.570   4.398
 2650SOL    HW2 9409   3.182   4.720   4.336
 2651SOL     OW 9410   2.692   4.997   5.146
 2651SOL    HW1 9411   2.687   5.030   5.241
 2651SOL    HW2 9412   2.606   5.016   5.100
 2652SOL     OW 9413   3.703   3.899   4.687
 2652SOL    HW1 9414   3.742   3.814   4.651
 2652SOL    HW2 9415   3.605   3.901   4.668
 2653SOL     OW 9416   2.125   4.050   4.444
 2653SOL    HW1 9417   2.046   4.101   4.410
 2653SOL    HW2 9418   2.116   4.035   4.542
 2654SOL     OW 9419   3.056   5.336   3.755
 2654SOL    HW1 9420   3.062   5.243   3.792
 2654SOL    HW2 9421   2.997   5.336   3.675
 2655SOL     OW 9422   2.684   4.726   5.096
 2655SOL    HW1 9423   2.724   4.725   5.004
 2655SOL    HW2 9424   2.694   4.818   5.136
 2656SOL     OW 9425   2.901   4.822   4.420
 2656SOL    HW1 9426   2.831   4.775   4.474
 2656SOL    HW2 9427   2.960   4.754   4.377
 2657SOL     OW 9428   2.876   3.960   4.695
 2657SOL    HW1 9429   2.868   3.924   4.602
 2657SOL    HW2 9430   2.874   3.884   4.760
 2658SOL     OW 9431   3.571   4.109   5.105
 2658SOL    HW1 9432   3.644   4.178   5.109
 2658SOL    HW2 9433   3.599   4.034   5.046
 2659SOL     OW 9434   1.934   3.890   4.042
 2659SOL    HW1 9435   1.917   3.973   3.988
 2659SOL    HW2 9436   2.024   3.853   4.020
 2660SOL     OW 9437   3.312   4.944   5.357
 2660SOL    HW1 9438   3.303   4.934   5.456
 2660SOL    HW2 9439   3.408   4.937   5.331
 2661SOL     OW 9440   3.536   4.607   4.978
 2661SOL    HW1 9441   3.509   4.518   4.941
 2661SOL    HW2 9442   3.537   4.675   4.905
 2662SOL     OW 9443   3.087   4.049   4.173
 2662SOL    HW1 9444   3.152   3.975   4.162
 2662SOL    HW2 9445   3.107   4.099   4.257
 2663SOL     OW 9446   3.592   4.658   5.241
 2663SOL    HW1 9447   3.630   4.749   5.256
 2663SOL    HW2 9448   3.584   4.641   5.142
 2664SOL     OW 9449   2.721   4.680   4.585
 2664SOL    HW1 9450   2.775   4.611   4.633
 2664SOL    HW2 9451   2.689   4.749   4.651
 2665SOL     OW 9452   2.945   4.708   3.811
 2665SOL    HW1 9453   2.922   4.761   3.729
 2665SOL    HW2 9454   3.026   4.652   3.792
 2666SOL     OW 9455   1.941   4.964   4.377
 2666SOL    HW1 9456   1.940   4.917   4.465
 2666SOL    HW2 9457   2.023   4.936   4.326
 2667SOL     OW 9458   2.290   4.148   4.244
 2667SOL    HW1 9459   2.320   4.076   4.182
 2667SOL    HW2 9460   2.251   4.108   4.327
 2668SOL     OW 9461   3.286   3.938   4.836
 2668SOL    HW1 9462   3.338   3.873   4.891
 2668SOL    HW2 9463   3.237   4.001   4.897
 2669SOL     OW 9464   2.863   3.758   4.878
 2669SOL    HW1 9465   2.800   3.686   4.847
 2669SOL    HW2 9466   2.956   3.722   4.878
 2670SOL     OW 9467   2.632   5.054   4.025
 2670SOL    HW1 9468   2.586   4.967   4.042
 2670SOL    HW2 9469   2.723   5.051   4.066
 2671SOL     OW 9470   3.214   3.776   3.892
 2671SOL    HW1 9471   3.249   3.735   3.808
 2671SOL    HW2 9472   3.124   3.738   3.912
 2672SOL     OW 9473   3.162   4.177   4.415
 2672SOL    HW1 9474   3.103   4.257   4.419
 2672SOL    HW2 9475   3.177   4.142   4.508
 2673SOL     OW 9476   3.455   3.945   4.606
 2673SOL    HW1 9477   3.371   3.944   4.660
 2673SOL    HW2 9478   3.457   4.028   4.550
 2674SOL     OW 9479   1.901   4.801   4.024
 2674SOL    HW1 9480   2.000   4.790   4.015
 2674SOL    HW2 9481   1.861   4.715   4.056
 2675SOL     OW 9482   3.949   0.275   0.996
 2675SOL    HW1 9483   3.984   0.258   1.088
 2675SOL    HW2 9484   3.861   0.230   0.984
 2676SOL     OW 9485   3.743   0.368   0.647
 2676SOL    HW1 9486   3.661   0.411   0.686
 2676SOL    HW2 9487   3.715   0.295   0.584
 2677SOL     OW 9488   4.492   1.144   1.023
 2677SOL    HW1 9489   4.414   1.161   1.083
 2677SOL    HW2 9490   4.526   1.231   0.987
 2678SOL     OW 9491   4.574   0.798   1.823
 2678SOL    HW1 9492   4.570   0.874   1.888
 2678SOL    HW2 9493   4.596   0.834   1.732
 2679SOL     OW 9494   4.409   1.012   0.665
 2679SOL    HW1 9495   4.478   0.996   0.735
 2679SOL    HW2 9496   4.336   1.069   0.703
 2680SOL     OW 9497   4.410   1.161   1.803
 2680SOL    HW1 9498   4.470   1.240   1.817
 2680SOL    HW2 9499   4.324   1.192   1.762
 2681SOL     OW 9500   4.059   1.435   1.061
 2681SOL    HW1 9501   3.981   1.404   1.008
 2681SOL    HW2 9502   4.117   1.493   1.004
 2682SOL     OW 9503   3.955   1.713   0.483
 2682SOL    HW1 9504   3.989   1.790   0.537
 2682SOL    HW2 9505   3.999   1.713   0.393
 2683SOL     OW 9506   3.954   1.434   0.538
 2683SOL    HW1 9507   3.928   1.530   0.538
 2683SOL    HW2 9508   3.883   1.380   0.583
 2684SOL     OW 9509   3.964   1.091   0.886
 2684SOL    HW1 9510   3.978   1.007   0.938
 2684SOL    HW2 9511   3.909   1.155   0.941
 2685SOL     OW 9512   4.330   0.964   0.123
 2685SOL    HW1 9513   4.337   1.048   0.069
 2685SOL    HW2 9514   4.376   0.977   0.211
 2686SOL     OW 9515   3.846   0.643   0.563
 2686SOL    HW1 9516   3.801   0.555   0.580
 2686SOL    HW2 9517   3.845   0.697   0.647
 2687SOL     OW 9518   3.751   1.596   0.117
 2687SOL    HW1 9519   3.732   1.500   0.138
 2687SOL    HW2 9520   3.718   1.654   0.192
 2688SOL     OW 9521   3.837   0.737   1.597
 2688SOL    HW1 9522   3.925   0.724   1.642
 2688SOL    HW2 9523   3.824   0.834   1.575
 2689SOL     OW 9524   4.337   1.365   0.726
 2689SOL    HW1 9525   4.288   1.278   0.735
 2689SOL    HW2 9526   4.314   1.408   0.639
 2690SOL     OW 9527   5.017   1.228   1.423
 2690SOL    HW1 9528   5.054   1.155   1.365
 2690SOL    HW2 9529   5.069   1.233   1.508
 2691SOL     OW 9530   4.533   0.004   0.502
 2691SOL    HW1 9531   4.573   0.095   0.493
 2691SOL    HW2 9532   4.433   0.012   0.508
 2692SOL     OW 9533   3.921   0.976   1.264
 2692SOL    HW1 9534   4.010   0.931   1.250
 2692SOL    HW2 9535   3.848   0.911   1.245
 2693SOL     OW 9536   4.911   1.792   1.616
 2693SOL    HW1 9537   4.935   1.852   1.540
 2693SOL    HW2 9538   4.918   1.697   1.586
 2694SOL     OW 9539   4.697   0.890   1.572
 2694SOL    HW1 9540   4.743   0.806   1.543
 2694SOL    HW2 9541   4.641   0.924   1.497
 2695SOL     OW 9542   3.800   0.811   0.789
 2695SOL    HW1 9543   3.899   0.799   0.798
 2695SOL    HW2 9544   3.776   0.906   0.810
 2696SOL     OW 9545   4.589   0.348   0.195
 2696SOL    HW1 9546   4.648   0.411   0.146
 2696SOL    HW2 9547   4.608   0.254   0.166
 2697SOL     OW 9548   4.274   0.196   0.885
 2697SOL    HW1 9549   4.269   0.191   0.985
 2697SOL    HW2 9550   4.276   0.292   0.856
 2698SOL     OW 9551   4.732   1.456   0.477
 2698SOL    HW1 9552   4.686   1.528   0.425
 2698SOL    HW2 9553   4.728   1.476   0.575
 2699SOL     OW 9554   4.075   1.801   0.853
 2699SOL    HW1 9555   4.125   1.715   0.859
 2699SOL    HW2 9556   4.140   1.878   0.850
 2700SOL     OW 9557   4.045   0.943   0.242
 2700SOL    HW1 9558   4.127   0.982   0.200
 2700SOL    HW2 9559   4.018   0.861   0.193
 2701SOL     OW 9560   4.835   1.776   0.237
 2701SOL    HW1 9561   4.775   1.714   0.287
 2701SOL    HW2 9562   4.866   1.732   0.152
 2702SOL     OW 9563   3.926   0.285   1.498
 2702SOL    HW1 9564   3.846   0.345   1.485
 2702SOL    HW2 9565   3.916   0.236   1.584
 2703SOL     OW 9566   5.356   1.377   0.081
 2703SOL    HW1 9567   5.324   1.471   0.071
 2703SOL    HW2 9568   5.280   1.314   0.069
 2704SOL     OW 9569   4.188   1.743   0.323
 2704SOL    HW1 9570   4.221   1.782   0.409
 2704SOL    HW2 9571   4.264   1.736   0.258
 2705SOL     OW 9572   4.664   1.698   0.904
 2705SOL    HW1 9573   4.744   1.641   0.925
 2705SOL    HW2 9574   4.615   1.658   0.827
 2706SOL     OW 9575   4.338   0.122   0.117
 2706SOL    HW1 9576   4.436   0.100   0.124
 2706SOL    HW2 9577   4.307   0.105   0.024
 2707SOL     OW 9578   4.505   0.264   1.749
 2707SOL    HW1 9579   4.572   0.203   1.792
 2707SOL    HW2 9580   4.432   0.283   1.814
 2708SOL     OW 9581   4.612   1.514   1.195
 2708SOL    HW1 9582   4.589   1.489   1.101
 2708SOL    HW2 9583   4.673   1.445   1.234
 2709SOL     OW 9584   4.527   1.402   0.924
 2709SOL    HW1 9585   4.617   1.416   0.882
 2709SOL    HW2 9586   4.456   1.404   0.853
 2710SOL     OW 9587   4.646   0.503   0.899
 2710SOL    HW1 9588   4.621   0.494   0.803
 2710SOL    HW2 9589   4.694   0.421   0.930
 2711SOL     OW 9590   4.263   0.064   0.512
 2711SOL    HW1 9591   4.182   0.065   0.570
 2711SOL    HW2 9592   4.266   0.147   0.457
 2712SOL     OW 9593   4.021   0.035   0.171
 2712SOL    HW1 9594   4.070   0.119   0.150
 2712SOL    HW2 9595   4.083  -0.030   0.216
 2713SOL     OW 9596   4.659   0.236   0.480
 2713SOL    HW1 9597   4.611   0.277   0.402
 2713SOL    HW2 9598   4.758   0.234   0.461
 2714SOL     OW 9599   4.951   1.570   0.793
 2714SOL    HW1 9600   4.972   1.644   0.728
 2714SOL    HW2 9601   5.019   1.570   0.866
 2715SOL     OW 9602   4.183   1.152   0.741
 2715SOL    HW1 9603   4.112   1.125   0.806
 2715SOL    HW2 9604   4.157   1.124   0.648
 2716SOL     OW 9605   4.995   1.797   0.591
 2716SOL    HW1 9606   5.039   1.861   0.527
 2716SOL    HW2 9607   4.945   1.849   0.661
 2717SOL     OW 9608   4.756   0.549   0.016
 2717SOL    HW1 9609   4.715   0.631  -0.023
 2717SOL    HW2 9610   4.820   0.575   0.089
 2718SOL     OW 9611   3.802   0.556   1.386
 2718SOL    HW1 9612   3.894   0.555   1.345
 2718SOL    HW2 9613   3.796   0.630   1.453
 2719SOL     OW 9614   4.285   0.222   1.147
 2719SOL    HW1 9615   4.323   0.138   1.184
 2719SOL    HW2 9616   4.197   0.241   1.191
 2720SOL     OW 9617   4.590   0.454   0.642
 2720SOL    HW1 9618   4.558   0.526   0.580
 2720SOL    HW2 9619   4.614   0.373   0.589
 2721SOL     OW 9620   4.741   0.039   0.753
 2721SOL    HW1 9621   4.669   0.044   0.684
 2721SOL    HW2 9622   4.717  -0.030   0.822
 2722SOL     OW 9623   4.212   1.385   0.174
 2722SOL    HW1 9624   4.125   1.370   0.221
 2722SOL    HW2 9625   4.195   1.411   0.079
 2723SOL     OW 9626   5.388   1.280   0.657
 2723SOL    HW1 9627   5.487   1.288   0.671
 2723SOL    HW2 9628   5.343   1.364   0.688
 2724SOL     OW 9629   4.251   0.256   0.328
 2724SOL    HW1 9630   4.278   0.197   0.253
 2724SOL    HW2 9631   4.251   0.351   0.297
 2725SOL     OW 9632   4.788   1.347   1.340
 2725SOL    HW1 9633   4.708   1.324   1.395
 2725SOL    HW2 9634   4.871   1.321   1.389
 2726SOL     OW 9635   4.835   1.195   1.100
 2726SOL    HW1 9636   4.795   1.239   1.181
 2726SOL    HW2 9637   4.794   1.232   1.017
 2727SOL     OW 9638   4.639   0.089   1.402
 2727SOL    HW1 9639   4.664   0.069   1.307
 2727SOL    HW2 9640   4.711   0.145   1.444
 2728SOL     OW 9641   4.704   1.116   1.719
 2728SOL    HW1 9642   4.605   1.122   1.729
 2728SOL    HW2 9643   4.727   1.036   1.663
 2729SOL     OW 9644   4.429   1.050   0.368
 2729SOL    HW1 9645   4.415   1.057   0.467
 2729SOL    HW2 9646   4.513   0.999   0.350
 2730SOL     OW 9647   4.134   0.813   1.251
 2730SOL    HW1 9648   4.220   0.825   1.301
 2730SOL    HW2 9649   4.092   0.726   1.278
 2731SOL     OW 9650   4.998   0.386   1.262
 2731SOL    HW1 9651   5.019   0.460   1.326
 2731SOL    HW2 9652   4.909   0.403   1.219
 2732SOL     OW 9653   3.788   1.564   1.331
 2732SOL    HW1 9654   3.742   1.646   1.297
 2732SOL    HW2 9655   3.886   1.583   1.340
 2733SOL     OW 9656   4.091   1.100   0.501
 2733SOL    HW1 9657   4.084   1.183   0.445
 2733SOL    HW2 9658   4.095   1.020   0.441
 2734SOL     OW 9659   4.290   0.537   0.865
 2734SOL    HW1 9660   4.302   0.603   0.791
 2734SOL    HW2 9661   4.336   0.571   0.948
 2735SOL     OW 9662   4.976   1.348   0.388
 2735SOL    HW1 9663   5.026   1.425   0.428
 2735SOL    HW2 9664   4.881   1.350   0.420
 2736SOL     OW 9665   4.078   1.510   1.329
 2736SOL    HW1 9666   4.057   1.466   1.242
 2736SOL    HW2 9667   4.175   1.536   1.332
 2737SOL     OW 9668   4.126   0.751   1.598
 2737SOL    HW1 9669   4.194   0.806   1.551
 2737SOL    HW2 9670   4.166   0.663   1.625
 2738SOL     OW 9671   4.737   0.105   1.770
 2738SOL    HW1 9672   4.743   0.190   1.718
 2738SOL    HW2 9673   4.769   0.029   1.713
 2739SOL     OW 9674   4.297   0.870   1.029
 2739SOL    HW1 9675   4.341   0.959   1.020
 2739SOL    HW2 9676   4.234   0.870   1.106
 2740SOL     OW 9677   4.933   0.525   0.275
 2740SOL    HW1 9678   4.946   0.441   0.329
 2740SOL    HW2 9679   4.904   0.599   0.335
 2741SOL     OW 9680   4.031   0.213   1.231
 2741SOL    HW1 9681   4.008   0.250   1.321
 2741SOL    HW2 9682   4.001   0.118   1.225
 2742SOL     OW 9683   3.761   1.310   1.282
 2742SOL    HW1 9684   3.814   1.261   1.350
 2742SOL    HW2 9685   3.783   1.408   1.287
 2743SOL     OW 9686   4.031   0.063   0.618
 2743SOL    HW1 9687   4.020   0.157   0.651
 2743SOL    HW2 9688   4.026   0.000   0.695
 2744SOL     OW 9689   5.346   0.367   0.374
 2744SOL    HW1 9690   5.348   0.291   0.438
 2744SOL    HW2 9691   5.298   0.444   0.414
 2745SOL     OW 9692   4.074   0.898   1.804
 2745SOL    HW1 9693   4.150   0.942   1.852
 2745SOL    HW2 9694   4.109   0.851   1.722
 2746SOL     OW 9695   4.792   1.333   0.849
 2746SOL    HW1 9696   4.799   1.249   0.794
 2746SOL    HW2 9697   4.854   1.402   0.813
 2747SOL     OW 9698   4.043   0.810   0.949
 2747SOL    HW1 9699   4.136   0.846   0.954
 2747SOL    HW2 9700   4.037   0.725   1.001
 2748SOL     OW 9701   4.063   0.509   1.006
 2748SOL    HW1 9702   4.011   0.426   0.989
 2748SOL    HW2 9703   4.140   0.514   0.942
 2749SOL     OW 9704   4.862   0.380   1.678
 2749SOL    HW1 9705   4.817   0.443   1.742
 2749SOL    HW2 9706   4.955   0.411   1.661
 2750SOL     OW 9707   4.884   0.207   1.477
 2750SOL    HW1 9708   4.884   0.271   1.554
 2750SOL    HW2 9709   4.912   0.255   1.394
 2751SOL     OW 9710   3.812   1.801   0.927
 2751SOL    HW1 9711   3.770   1.715   0.900
 2751SOL    HW2 9712   3.906   1.804   0.893
 2752SOL     OW 9713   4.228   1.568   0.910
 2752SOL    HW1 9714   4.294   1.642   0.919
 2752SOL    HW2 9715   4.272   1.489   0.868
 2753SOL     OW 9716   4.726   0.796   1.238
 2753SOL    HW1 9717   4.767   0.764   1.324
 2753SOL    HW2 9718   4.630   0.769   1.235
 2754SOL     OW 9719   3.764   0.544   1.114
 2754SOL    HW1 9720   3.849   0.511   1.073
 2754SOL    HW2 9721   3.777   0.559   1.212
 2755SOL     OW 9722   3.913   0.520   1.722
 2755SOL    HW1 9723   3.972   0.480   1.652
 2755SOL    HW2 9724   3.855   0.591   1.681
 2756SOL     OW 9725   3.976   1.564   1.744
 2756SOL    HW1 9726   3.946   1.621   1.820
 2756SOL    HW2 9727   3.969   1.467   1.770
 2757SOL     OW 9728   4.395   0.464   1.269
 2757SOL    HW1 9729   4.361   0.375   1.239
 2757SOL    HW2 9730   4.421   0.518   1.189
 2758SOL     OW 9731   3.883   1.137   1.466
 2758SOL    HW1 9732   3.905   1.076   1.542
 2758SOL    HW2 9733   3.893   1.088   1.380
 2759SOL     OW 9734   5.071   1.059   1.234
 2759SOL    HW1 9735   5.095   0.996   1.160
 2759SOL    HW2 9736   4.981   1.099   1.216
 2760SOL     OW 9737   4.976   1.731   1.128
 2760SOL    HW1 9738   5.060   1.736   1.074
 2760SOL    HW2 9739   4.953   1.635   1.146
 2761SOL     OW 9740   3.807   1.258   1.022
 2761SOL    HW1 9741   3.802   1.257   1.122
 2761SOL    HW2 9742   3.724   1.217   0.984
 2762SOL     OW 9743   4.627   0.086   0.133
 2762SOL    HW1 9744   4.678   0.087   0.047
 2762SOL    HW2 9745   4.683   0.044   0.204
 2763SOL     OW 9746   5.112   1.573   0.477
 2763SOL    HW1 9747   5.179   1.585   0.403
 2763SOL    HW2 9748   5.072   1.662   0.500
 2764SOL     OW 9749   4.554   1.273   1.422
 2764SOL    HW1 9750   4.549   1.306   1.517
 2764SOL    HW2 9751   4.468   1.292   1.376
 2765SOL     OW 9752   4.396   1.616   0.154
 2765SOL    HW1 9753   4.405   1.626   0.055
 2765SOL    HW2 9754   4.356   1.527   0.175
 2766SOL     OW 9755   3.987   0.326   0.720
 2766SOL    HW1 9756   3.908   0.377   0.686
 2766SOL    HW2 9757   3.978   0.311   0.818
 2767SOL     OW 9758   4.918   1.612   0.031
 2767SOL    HW1 9759   4.924   1.519   0.068
 2767SOL    HW2 9760   4.859   1.612  -0.049
 2768SOL     OW 9761   4.546   1.002   1.372
 2768SOL    HW1 9762   4.586   1.001   1.280
 2768SOL    HW2 9763   4.556   1.094   1.412
 2769SOL     OW 9764   4.640   0.910   0.291
 2769SOL    HW1 9765   4.703   0.948   0.223
 2769SOL    HW2 9766   4.680   0.827   0.330
 2770SOL     OW 9767   4.096   1.288   1.490
 2770SOL    HW1 9768   4.083   1.381   1.456
 2770SOL    HW2 9769   4.012   1.236   1.477
 2771SOL     OW 9770   4.763   1.098   0.696
 2771SOL    HW1 9771   4.693   1.051   0.750
 2771SOL    HW2 9772   4.822   1.030   0.653
 2772SOL     OW 9773   4.738   0.236   0.971
 2772SOL    HW1 9774   4.730   0.200   0.878
 2772SOL    HW2 9775   4.736   0.160   1.036
 2773SOL     OW 9776   4.314   1.487   0.491
 2773SOL    HW1 9777   4.356   1.429   0.421
 2773SOL    HW2 9778   4.270   1.566   0.447
 2774SOL     OW 9779   3.979   1.348   0.290
 2774SOL    HW1 9780   3.883   1.349   0.263
 2774SOL    HW2 9781   3.991   1.401   0.374
 2775SOL     OW 9782   3.829   1.013   1.726
 2775SOL    HW1 9783   3.752   0.980   1.780
 2775SOL    HW2 9784   3.914   0.983   1.768
 2776SOL     OW 9785   4.396   0.203   1.489
 2776SOL    HW1 9786   4.486   0.187   1.449
 2776SOL    HW2 9787   4.404   0.208   1.588
 2777SOL     OW 9788   5.164   0.856   1.398
 2777SOL    HW1 9789   5.107   0.908   1.335
 2777SOL    HW2 9790   5.260   0.868   1.374
 2778SOL     OW 9791   3.796   0.166   0.318
 2778SOL    HW1 9792   3.779   0.249   0.264
 2778SOL    HW2 9793   3.886   0.129   0.296
 2779SOL     OW 9794   4.337   0.842   1.431
 2779SOL    HW1 9795   4.393   0.923   1.414
 2779SOL    HW2 9796   4.396   0.762   1.434
 2780SOL     OW 9797   4.440   0.565   1.708
 2780SOL    HW1 9798   4.459   0.630   1.782
 2780SOL    HW2 9799   4.500   0.485   1.717
 2781SOL     OW 9800   4.949   0.325   0.449
 2781SOL    HW1 9801   5.014   0.251   0.438
 2781SOL    HW2 9802   4.969   0.375   0.533
 2782SOL     OW 9803   4.583   1.374   0.016
 2782SOL    HW1 9804   4.537   1.389   0.104
 2782SOL    HW2 9805   4.627   1.459  -0.014
 2783SOL     OW 9806   4.807   0.984   0.087
 2783SOL    HW1 9807   4.784   1.037   0.005
 2783SOL    HW2 9808   4.888   0.928   0.068
 2784SOL     OW 9809   3.945   1.314   1.844
 2784SOL    HW1 9810   3.880   1.241   1.823
 2784SOL    HW2 9811   3.949   1.328   1.942
 2785SOL     OW 9812   3.803   1.240   0.653
 2785SOL    HW1 9813   3.802   1.193   0.741
 2785SOL    HW2 9814   3.885   1.212   0.602
 2786SOL     OW 9815   4.152   0.424   0.520
 2786SOL    HW1 9816   4.182   0.352   0.458
 2786SOL    HW2 9817   4.113   0.384   0.603
 2787SOL     OW 9818   4.041   0.547   1.280
 2787SOL    HW1 9819   4.079   0.488   1.352
 2787SOL    HW2 9820   4.081   0.521   1.192
 2788SOL     OW 9821   4.536   1.586   0.687
 2788SOL    HW1 9822   4.568   1.596   0.593
 2788SOL    HW2 9823   4.457   1.524   0.689
 2789SOL     OW 9824   4.725   0.034   1.154
 2789SOL    HW1 9825   4.662  -0.038   1.123
 2789SOL    HW2 9826   4.818  -0.002   1.154
 2790SOL     OW 9827   4.494   1.330   0.301
 2790SOL    HW1 9828   4.448   1.243   0.318
 2790SOL    HW2 9829   4.585   1.327   0.342
 2791SOL     OW 9830   3.763   1.077   0.300
 2791SOL    HW1 9831   3.862   1.066   0.291
 2791SOL    HW2 9832   3.723   0.991   0.332
 2792SOL     OW 9833   4.599   1.646   0.337
 2792SOL    HW1 9834   4.522   1.611   0.283
 2792SOL    HW2 9835   4.567   1.717   0.399
 2793SOL     OW 9836   3.954   0.628   1.975
 2793SOL    HW1 9837   3.861   0.626   2.012
 2793SOL    HW2 9838   3.955   0.589   1.883
 2794SOL     OW 9839   3.949   0.275   2.858
 2794SOL    HW1 9840   3.984   0.258   2.950
 2794SOL    HW2 9841   3.861   0.230   2.846
 2795SOL     OW 9842   3.743   0.368   2.509
 2795SOL    HW1 9843   3.661   0.411   2.548
 2795SOL    HW2 9844   3.715   0.295   2.446
 2796SOL     OW 9845   4.293   1.275   3.027
 2796SOL    HW1 9846   4.200   1.268   2.990
 2796SOL    HW2 9847   4.304   1.364   3.071
 2797SOL     OW 9848   4.859   0.703   2.579
 2797SOL    HW1 9849   4.916   0.781   2.554
 2797SOL    HW2 9850   4.799   0.729   2.655
 2798SOL     OW 9851   4.492   1.144   2.885
 2798SOL    HW1 9852   4.414   1.161   2.945
 2798SOL    HW2 9853   4.526   1.231   2.849
 2799SOL     OW 9854   4.574   0.798   3.685
 2799SOL    HW1 9855   4.570   0.874   3.750
 2799SOL    HW2 9856   4.596   0.834   3.594
 2800SOL     OW 9857   4.410   1.161   3.665
 2800SOL    HW1 9858   4.470   1.240   3.679
 2800SOL    HW2 9859   4.324   1.192   3.624
 2801SOL     OW 9860   4.162   0.392   3.361
 2801SOL    HW1 9861   4.244   0.336   3.370
 2801SOL    HW2 9862   4.081   0.334   3.365
 2802SOL     OW 9863   4.851   1.341   3.552
 2802SOL    HW1 9864   4.898   1.341   3.640
 2802SOL    HW2 9865   4.803   1.254   3.541
 2803SOL     OW 9866   4.344   1.786   3.301
 2803SOL    HW1 9867   4.252   1.769   3.336
 2803SOL    HW2 9868   4.372   1.878   3.327
 2804SOL     OW 9869   4.330   0.964   1.985
 2804SOL    HW1 9870   4.337   1.048   1.931
 2804SOL    HW2 9871   4.376   0.977   2.073
 2805SOL     OW 9872   3.846   0.643   2.425
 2805SOL    HW1 9873   3.801   0.555   2.442
 2805SOL    HW2 9874   3.845   0.697   2.509
 2806SOL     OW 9875   3.751   1.596   1.979
 2806SOL    HW1 9876   3.732   1.500   2.000
 2806SOL    HW2 9877   3.718   1.654   2.054
 2807SOL     OW 9878   3.837   0.737   3.459
 2807SOL    HW1 9879   3.925   0.724   3.504
 2807SOL    HW2 9880   3.824   0.834   3.437
 2808SOL     OW 9881   4.337   1.365   2.588
 2808SOL    HW1 9882   4.288   1.278   2.597
 2808SOL    HW2 9883   4.314   1.408   2.501
 2809SOL     OW 9884   5.017   1.228   3.285
 2809SOL    HW1 9885   5.054   1.155   3.227
 2809SOL    HW2 9886   5.069   1.233   3.370
 2810SOL     OW 9887   3.921   0.976   3.126
 2810SOL    HW1 9888   4.010   0.931   3.112
 2810SOL    HW2 9889   3.848   0.911   3.107
 2811SOL     OW 9890   4.911   1.792   3.478
 2811SOL    HW1 9891   4.935   1.852   3.402
 2811SOL    HW2 9892   4.918   1.697   3.448
 2812SOL     OW 9893   4.041   0.251   3.663
 2812SOL    HW1 9894   4.112   0.322   3.669
 2812SOL    HW2 9895   3.953   0.290   3.691
 2813SOL     OW 9896   4.322   0.729   2.132
 2813SOL    HW1 9897   4.346   0.798   2.064
 2813SOL    HW2 9898   4.244   0.762   2.186
 2814SOL     OW 9899   5.005   0.345   2.806
 2814SOL    HW1 9900   4.919   0.295   2.793
 2814SOL    HW2 9901   5.067   0.291   2.862
 2815SOL     OW 9902   4.715   0.410   3.104
 2815SOL    HW1 9903   4.638   0.444   3.158
 2815SOL    HW2 9904   4.681   0.359   3.025
 2816SOL     OW 9905   4.765   0.701   2.291
 2816SOL    HW1 9906   4.791   0.697   2.387
 2816SOL    HW2 9907   4.680   0.650   2.277
 2817SOL     OW 9908   3.800   0.811   2.651
 2817SOL    HW1 9909   3.899   0.799   2.660
 2817SOL    HW2 9910   3.776   0.906   2.672
 2818SOL     OW 9911   3.854   1.821   3.433
 2818SOL    HW1 9912   3.844   1.806   3.532
 2818SOL    HW2 9913   3.768   1.857   3.397
 2819SOL     OW 9914   4.274   0.196   2.747
 2819SOL    HW1 9915   4.269   0.191   2.847
 2819SOL    HW2 9916   4.276   0.292   2.718
 2820SOL     OW 9917   4.732   1.456   2.339
 2820SOL    HW1 9918   4.686   1.528   2.287
 2820SOL    HW2 9919   4.728   1.476   2.437
 2821SOL     OW 9920   4.075   1.801   2.715
 2821SOL    HW1 9921   4.125   1.715   2.721
 2821SOL    HW2 9922   4.140   1.878   2.712
 2822SOL     OW 9923   4.951   1.550   3.368
 2822SOL    HW1 9924   4.957   1.473   3.432
 2822SOL    HW2 9925   4.899   1.524   3.288
 2823SOL     OW 9926   3.926   0.285   3.360
 2823SOL    HW1 9927   3.846   0.345   3.347
 2823SOL    HW2 9928   3.916   0.236   3.446
 2824SOL     OW 9929   4.188   1.743   2.185
 2824SOL    HW1 9930   4.221   1.782   2.271
 2824SOL    HW2 9931   4.264   1.736   2.120
 2825SOL     OW 9932   4.664   1.698   2.766
 2825SOL    HW1 9933   4.744   1.641   2.787
 2825SOL    HW2 9934   4.615   1.658   2.689
 2826SOL     OW 9935   4.106   0.700   2.342
 2826SOL    HW1 9936   4.151   0.610   2.339
 2826SOL    HW2 9937   4.012   0.689   2.375
 2827SOL     OW 9938   4.505   0.264   3.611
 2827SOL    HW1 9939   4.572   0.203   3.654
 2827SOL    HW2 9940   4.432   0.283   3.676
 2828SOL     OW 9941   4.612   1.514   3.057
 2828SOL    HW1 9942   4.589   1.489   2.963
 2828SOL    HW2 9943   4.673   1.445   3.096
 2829SOL     OW 9944   4.527   1.402   2.786
 2829SOL    HW1 9945   4.617   1.416   2.744
 2829SOL    HW2 9946   4.456   1.404   2.715
 2830SOL     OW 9947   4.646   0.503   2.761
 2830SOL    HW1 9948   4.621   0.494   2.665
 2830SOL    HW2 9949   4.694   0.421   2.792
 2831SOL     OW 9950   4.951   1.570   2.655
 2831SOL    HW1 9951   4.972   1.644   2.590
 2831SOL    HW2 9952   5.019   1.570   2.728
 2832SOL     OW 9953   4.756   0.549   1.878
 2832SOL    HW1 9954   4.715   0.631   1.839
 2832SOL    HW2 9955   4.820   0.575   1.951
 2833SOL     OW 9956   3.802   0.556   3.248
 2833SOL    HW1 9957   3.894   0.555   3.207
 2833SOL    HW2 9958   3.796   0.630   3.315
 2834SOL     OW 9959   4.285   0.222   3.009
 2834SOL    HW1 9960   4.323   0.138   3.046
 2834SOL    HW2 9961   4.197   0.241   3.053
 2835SOL     OW 9962   4.590   0.454   2.504
 2835SOL    HW1 9963   4.558   0.526   2.442
 2835SOL    HW2 9964   4.614   0.373   2.451
 2836SOL     OW 9965   4.741   0.039   2.615
 2836SOL    HW1 9966   4.669   0.044   2.546
 2836SOL    HW2 9967   4.717  -0.030   2.684
 2837SOL     OW 9968   4.212   1.385   2.036
 2837SOL    HW1 9969   4.125   1.370   2.083
 2837SOL    HW2 9970   4.195   1.411   1.941
 2838SOL     OW 9971   5.388   1.280   2.519
 2838SOL    HW1 9972   5.487   1.288   2.533
 2838SOL    HW2 9973   5.343   1.364   2.550
 2839SOL     OW 9974   4.788   1.347   3.202
 2839SOL    HW1 9975   4.708   1.324   3.257
 2839SOL    HW2 9976   4.871   1.321   3.251
 2840SOL     OW 9977   4.835   1.195   2.962
 2840SOL    HW1 9978   4.795   1.239   3.043
 2840SOL    HW2 9979   4.794   1.232   2.879
 2841SOL     OW 9980   4.639   0.089   3.264
 2841SOL    HW1 9981   4.664   0.069   3.169
 2841SOL    HW2 9982   4.711   0.145   3.306
 2842SOL     OW 9983   4.704   1.116   3.581
 2842SOL    HW1 9984   4.605   1.122   3.591
 2842SOL    HW2 9985   4.727   1.036   3.525
 2843SOL     OW 9986   4.429   1.050   2.230
 2843SOL    HW1 9987   4.415   1.057   2.329
 2843SOL    HW2 9988   4.513   0.999   2.212
 2844SOL     OW 9989   4.134   0.813   3.113
 2844SOL    HW1 9990   4.220   0.825   3.163
 2844SOL    HW2 9991   4.092   0.726   3.140
 2845SOL     OW 9992   4.290   0.537   2.727
 2845SOL    HW1 9993   4.302   0.603   2.653
 2845SOL    HW2 9994   4.336   0.571   2.810
 2846SOL     OW 9995   4.976   1.348   2.250
 2846SOL    HW1 9996   5.026   1.425   2.290
 2846SOL    HW2 9997   4.881   1.350   2.282
 2847SOL     OW 9998   4.126   0.751   3.460
 2847SOL    HW1 9999   4.194   0.806   3.413
 2847SOL    HW210000   4.166   0.663   3.487
 2848SOL     OW10001   4.737   0.105   3.632
 2848SOL    HW110002   4.743   0.190   3.580
 2848SOL    HW210003   4.769   0.029   3.575
 2849SOL     OW10004   4.228   0.050   3.602
 2849SOL    HW110005   4.186  -0.007   3.532
 2849SOL    HW210006   4.162   0.119   3.634
 2850SOL     OW10007   4.297   0.870   2.891
 2850SOL    HW110008   4.341   0.959   2.882
 2850SOL    HW210009   4.234   0.870   2.968
 2851SOL     OW10010   5.084   0.862   2.907
 2851SOL    HW110011   5.009   0.862   2.841
 2851SOL    HW210012   5.121   0.770   2.916
 2852SOL     OW10013   4.933   0.525   2.137
 2852SOL    HW110014   4.946   0.441   2.191
 2852SOL    HW210015   4.904   0.599   2.197
 2853SOL     OW10016   4.031   0.213   3.093
 2853SOL    HW110017   4.008   0.250   3.183
 2853SOL    HW210018   4.001   0.118   3.087
 2854SOL     OW10019   3.761   1.310   3.144
 2854SOL    HW110020   3.814   1.261   3.212
 2854SOL    HW210021   3.783   1.408   3.149
 2855SOL     OW10022   4.031   0.063   2.480
 2855SOL    HW110023   4.020   0.157   2.513
 2855SOL    HW210024   4.026   0.000   2.557
 2856SOL     OW10025   5.346   0.367   2.236
 2856SOL    HW110026   5.348   0.291   2.300
 2856SOL    HW210027   5.298   0.444   2.276
 2857SOL     OW10028   4.704   1.573   3.562
 2857SOL    HW110029   4.684   1.617   3.474
 2857SOL    HW210030   4.743   1.482   3.546
 2858SOL     OW10031   4.074   0.898   3.666
 2858SOL    HW110032   4.150   0.942   3.714
 2858SOL    HW210033   4.109   0.851   3.584
 2859SOL     OW10034   5.027   0.838   1.904
 2859SOL    HW110035   5.061   0.745   1.919
 2859SOL    HW210036   5.045   0.865   1.809
 2860SOL     OW10037   4.792   1.333   2.711
 2860SOL    HW110038   4.799   1.249   2.656
 2860SOL    HW210039   4.854   1.402   2.675
 2861SOL     OW10040   4.043   0.810   2.811
 2861SOL    HW110041   4.136   0.846   2.816
 2861SOL    HW210042   4.037   0.725   2.863
 2862SOL     OW10043   4.063   0.509   2.868
 2862SOL    HW110044   4.011   0.426   2.851
 2862SOL    HW210045   4.140   0.514   2.804
 2863SOL     OW10046   4.884   0.207   3.339
 2863SOL    HW110047   4.884   0.271   3.416
 2863SOL    HW210048   4.912   0.255   3.256
 2864SOL     OW10049   3.812   1.801   2.789
 2864SOL    HW110050   3.770   1.715   2.762
 2864SOL    HW210051   3.906   1.804   2.755
 2865SOL     OW10052   4.228   1.568   2.772
 2865SOL    HW110053   4.294   1.642   2.781
 2865SOL    HW210054   4.272   1.489   2.730
 2866SOL     OW10055   3.764   0.544   2.976
 2866SOL    HW110056   3.849   0.511   2.935
 2866SOL    HW210057   3.777   0.559   3.074
 2867SOL     OW10058   3.913   0.520   3.584
 2867SOL    HW110059   3.972   0.480   3.514
 2867SOL    HW210060   3.855   0.591   3.543
 2868SOL     OW10061   4.539   0.572   2.187
 2868SOL    HW110062   4.546   0.483   2.141
 2868SOL    HW210063   4.445   0.606   2.179
 2869SOL     OW10064   4.654   1.678   3.327
 2869SOL    HW110065   4.630   1.660   3.232
 2869SOL    HW210066   4.684   1.772   3.337
 2870SOL     OW10067   4.197   0.500   2.053
 2870SOL    HW110068   4.258   0.580   2.057
 2870SOL    HW210069   4.102   0.531   2.060
 2871SOL     OW10070   5.071   1.059   3.096
 2871SOL    HW110071   5.095   0.996   3.022
 2871SOL    HW210072   4.981   1.099   3.078
 2872SOL     OW10073   4.976   1.731   2.990
 2872SOL    HW110074   5.060   1.736   2.936
 2872SOL    HW210075   4.953   1.635   3.008
 2873SOL     OW10076   4.412   1.662   3.578
 2873SOL    HW110077   4.356   1.743   3.587
 2873SOL    HW210078   4.464   1.666   3.492
 2874SOL     OW10079   5.112   1.573   2.339
 2874SOL    HW110080   5.179   1.585   2.265
 2874SOL    HW210081   5.072   1.662   2.362
 2875SOL     OW10082   5.004   0.927   2.534
 2875SOL    HW110083   5.064   0.846   2.536
 2875SOL    HW210084   5.044   0.996   2.474
 2876SOL     OW10085   4.554   1.273   3.284
 2876SOL    HW110086   4.549   1.306   3.379
 2876SOL    HW210087   4.468   1.292   3.238
 2877SOL     OW10088   3.987   0.326   2.582
 2877SOL    HW110089   3.908   0.377   2.548
 2877SOL    HW210090   3.978   0.311   2.680
 2878SOL     OW10091   4.918   1.612   1.893
 2878SOL    HW110092   4.924   1.519   1.930
 2878SOL    HW210093   4.859   1.612   1.813
 2879SOL     OW10094   4.546   1.002   3.234
 2879SOL    HW110095   4.586   1.001   3.142
 2879SOL    HW210096   4.556   1.094   3.274
 2880SOL     OW10097   4.640   0.910   2.153
 2880SOL    HW110098   4.703   0.948   2.085
 2880SOL    HW210099   4.680   0.827   2.192
 2881SOL     OW10100   4.763   1.098   2.558
 2881SOL    HW110101   4.693   1.051   2.612
 2881SOL    HW210102   4.822   1.030   2.515
 2882SOL     OW10103   4.738   0.236   2.833
 2882SOL    HW110104   4.730   0.200   2.740
 2882SOL    HW210105   4.736   0.160   2.898
 2883SOL     OW10106   4.314   1.487   2.353
 2883SOL    HW110107   4.356   1.429   2.283
 2883SOL    HW210108   4.270   1.566   2.309
 2884SOL     OW10109   3.829   1.013   3.588
 2884SOL    HW110110   3.752   0.980   3.642
 2884SOL    HW210111   3.914   0.983   3.630
 2885SOL     OW10112   4.396   0.203   3.351
 2885SOL    HW110113   4.486   0.187   3.311
 2885SOL    HW210114   4.404   0.208   3.450
 2886SOL     OW10115   3.799   0.345   1.895
 2886SOL    HW110116   3.707   0.317   1.866
 2886SOL    HW210117   3.830   0.422   1.839
 2887SOL     OW10118   5.164   0.856   3.260
 2887SOL    HW110119   5.107   0.908   3.197
 2887SOL    HW210120   5.260   0.868   3.236
 2888SOL     OW10121   3.796   0.166   2.180
 2888SOL    HW110122   3.779   0.249   2.126
 2888SOL    HW210123   3.886   0.129   2.158
 2889SOL     OW10124   4.337   0.842   3.293
 2889SOL    HW110125   4.393   0.923   3.276
 2889SOL    HW210126   4.396   0.762   3.296
 2890SOL     OW10127   4.440   0.565   3.570
 2890SOL    HW110128   4.459   0.630   3.644
 2890SOL    HW210129   4.500   0.485   3.579
 2891SOL     OW10130   4.114   1.741   3.422
 2891SOL    HW110131   4.023   1.782   3.420
 2891SOL    HW210132   4.107   1.647   3.454
 2892SOL     OW10133   4.949   0.325   2.311
 2892SOL    HW110134   5.014   0.251   2.300
 2892SOL    HW210135   4.969   0.375   2.395
 2893SOL     OW10136   4.318   0.745   2.514
 2893SOL    HW110137   4.368   0.830   2.495
 2893SOL    HW210138   4.230   0.747   2.466
 2894SOL     OW10139   4.583   1.374   1.878
 2894SOL    HW110140   4.537   1.389   1.966
 2894SOL    HW210141   4.627   1.459   1.848
 2895SOL     OW10142   4.385   1.790   2.815
 2895SOL    HW110143   4.339   1.878   2.802
 2895SOL    HW210144   4.484   1.802   2.808
 2896SOL     OW10145   4.583   0.956   2.723
 2896SOL    HW110146   4.637   0.887   2.771
 2896SOL    HW210147   4.551   1.025   2.789
 2897SOL     OW10148   4.807   0.984   1.949
 2897SOL    HW110149   4.784   1.037   1.867
 2897SOL    HW210150   4.888   0.928   1.930
 2898SOL     OW10151   4.396   1.391   3.486
 2898SOL    HW110152   4.318   1.341   3.524
 2898SOL    HW210153   4.393   1.486   3.517
 2899SOL     OW10154   4.152   0.424   2.382
 2899SOL    HW110155   4.182   0.352   2.320
 2899SOL    HW210156   4.113   0.384   2.465
 2900SOL     OW10157   4.041   0.547   3.142
 2900SOL    HW110158   4.079   0.488   3.214
 2900SOL    HW210159   4.081   0.521   3.054
 2901SOL     OW10160   4.536   1.586   2.549
 2901SOL    HW110161   4.568   1.596   2.455
 2901SOL    HW210162   4.457   1.524   2.551
 2902SOL     OW10163   4.725   0.034   3.016
 2902SOL    HW110164   4.662  -0.038   2.985
 2902SOL    HW210165   4.818  -0.002   3.016
 2903SOL     OW10166   4.494   1.330   2.163
 2903SOL    HW110167   4.448   1.243   2.180
 2903SOL    HW210168   4.585   1.327   2.204
 2904SOL     OW10169   3.954   0.628   3.837
 2904SOL    HW110170   3.861   0.626   3.874
 2904SOL    HW210171   3.955   0.589   3.745
 2905SOL     OW10172   3.949   0.275   4.720
 2905SOL    HW110173   3.984   0.258   4.812
 2905SOL    HW210174   3.861   0.230   4.708
 2906SOL     OW10175   3.743   0.368   4.371
 2906SOL    HW110176   3.661   0.411   4.410
 2906SOL    HW210177   3.715   0.295   4.308
 2907SOL     OW10178   4.293   1.275   4.889
 2907SOL    HW110179   4.200   1.268   4.852
 2907SOL    HW210180   4.304   1.364   4.933
 2908SOL     OW10181   4.859   0.703   4.441
 2908SOL    HW110182   4.916   0.781   4.416
 2908SOL    HW210183   4.799   0.729   4.517
 2909SOL     OW10184   4.492   1.144   4.747
 2909SOL    HW110185   4.414   1.161   4.807
 2909SOL    HW210186   4.526   1.231   4.711
 2910SOL     OW10187   4.409   1.012   4.389
 2910SOL    HW110188   4.478   0.996   4.459
 2910SOL    HW210189   4.336   1.069   4.427
 2911SOL     OW10190   4.059   1.435   4.785
 2911SOL    HW110191   3.981   1.404   4.732
 2911SOL    HW210192   4.117   1.493   4.728
 2912SOL     OW10193   3.955   1.713   4.207
 2912SOL    HW110194   3.989   1.790   4.261
 2912SOL    HW210195   3.999   1.713   4.117
 2913SOL     OW10196   3.954   1.434   4.262
 2913SOL    HW110197   3.928   1.530   4.262
 2913SOL    HW210198   3.883   1.380   4.307
 2914SOL     OW10199   3.964   1.091   4.610
 2914SOL    HW110200   3.978   1.007   4.662
 2914SOL    HW210201   3.909   1.155   4.665
 2915SOL     OW10202   4.344   1.786   5.163
 2915SOL    HW110203   4.252   1.769   5.198
 2915SOL    HW210204   4.372   1.878   5.189
 2916SOL     OW10205   4.330   0.964   3.847
 2916SOL    HW110206   4.337   1.048   3.793
 2916SOL    HW210207   4.376   0.977   3.935
 2917SOL     OW10208   3.846   0.643   4.287
 2917SOL    HW110209   3.801   0.555   4.304
 2917SOL    HW210210   3.845   0.697   4.371
 2918SOL     OW10211   4.337   1.365   4.450
 2918SOL    HW110212   4.288   1.278   4.459
 2918SOL    HW210213   4.314   1.408   4.363
 2919SOL     OW10214   4.533   0.004   4.226
 2919SOL    HW110215   4.573   0.095   4.217
 2919SOL    HW210216   4.433   0.012   4.232
 2920SOL     OW10217   4.322   0.729   3.994
 2920SOL    HW110218   4.346   0.798   3.926
 2920SOL    HW210219   4.244   0.762   4.048
 2921SOL     OW10220   4.715   0.410   4.966
 2921SOL    HW110221   4.638   0.444   5.020
 2921SOL    HW210222   4.681   0.359   4.887
 2922SOL     OW10223   4.765   0.701   4.153
 2922SOL    HW110224   4.791   0.697   4.249
 2922SOL    HW210225   4.680   0.650   4.139
 2923SOL     OW10226   3.800   0.811   4.513
 2923SOL    HW110227   3.899   0.799   4.522
 2923SOL    HW210228   3.776   0.906   4.534
 2924SOL     OW10229   4.274   0.196   4.609
 2924SOL    HW110230   4.269   0.191   4.709
 2924SOL    HW210231   4.276   0.292   4.580
 2925SOL     OW10232   4.732   1.456   4.201
 2925SOL    HW110233   4.686   1.528   4.149
 2925SOL    HW210234   4.728   1.476   4.299
 2926SOL     OW10235   4.075   1.801   4.577
 2926SOL    HW110236   4.125   1.715   4.583
 2926SOL    HW210237   4.140   1.878   4.574
 2927SOL     OW10238   4.045   0.943   3.966
 2927SOL    HW110239   4.127   0.982   3.924
 2927SOL    HW210240   4.018   0.861   3.917
 2928SOL     OW10241   4.835   1.776   3.961
 2928SOL    HW110242   4.775   1.714   4.011
 2928SOL    HW210243   4.866   1.732   3.876
 2929SOL     OW10244   4.188   1.743   4.047
 2929SOL    HW110245   4.221   1.782   4.133
 2929SOL    HW210246   4.264   1.736   3.982
 2930SOL     OW10247   3.973   1.785   4.965
 2930SOL    HW110248   4.030   1.720   5.015
 2930SOL    HW210249   3.957   1.752   4.872
 2931SOL     OW10250   4.664   1.698   4.628
 2931SOL    HW110251   4.744   1.641   4.649
 2931SOL    HW210252   4.615   1.658   4.551
 2932SOL     OW10253   4.106   0.700   4.204
 2932SOL    HW110254   4.151   0.610   4.201
 2932SOL    HW210255   4.012   0.689   4.237
 2933SOL     OW10256   4.338   0.122   3.841
 2933SOL    HW110257   4.436   0.100   3.848
 2933SOL    HW210258   4.307   0.105   3.748
 2934SOL     OW10259   4.527   1.402   4.648
 2934SOL    HW110260   4.617   1.416   4.606
 2934SOL    HW210261   4.456   1.404   4.577
 2935SOL     OW10262   4.646   0.503   4.623
 2935SOL    HW110263   4.621   0.494   4.527
 2935SOL    HW210264   4.694   0.421   4.654
 2936SOL     OW10265   4.263   0.064   4.236
 2936SOL    HW110266   4.182   0.065   4.294
 2936SOL    HW210267   4.266   0.147   4.181
 2937SOL     OW10268   4.021   0.035   3.895
 2937SOL    HW110269   4.070   0.119   3.874
 2937SOL    HW210270   4.083  -0.030   3.940
 2938SOL     OW10271   4.659   0.236   4.204
 2938SOL    HW110272   4.611   0.277   4.126
 2938SOL    HW210273   4.758   0.234   4.185
 2939SOL     OW10274   4.951   1.570   4.517
 2939SOL    HW110275   4.972   1.644   4.452
 2939SOL    HW210276   5.019   1.570   4.590
 2940SOL     OW10277   4.183   1.152   4.465
 2940SOL    HW110278   4.112   1.125   4.530
 2940SOL    HW210279   4.157   1.124   4.372
 2941SOL     OW10280   4.995   1.797   4.315
 2941SOL    HW110281   5.039   1.861   4.251
 2941SOL    HW210282   4.945   1.849   4.385
 2942SOL     OW10283   4.285   0.222   4.871
 2942SOL    HW110284   4.323   0.138   4.908
 2942SOL    HW210285   4.197   0.241   4.915
 2943SOL     OW10286   4.590   0.454   4.366
 2943SOL    HW110287   4.558   0.526   4.304
 2943SOL    HW210288   4.614   0.373   4.313
 2944SOL     OW10289   4.741   0.039   4.477
 2944SOL    HW110290   4.669   0.044   4.408
 2944SOL    HW210291   4.717  -0.030   4.546
 2945SOL     OW10292   4.212   1.385   3.898
 2945SOL    HW110293   4.125   1.370   3.945
 2945SOL    HW210294   4.195   1.411   3.803
 2946SOL     OW10295   5.388   1.280   4.381
 2946SOL    HW110296   5.487   1.288   4.395
 2946SOL    HW210297   5.343   1.364   4.412
 2947SOL     OW10298   4.251   0.256   4.052
 2947SOL    HW110299   4.278   0.197   3.977
 2947SOL    HW210300   4.251   0.351   4.021
 2948SOL     OW10301   5.316   1.629   5.349
 2948SOL    HW110302   5.343   1.663   5.259
 2948SOL    HW210303   5.395   1.591   5.395
 2949SOL     OW10304   4.835   1.195   4.824
 2949SOL    HW110305   4.795   1.239   4.905
 2949SOL    HW210306   4.794   1.232   4.741
 2950SOL     OW10307   4.429   1.050   4.092
 2950SOL    HW110308   4.415   1.057   4.191
 2950SOL    HW210309   4.513   0.999   4.074
 2951SOL     OW10310   4.091   1.100   4.225
 2951SOL    HW110311   4.084   1.183   4.169
 2951SOL    HW210312   4.095   1.020   4.165
 2952SOL     OW10313   4.976   1.348   4.112
 2952SOL    HW110314   5.026   1.425   4.152
 2952SOL    HW210315   4.881   1.350   4.144
 2953SOL     OW10316   4.078   1.510   5.053
 2953SOL    HW110317   4.057   1.466   4.966
 2953SOL    HW210318   4.175   1.536   5.056
 2954SOL     OW10319   4.297   0.870   4.753
 2954SOL    HW110320   4.341   0.959   4.744
 2954SOL    HW210321   4.234   0.870   4.830
 2955SOL     OW10322   4.933   0.525   3.999
 2955SOL    HW110323   4.946   0.441   4.053
 2955SOL    HW210324   4.904   0.599   4.059
 2956SOL     OW10325   3.761   1.310   5.006
 2956SOL    HW110326   3.814   1.261   5.074
 2956SOL    HW210327   3.783   1.408   5.011
 2957SOL     OW10328   4.031   0.063   4.342
 2957SOL    HW110329   4.020   0.157   4.375
 2957SOL    HW210330   4.026   0.000   4.419
 2958SOL     OW10331   5.346   0.367   4.098
 2958SOL    HW110332   5.348   0.291   4.162
 2958SOL    HW210333   5.298   0.444   4.138
 2959SOL     OW10334   4.747   0.766   4.690
 2959SOL    HW110335   4.762   0.787   4.786
 2959SOL    HW210336   4.717   0.671   4.681
 2960SOL     OW10337   5.027   0.838   3.766
 2960SOL    HW110338   5.061   0.745   3.781
 2960SOL    HW210339   5.045   0.865   3.671
 2961SOL     OW10340   4.792   1.333   4.573
 2961SOL    HW110341   4.799   1.249   4.518
 2961SOL    HW210342   4.854   1.402   4.537
 2962SOL     OW10343   4.043   0.810   4.673
 2962SOL    HW110344   4.136   0.846   4.678
 2962SOL    HW210345   4.037   0.725   4.725
 2963SOL     OW10346   4.884   0.207   5.201
 2963SOL    HW110347   4.884   0.271   5.278
 2963SOL    HW210348   4.912   0.255   5.118
 2964SOL     OW10349   3.732   1.326   3.924
 2964SOL    HW110350   3.639   1.347   3.893
 2964SOL    HW210351   3.742   1.227   3.937
 2965SOL     OW10352   3.812   1.801   4.651
 2965SOL    HW110353   3.770   1.715   4.624
 2965SOL    HW210354   3.906   1.804   4.617
 2966SOL     OW10355   4.228   1.568   4.634
 2966SOL    HW110356   4.294   1.642   4.643
 2966SOL    HW210357   4.272   1.489   4.592
 2967SOL     OW10358   4.726   0.796   4.962
 2967SOL    HW110359   4.767   0.764   5.048
 2967SOL    HW210360   4.630   0.769   4.959
 2968SOL     OW10361   3.764   0.544   4.838
 2968SOL    HW110362   3.849   0.511   4.797
 2968SOL    HW210363   3.777   0.559   4.936
 2969SOL     OW10364   4.539   0.572   4.049
 2969SOL    HW110365   4.546   0.483   4.003
 2969SOL    HW210366   4.445   0.606   4.041
 2970SOL     OW10367   4.654   1.678   5.189
 2970SOL    HW110368   4.630   1.660   5.094
 2970SOL    HW210369   4.684   1.772   5.199
 2971SOL     OW10370   4.197   0.500   3.915
 2971SOL    HW110371   4.258   0.580   3.919
 2971SOL    HW210372   4.102   0.531   3.922
 2972SOL     OW10373   4.976   1.731   4.852
 2972SOL    HW110374   5.060   1.736   4.798
 2972SOL    HW210375   4.953   1.635   4.870
 2973SOL     OW10376   3.807   1.258   4.746
 2973SOL    HW110377   3.802   1.257   4.846
 2973SOL    HW210378   3.724   1.217   4.708
 2974SOL     OW10379   5.112   1.573   4.201
 2974SOL    HW110380   5.179   1.585   4.127
 2974SOL    HW210381   5.072   1.662   4.224
 2975SOL     OW10382   5.004   0.927   4.396
 2975SOL    HW110383   5.064   0.846   4.398
 2975SOL    HW210384   5.044   0.996   4.336
 2976SOL     OW10385   4.396   1.616   3.878
 2976SOL    HW110386   4.405   1.626   3.779
 2976SOL    HW210387   4.356   1.527   3.899
 2977SOL     OW10388   3.987   0.326   4.444
 2977SOL    HW110389   3.908   0.377   4.410
 2977SOL    HW210390   3.978   0.311   4.542
 2978SOL     OW10391   4.918   1.612   3.755
 2978SOL    HW110392   4.924   1.519   3.792
 2978SOL    HW210393   4.859   1.612   3.675
 2979SOL     OW10394   4.546   1.002   5.096
 2979SOL    HW110395   4.586   1.001   5.004
 2979SOL    HW210396   4.556   1.094   5.136
 2980SOL     OW10397   4.640   0.910   4.015
 2980SOL    HW110398   4.703   0.948   3.947
 2980SOL    HW210399   4.680   0.827   4.054
 2981SOL     OW10400   4.763   1.098   4.420
 2981SOL    HW110401   4.693   1.051   4.474
 2981SOL    HW210402   4.822   1.030   4.377
 2982SOL     OW10403   4.738   0.236   4.695
 2982SOL    HW110404   4.730   0.200   4.602
 2982SOL    HW210405   4.736   0.160   4.760
 2983SOL     OW10406   4.314   1.487   4.215
 2983SOL    HW110407   4.356   1.429   4.145
 2983SOL    HW210408   4.270   1.566   4.171
 2984SOL     OW10409   3.799   0.345   3.757
 2984SOL    HW110410   3.707   0.317   3.728
 2984SOL    HW210411   3.830   0.422   3.701
 2985SOL     OW10412   3.796   0.166   4.042
 2985SOL    HW110413   3.779   0.249   3.988
 2985SOL    HW210414   3.886   0.129   4.020
 2986SOL     OW10415   4.949   0.325   4.173
 2986SOL    HW110416   5.014   0.251   4.162
 2986SOL    HW210417   4.969   0.375   4.257
 2987SOL     OW10418   4.318   0.745   4.376
 2987SOL    HW110419   4.368   0.830   4.357
 2987SOL    HW210420   4.230   0.747   4.328
 2988SOL     OW10421   4.583   1.374   3.740
 2988SOL    HW110422   4.537   1.389   3.828
 2988SOL    HW210423   4.627   1.459   3.710
 2989SOL     OW10424   4.385   1.790   4.677
 2989SOL    HW110425   4.339   1.878   4.664
 2989SOL    HW210426   4.484   1.802   4.670
 2990SOL     OW10427   4.583   0.956   4.585
 2990SOL    HW110428   4.637   0.887   4.633
 2990SOL    HW210429   4.551   1.025   4.651
 2991SOL     OW10430   4.807   0.984   3.811
 2991SOL    HW110431   4.784   1.037   3.729
 2991SOL    HW210432   4.888   0.928   3.792
 2992SOL     OW10433   3.803   1.240   4.377
 2992SOL    HW110434   3.802   1.193   4.465
 2992SOL    HW210435   3.885   1.212   4.326
 2993SOL     OW10436   4.152   0.424   4.244
 2993SOL    HW110437   4.182   0.352   4.182
 2993SOL    HW210438   4.113   0.384   4.327
 2994SOL     OW10439   4.536   1.586   4.411
 2994SOL    HW110440   4.568   1.596   4.317
 2994SOL    HW210441   4.457   1.524   4.413
 2995SOL     OW10442   4.725   0.034   4.878
 2995SOL    HW110443   4.662  -0.038   4.847
 2995SOL    HW210444   4.818  -0.002   4.878
 2996SOL     OW10445   4.494   1.330   4.025
 2996SOL    HW110446   4.448   1.243   4.042
 2996SOL    HW210447   4.585   1.327   4.066
 2997SOL     OW10448   3.763   1.077   4.024
 2997SOL    HW110449   3.862   1.066   4.015
 2997SOL    HW210450   3.723   0.991   4.056
 2998SOL     OW10451   4.599   1.646   4.061
 2998SOL    HW110452   4.522   1.611   4.007
 2998SOL    HW210453   4.567   1.717   4.123
 2999SOL     OW10454   3.949   2.137   0.996
 2999SOL    HW110455   3.984   2.120   1.088
 2999SOL    HW210456   3.861   2.092   0.984
 3000SOL     OW10457   4.293   3.137   1.165
 3000SOL    HW110458   4.200   3.130   1.128
 3000SOL    HW210459   4.304   3.226   1.209
 3001SOL     OW10460   4.859   2.565   0.717
 3001SOL    HW110461   4.916   2.643   0.692
 3001SOL    HW210462   4.799   2.591   0.793
 3002SOL     OW10463   4.492   3.006   1.023
 3002SOL    HW110464   4.414   3.023   1.083
 3002SOL    HW210465   4.526   3.093   0.987
 3003SOL     OW10466   4.574   2.660   1.823
 3003SOL    HW110467   4.570   2.736   1.888
 3003SOL    HW210468   4.596   2.696   1.732
 3004SOL     OW10469   4.409   2.874   0.665
 3004SOL    HW110470   4.478   2.858   0.735
 3004SOL    HW210471   4.336   2.931   0.703
 3005SOL     OW10472   4.410   3.023   1.803
 3005SOL    HW110473   4.470   3.102   1.817
 3005SOL    HW210474   4.324   3.054   1.762
 3006SOL     OW10475   4.059   3.297   1.061
 3006SOL    HW110476   3.981   3.266   1.008
 3006SOL    HW210477   4.117   3.355   1.004
 3007SOL     OW10478   4.162   2.254   1.499
 3007SOL    HW110479   4.244   2.198   1.508
 3007SOL    HW210480   4.081   2.196   1.503
 3008SOL     OW10481   3.955   3.575   0.483
 3008SOL    HW110482   3.989   3.652   0.537
 3008SOL    HW210483   3.999   3.575   0.393
 3009SOL     OW10484   4.851   3.203   1.690
 3009SOL    HW110485   4.898   3.203   1.778
 3009SOL    HW210486   4.803   3.116   1.679
 3010SOL     OW10487   3.954   3.296   0.538
 3010SOL    HW110488   3.928   3.392   0.538
 3010SOL    HW210489   3.883   3.242   0.583
 3011SOL     OW10490   3.964   2.953   0.886
 3011SOL    HW110491   3.978   2.869   0.938
 3011SOL    HW210492   3.909   3.017   0.941
 3012SOL     OW10493   4.344   3.648   1.439
 3012SOL    HW110494   4.252   3.631   1.474
 3012SOL    HW210495   4.372   3.740   1.465
 3013SOL     OW10496   4.330   2.826   0.123
 3013SOL    HW110497   4.337   2.910   0.069
 3013SOL    HW210498   4.376   2.839   0.211
 3014SOL     OW10499   3.846   2.505   0.563
 3014SOL    HW110500   3.801   2.417   0.580
 3014SOL    HW210501   3.845   2.559   0.647
 3015SOL     OW10502   3.751   3.458   0.117
 3015SOL    HW110503   3.732   3.362   0.138
 3015SOL    HW210504   3.718   3.516   0.192
 3016SOL     OW10505   3.837   2.599   1.597
 3016SOL    HW110506   3.925   2.586   1.642
 3016SOL    HW210507   3.824   2.696   1.575
 3017SOL     OW10508   4.337   3.227   0.726
 3017SOL    HW110509   4.288   3.140   0.735
 3017SOL    HW210510   4.314   3.270   0.639
 3018SOL     OW10511   5.017   3.090   1.423
 3018SOL    HW110512   5.054   3.017   1.365
 3018SOL    HW210513   5.069   3.095   1.508
 3019SOL     OW10514   4.533   1.866   0.502
 3019SOL    HW110515   4.573   1.957   0.493
 3019SOL    HW210516   4.433   1.874   0.508
 3020SOL     OW10517   3.921   2.838   1.264
 3020SOL    HW110518   4.010   2.793   1.250
 3020SOL    HW210519   3.848   2.773   1.245
 3021SOL     OW10520   4.911   3.654   1.616
 3021SOL    HW110521   4.935   3.714   1.540
 3021SOL    HW210522   4.918   3.559   1.586
 3022SOL     OW10523   4.041   2.113   1.801
 3022SOL    HW110524   4.112   2.184   1.807
 3022SOL    HW210525   3.953   2.152   1.829
 3023SOL     OW10526   4.322   2.591   0.270
 3023SOL    HW110527   4.346   2.660   0.202
 3023SOL    HW210528   4.244   2.624   0.324
 3024SOL     OW10529   5.005   2.207   0.944
 3024SOL    HW110530   4.919   2.157   0.931
 3024SOL    HW210531   5.067   2.153   1.000
 3025SOL     OW10532   4.531   2.467   1.465
 3025SOL    HW110533   4.484   2.464   1.554
 3025SOL    HW210534   4.480   2.412   1.399
 3026SOL     OW10535   4.697   2.752   1.572
 3026SOL    HW110536   4.743   2.668   1.543
 3026SOL    HW210537   4.641   2.786   1.497
 3027SOL     OW10538   4.715   2.272   1.242
 3027SOL    HW110539   4.638   2.306   1.296
 3027SOL    HW210540   4.681   2.221   1.163
 3028SOL     OW10541   4.765   2.563   0.429
 3028SOL    HW110542   4.791   2.559   0.525
 3028SOL    HW210543   4.680   2.512   0.415
 3029SOL     OW10544   3.800   2.673   0.789
 3029SOL    HW110545   3.899   2.661   0.798
 3029SOL    HW210546   3.776   2.768   0.810
 3030SOL     OW10547   3.854   3.683   1.571
 3030SOL    HW110548   3.844   3.668   1.670
 3030SOL    HW210549   3.768   3.719   1.535
 3031SOL     OW10550   4.589   2.210   0.195
 3031SOL    HW110551   4.648   2.273   0.146
 3031SOL    HW210552   4.608   2.116   0.166
 3032SOL     OW10553   4.732   3.318   0.477
 3032SOL    HW110554   4.686   3.390   0.425
 3032SOL    HW210555   4.728   3.338   0.575
 3033SOL     OW10556   4.075   3.663   0.853
 3033SOL    HW110557   4.125   3.577   0.859
 3033SOL    HW210558   4.140   3.740   0.850
 3034SOL     OW10559   4.951   3.412   1.506
 3034SOL    HW110560   4.957   3.335   1.570
 3034SOL    HW210561   4.899   3.386   1.426
 3035SOL     OW10562   4.045   2.805   0.242
 3035SOL    HW110563   4.127   2.844   0.200
 3035SOL    HW210564   4.018   2.723   0.193
 3036SOL     OW10565   4.185   3.128   1.727
 3036SOL    HW110566   4.135   3.129   1.641
 3036SOL    HW210567   4.122   3.110   1.803
 3037SOL     OW10568   4.835   3.638   0.237
 3037SOL    HW110569   4.775   3.576   0.287
 3037SOL    HW210570   4.866   3.594   0.152
 3038SOL     OW10571   4.188   3.605   0.323
 3038SOL    HW110572   4.221   3.644   0.409
 3038SOL    HW210573   4.264   3.598   0.258
 3039SOL     OW10574   3.973   3.647   1.241
 3039SOL    HW110575   4.030   3.582   1.291
 3039SOL    HW210576   3.957   3.614   1.148
 3040SOL     OW10577   4.664   3.560   0.904
 3040SOL    HW110578   4.744   3.503   0.925
 3040SOL    HW210579   4.615   3.520   0.827
 3041SOL     OW10580   4.505   2.126   1.749
 3041SOL    HW110581   4.572   2.065   1.792
 3041SOL    HW210582   4.432   2.145   1.814
 3042SOL     OW10583   4.612   3.376   1.195
 3042SOL    HW110584   4.589   3.351   1.101
 3042SOL    HW210585   4.673   3.307   1.234
 3043SOL     OW10586   4.527   3.264   0.924
 3043SOL    HW110587   4.617   3.278   0.882
 3043SOL    HW210588   4.456   3.266   0.853
 3044SOL     OW10589   4.646   2.365   0.899
 3044SOL    HW110590   4.621   2.356   0.803
 3044SOL    HW210591   4.694   2.283   0.930
 3045SOL     OW10592   4.263   1.926   0.512
 3045SOL    HW110593   4.182   1.927   0.570
 3045SOL    HW210594   4.266   2.009   0.457
 3046SOL     OW10595   4.659   2.098   0.480
 3046SOL    HW110596   4.611   2.139   0.402
 3046SOL    HW210597   4.758   2.096   0.461
 3047SOL     OW10598   4.800   2.545   1.464
 3047SOL    HW110599   4.720   2.484   1.467
 3047SOL    HW210600   4.881   2.492   1.440
 3048SOL     OW10601   4.951   3.432   0.793
 3048SOL    HW110602   4.972   3.506   0.728
 3048SOL    HW210603   5.019   3.432   0.866
 3049SOL     OW10604   4.183   3.014   0.741
 3049SOL    HW110605   4.112   2.987   0.806
 3049SOL    HW210606   4.157   2.986   0.648
 3050SOL     OW10607   4.995   3.659   0.591
 3050SOL    HW110608   5.039   3.723   0.527
 3050SOL    HW210609   4.945   3.711   0.661
 3051SOL     OW10610   4.756   2.411   0.016
 3051SOL    HW110611   4.715   2.493  -0.023
 3051SOL    HW210612   4.820   2.437   0.089
 3052SOL     OW10613   3.802   2.418   1.386
 3052SOL    HW110614   3.894   2.417   1.345
 3052SOL    HW210615   3.796   2.492   1.453
 3053SOL     OW10616   4.590   2.316   0.642
 3053SOL    HW110617   4.558   2.388   0.580
 3053SOL    HW210618   4.614   2.235   0.589
 3054SOL     OW10619   4.741   1.901   0.753
 3054SOL    HW110620   4.669   1.906   0.684
 3054SOL    HW210621   4.717   1.832   0.822
 3055SOL     OW10622   4.212   3.247   0.174
 3055SOL    HW110623   4.125   3.232   0.221
 3055SOL    HW210624   4.195   3.273   0.079
 3056SOL     OW10625   5.388   3.142   0.657
 3056SOL    HW110626   5.487   3.150   0.671
 3056SOL    HW210627   5.343   3.226   0.688
 3057SOL     OW10628   4.251   2.118   0.328
 3057SOL    HW110629   4.278   2.059   0.253
 3057SOL    HW210630   4.251   2.213   0.297
 3058SOL     OW10631   4.788   3.209   1.340
 3058SOL    HW110632   4.708   3.186   1.395
 3058SOL    HW210633   4.871   3.183   1.389
 3059SOL     OW10634   4.835   3.057   1.100
 3059SOL    HW110635   4.795   3.101   1.181
 3059SOL    HW210636   4.794   3.094   1.017
 3060SOL     OW10637   4.639   1.951   1.402
 3060SOL    HW110638   4.664   1.931   1.307
 3060SOL    HW210639   4.711   2.007   1.444
 3061SOL     OW10640   4.704   2.978   1.719
 3061SOL    HW110641   4.605   2.984   1.729
 3061SOL    HW210642   4.727   2.898   1.663
 3062SOL     OW10643   4.429   2.912   0.368
 3062SOL    HW110644   4.415   2.919   0.467
 3062SOL    HW210645   4.513   2.861   0.350
 3063SOL     OW10646   4.134   2.675   1.251
 3063SOL    HW110647   4.220   2.687   1.301
 3063SOL    HW210648   4.092   2.588   1.278
 3064SOL     OW10649   4.998   2.248   1.262
 3064SOL    HW110650   5.019   2.322   1.326
 3064SOL    HW210651   4.909   2.265   1.219
 3065SOL     OW10652   3.788   3.426   1.331
 3065SOL    HW110653   3.742   3.508   1.297
 3065SOL    HW210654   3.886   3.445   1.340
 3066SOL     OW10655   4.091   2.962   0.501
 3066SOL    HW110656   4.084   3.045   0.445
 3066SOL    HW210657   4.095   2.882   0.441
 3067SOL     OW10658   4.290   2.399   0.865
 3067SOL    HW110659   4.302   2.465   0.791
 3067SOL    HW210660   4.336   2.433   0.948
 3068SOL     OW10661   4.976   3.210   0.388
 3068SOL    HW110662   5.026   3.287   0.428
 3068SOL    HW210663   4.881   3.212   0.420
 3069SOL     OW10664   4.078   3.372   1.329
 3069SOL    HW110665   4.057   3.328   1.242
 3069SOL    HW210666   4.175   3.398   1.332
 3070SOL     OW10667   4.126   2.613   1.598
 3070SOL    HW110668   4.194   2.668   1.551
 3070SOL    HW210669   4.166   2.525   1.625
 3071SOL     OW10670   4.737   1.967   1.770
 3071SOL    HW110671   4.743   2.052   1.718
 3071SOL    HW210672   4.769   1.891   1.713
 3072SOL     OW10673   4.228   1.912   1.740
 3072SOL    HW110674   4.186   1.855   1.670
 3072SOL    HW210675   4.162   1.981   1.772
 3073SOL     OW10676   4.297   2.732   1.029
 3073SOL    HW110677   4.341   2.821   1.020
 3073SOL    HW210678   4.234   2.732   1.106
 3074SOL     OW10679   5.084   2.724   1.045
 3074SOL    HW110680   5.009   2.724   0.979
 3074SOL    HW210681   5.121   2.632   1.054
 3075SOL     OW10682   4.933   2.387   0.275
 3075SOL    HW110683   4.946   2.303   0.329
 3075SOL    HW210684   4.904   2.461   0.335
 3076SOL     OW10685   4.031   2.075   1.231
 3076SOL    HW110686   4.008   2.112   1.321
 3076SOL    HW210687   4.001   1.980   1.225
 3077SOL     OW10688   3.761   3.172   1.282
 3077SOL    HW110689   3.814   3.123   1.350
 3077SOL    HW210690   3.783   3.270   1.287
 3078SOL     OW10691   4.456   2.496   1.064
 3078SOL    HW110692   4.515   2.470   0.988
 3078SOL    HW210693   4.428   2.592   1.053
 3079SOL     OW10694   4.031   1.925   0.618
 3079SOL    HW110695   4.020   2.019   0.651
 3079SOL    HW210696   4.026   1.862   0.695
 3080SOL     OW10697   5.346   2.229   0.374
 3080SOL    HW110698   5.348   2.153   0.438
 3080SOL    HW210699   5.298   2.306   0.414
 3081SOL     OW10700   4.747   2.628   0.966
 3081SOL    HW110701   4.762   2.649   1.062
 3081SOL    HW210702   4.717   2.533   0.957
 3082SOL     OW10703   4.704   3.435   1.700
 3082SOL    HW110704   4.684   3.479   1.612
 3082SOL    HW210705   4.743   3.344   1.684
 3083SOL     OW10706   4.074   2.760   1.804
 3083SOL    HW110707   4.150   2.804   1.852
 3083SOL    HW210708   4.109   2.713   1.722
 3084SOL     OW10709   5.027   2.700   0.042
 3084SOL    HW110710   5.061   2.607   0.057
 3084SOL    HW210711   5.045   2.727  -0.053
 3085SOL     OW10712   4.792   3.195   0.849
 3085SOL    HW110713   4.799   3.111   0.794
 3085SOL    HW210714   4.854   3.264   0.813
 3086SOL     OW10715   4.043   2.672   0.949
 3086SOL    HW110716   4.136   2.708   0.954
 3086SOL    HW210717   4.037   2.587   1.001
 3087SOL     OW10718   4.063   2.371   1.006
 3087SOL    HW110719   4.011   2.288   0.989
 3087SOL    HW210720   4.140   2.376   0.942
 3088SOL     OW10721   4.862   2.242   1.678
 3088SOL    HW110722   4.817   2.305   1.742
 3088SOL    HW210723   4.955   2.273   1.661
 3089SOL     OW10724   4.884   2.069   1.477
 3089SOL    HW110725   4.884   2.133   1.554
 3089SOL    HW210726   4.912   2.117   1.394
 3090SOL     OW10727   3.812   3.663   0.927
 3090SOL    HW110728   3.770   3.577   0.900
 3090SOL    HW210729   3.906   3.666   0.893
 3091SOL     OW10730   4.228   3.430   0.910
 3091SOL    HW110731   4.294   3.504   0.919
 3091SOL    HW210732   4.272   3.351   0.868
 3092SOL     OW10733   4.726   2.658   1.238
 3092SOL    HW110734   4.767   2.626   1.324
 3092SOL    HW210735   4.630   2.631   1.235
 3093SOL     OW10736   3.764   2.406   1.114
 3093SOL    HW110737   3.849   2.373   1.073
 3093SOL    HW210738   3.777   2.421   1.212
 3094SOL     OW10739   3.913   2.382   1.722
 3094SOL    HW110740   3.972   2.342   1.652
 3094SOL    HW210741   3.855   2.453   1.681
 3095SOL     OW10742   4.539   2.434   0.325
 3095SOL    HW110743   4.546   2.345   0.279
 3095SOL    HW210744   4.445   2.468   0.317
 3096SOL     OW10745   3.976   3.426   1.744
 3096SOL    HW110746   3.946   3.483   1.820
 3096SOL    HW210747   3.969   3.329   1.770
 3097SOL     OW10748   4.395   2.326   1.269
 3097SOL    HW110749   4.361   2.237   1.239
 3097SOL    HW210750   4.421   2.380   1.189
 3098SOL     OW10751   4.654   3.540   1.465
 3098SOL    HW110752   4.630   3.522   1.370
 3098SOL    HW210753   4.684   3.634   1.475
 3099SOL     OW10754   3.883   2.999   1.466
 3099SOL    HW110755   3.905   2.938   1.542
 3099SOL    HW210756   3.893   2.950   1.380
 3100SOL     OW10757   5.071   2.921   1.234
 3100SOL    HW110758   5.095   2.858   1.160
 3100SOL    HW210759   4.981   2.961   1.216
 3101SOL     OW10760   4.976   3.593   1.128
 3101SOL    HW110761   5.060   3.598   1.074
 3101SOL    HW210762   4.953   3.497   1.146
 3102SOL     OW10763   3.807   3.120   1.022
 3102SOL    HW110764   3.802   3.119   1.122
 3102SOL    HW210765   3.724   3.079   0.984
 3103SOL     OW10766   4.412   3.524   1.716
 3103SOL    HW110767   4.356   3.605   1.725
 3103SOL    HW210768   4.464   3.528   1.630
 3104SOL     OW10769   4.627   1.948   0.133
 3104SOL    HW110770   4.678   1.949   0.047
 3104SOL    HW210771   4.683   1.906   0.204
 3105SOL     OW10772   5.112   3.435   0.477
 3105SOL    HW110773   5.179   3.447   0.403
 3105SOL    HW210774   5.072   3.524   0.500
 3106SOL     OW10775   3.854   3.656   1.851
 3106SOL    HW110776   3.813   3.582   1.904
 3106SOL    HW210777   3.918   3.707   1.909
 3107SOL     OW10778   5.004   2.789   0.672
 3107SOL    HW110779   5.064   2.708   0.674
 3107SOL    HW210780   5.044   2.858   0.612
 3108SOL     OW10781   4.554   3.135   1.422
 3108SOL    HW110782   4.549   3.168   1.517
 3108SOL    HW210783   4.468   3.154   1.376
 3109SOL     OW10784   4.396   3.478   0.154
 3109SOL    HW110785   4.405   3.488   0.055
 3109SOL    HW210786   4.356   3.389   0.175
 3110SOL     OW10787   4.918   3.474   0.031
 3110SOL    HW110788   4.924   3.381   0.068
 3110SOL    HW210789   4.859   3.474  -0.049
 3111SOL     OW10790   4.546   2.864   1.372
 3111SOL    HW110791   4.586   2.863   1.280
 3111SOL    HW210792   4.556   2.956   1.412
 3112SOL     OW10793   4.640   2.772   0.291
 3112SOL    HW110794   4.703   2.810   0.223
 3112SOL    HW210795   4.680   2.689   0.330
 3113SOL     OW10796   4.096   3.150   1.490
 3113SOL    HW110797   4.083   3.243   1.456
 3113SOL    HW210798   4.012   3.098   1.477
 3114SOL     OW10799   4.763   2.960   0.696
 3114SOL    HW110800   4.693   2.913   0.750
 3114SOL    HW210801   4.822   2.892   0.653
 3115SOL     OW10802   4.314   3.349   0.491
 3115SOL    HW110803   4.356   3.291   0.421
 3115SOL    HW210804   4.270   3.428   0.447
 3116SOL     OW10805   3.979   3.210   0.290
 3116SOL    HW110806   3.883   3.211   0.263
 3116SOL    HW210807   3.991   3.263   0.374
 3117SOL     OW10808   3.829   2.875   1.726
 3117SOL    HW110809   3.752   2.842   1.780
 3117SOL    HW210810   3.914   2.845   1.768
 3118SOL     OW10811   4.396   2.065   1.489
 3118SOL    HW110812   4.486   2.049   1.449
 3118SOL    HW210813   4.404   2.070   1.588
 3119SOL     OW10814   5.164   2.718   1.398
 3119SOL    HW110815   5.107   2.770   1.335
 3119SOL    HW210816   5.260   2.730   1.374
 3120SOL     OW10817   4.337   2.704   1.431
 3120SOL    HW110818   4.393   2.785   1.414
 3120SOL    HW210819   4.396   2.624   1.434
 3121SOL     OW10820   4.440   2.427   1.708
 3121SOL    HW110821   4.459   2.492   1.782
 3121SOL    HW210822   4.500   2.347   1.717
 3122SOL     OW10823   4.114   3.603   1.560
 3122SOL    HW110824   4.023   3.644   1.558
 3122SOL    HW210825   4.107   3.509   1.592
 3123SOL     OW10826   4.949   2.187   0.449
 3123SOL    HW110827   5.014   2.113   0.438
 3123SOL    HW210828   4.969   2.237   0.533
 3124SOL     OW10829   4.318   2.607   0.652
 3124SOL    HW110830   4.368   2.692   0.633
 3124SOL    HW210831   4.230   2.609   0.604
 3125SOL     OW10832   4.583   3.236   0.016
 3125SOL    HW110833   4.537   3.251   0.104
 3125SOL    HW210834   4.627   3.321  -0.014
 3126SOL     OW10835   4.385   3.652   0.953
 3126SOL    HW110836   4.339   3.740   0.940
 3126SOL    HW210837   4.484   3.664   0.946
 3127SOL     OW10838   4.583   2.818   0.861
 3127SOL    HW110839   4.637   2.749   0.909
 3127SOL    HW210840   4.551   2.887   0.927
 3128SOL     OW10841   4.807   2.846   0.087
 3128SOL    HW110842   4.784   2.899   0.005
 3128SOL    HW210843   4.888   2.790   0.068
 3129SOL     OW10844   3.945   3.176   1.844
 3129SOL    HW110845   3.880   3.103   1.823
 3129SOL    HW210846   3.949   3.190   1.942
 3130SOL     OW10847   3.803   3.102   0.653
 3130SOL    HW110848   3.802   3.055   0.741
 3130SOL    HW210849   3.885   3.074   0.602
 3131SOL     OW10850   4.396   3.253   1.624
 3131SOL    HW110851   4.318   3.203   1.662
 3131SOL    HW210852   4.393   3.348   1.655
 3132SOL     OW10853   4.152   2.286   0.520
 3132SOL    HW110854   4.182   2.214   0.458
 3132SOL    HW210855   4.113   2.246   0.603
 3133SOL     OW10856   4.041   2.409   1.280
 3133SOL    HW110857   4.079   2.350   1.352
 3133SOL    HW210858   4.081   2.383   1.192
 3134SOL     OW10859   4.536   3.448   0.687
 3134SOL    HW110860   4.568   3.458   0.593
 3134SOL    HW210861   4.457   3.386   0.689
 3135SOL     OW10862   4.494   3.192   0.301
 3135SOL    HW110863   4.448   3.105   0.318
 3135SOL    HW210864   4.585   3.189   0.342
 3136SOL     OW10865   4.342   3.429   1.284
 3136SOL    HW110866   4.337   3.511   1.341
 3136SOL    HW210867   4.431   3.426   1.239
 3137SOL     OW10868   3.763   2.939   0.300
 3137SOL    HW110869   3.862   2.928   0.291
 3137SOL    HW210870   3.723   2.853   0.332
 3138SOL     OW10871   4.599   3.508   0.337
 3138SOL    HW110872   4.522   3.473   0.283
 3138SOL    HW210873   4.567   3.579   0.399
 3139SOL     OW10874   3.954   2.490   1.975
 3139SOL    HW110875   3.861   2.488   2.012
 3139SOL    HW210876   3.955   2.451   1.883
 3140SOL     OW10877   3.743   2.230   2.509
 3140SOL    HW110878   3.661   2.273   2.548
 3140SOL    HW210879   3.715   2.157   2.446
 3141SOL     OW10880   4.293   3.137   3.027
 3141SOL    HW110881   4.200   3.130   2.990
 3141SOL    HW210882   4.304   3.226   3.071
 3142SOL     OW10883   4.859   2.565   2.579
 3142SOL    HW110884   4.916   2.643   2.554
 3142SOL    HW210885   4.799   2.591   2.655
 3143SOL     OW10886   4.492   3.006   2.885
 3143SOL    HW110887   4.414   3.023   2.945
 3143SOL    HW210888   4.526   3.093   2.849
 3144SOL     OW10889   4.574   2.660   3.685
 3144SOL    HW110890   4.570   2.736   3.750
 3144SOL    HW210891   4.596   2.696   3.594
 3145SOL     OW10892   4.409   2.874   2.527
 3145SOL    HW110893   4.478   2.858   2.597
 3145SOL    HW210894   4.336   2.931   2.565
 3146SOL     OW10895   4.410   3.023   3.665
 3146SOL    HW110896   4.470   3.102   3.679
 3146SOL    HW210897   4.324   3.054   3.624
 3147SOL     OW10898   4.059   3.297   2.923
 3147SOL    HW110899   3.981   3.266   2.870
 3147SOL    HW210900   4.117   3.355   2.866
 3148SOL     OW10901   3.955   3.575   2.345
 3148SOL    HW110902   3.989   3.652   2.399
 3148SOL    HW210903   3.999   3.575   2.255
 3149SOL     OW10904   4.851   3.203   3.552
 3149SOL    HW110905   4.898   3.203   3.640
 3149SOL    HW210906   4.803   3.116   3.541
 3150SOL     OW10907   3.954   3.296   2.400
 3150SOL    HW110908   3.928   3.392   2.400
 3150SOL    HW210909   3.883   3.242   2.445
 3151SOL     OW10910   3.964   2.953   2.748
 3151SOL    HW110911   3.978   2.869   2.800
 3151SOL    HW210912   3.909   3.017   2.803
 3152SOL     OW10913   4.344   3.648   3.301
 3152SOL    HW110914   4.252   3.631   3.336
 3152SOL    HW210915   4.372   3.740   3.327
 3153SOL     OW10916   4.330   2.826   1.985
 3153SOL    HW110917   4.337   2.910   1.931
 3153SOL    HW210918   4.376   2.839   2.073
 3154SOL     OW10919   3.846   2.505   2.425
 3154SOL    HW110920   3.801   2.417   2.442
 3154SOL    HW210921   3.845   2.559   2.509
 3155SOL     OW10922   3.751   3.458   1.979
 3155SOL    HW110923   3.732   3.362   2.000
 3155SOL    HW210924   3.718   3.516   2.054
 3156SOL     OW10925   3.837   2.599   3.459
 3156SOL    HW110926   3.925   2.586   3.504
 3156SOL    HW210927   3.824   2.696   3.437
 3157SOL     OW10928   4.337   3.227   2.588
 3157SOL    HW110929   4.288   3.140   2.597
 3157SOL    HW210930   4.314   3.270   2.501
 3158SOL     OW10931   5.017   3.090   3.285
 3158SOL    HW110932   5.054   3.017   3.227
 3158SOL    HW210933   5.069   3.095   3.370
 3159SOL     OW10934   3.921   2.838   3.126
 3159SOL    HW110935   4.010   2.793   3.112
 3159SOL    HW210936   3.848   2.773   3.107
 3160SOL     OW10937   4.041   2.113   3.663
 3160SOL    HW110938   4.112   2.184   3.669
 3160SOL    HW210939   3.953   2.152   3.691
 3161SOL     OW10940   4.322   2.591   2.132
 3161SOL    HW110941   4.346   2.660   2.064
 3161SOL    HW210942   4.244   2.624   2.186
 3162SOL     OW10943   5.005   2.207   2.806
 3162SOL    HW110944   4.919   2.157   2.793
 3162SOL    HW210945   5.067   2.153   2.862
 3163SOL     OW10946   4.531   2.467   3.327
 3163SOL    HW110947   4.484   2.464   3.416
 3163SOL    HW210948   4.480   2.412   3.261
 3164SOL     OW10949   4.697   2.752   3.434
 3164SOL    HW110950   4.743   2.668   3.405
 3164SOL    HW210951   4.641   2.786   3.359
 3165SOL     OW10952   4.715   2.272   3.104
 3165SOL    HW110953   4.638   2.306   3.158
 3165SOL    HW210954   4.681   2.221   3.025
 3166SOL     OW10955   4.765   2.563   2.291
 3166SOL    HW110956   4.791   2.559   2.387
 3166SOL    HW210957   4.680   2.512   2.277
 3167SOL     OW10958   3.854   3.683   3.433
 3167SOL    HW110959   3.844   3.668   3.532
 3167SOL    HW210960   3.768   3.719   3.397
 3168SOL     OW10961   4.274   2.058   2.747
 3168SOL    HW110962   4.269   2.053   2.847
 3168SOL    HW210963   4.276   2.154   2.718
 3169SOL     OW10964   4.732   3.318   2.339
 3169SOL    HW110965   4.686   3.390   2.287
 3169SOL    HW210966   4.728   3.338   2.437
 3170SOL     OW10967   4.075   3.663   2.715
 3170SOL    HW110968   4.125   3.577   2.721
 3170SOL    HW210969   4.140   3.740   2.712
 3171SOL     OW10970   4.951   3.412   3.368
 3171SOL    HW110971   4.957   3.335   3.432
 3171SOL    HW210972   4.899   3.386   3.288
 3172SOL     OW10973   4.045   2.805   2.104
 3172SOL    HW110974   4.127   2.844   2.062
 3172SOL    HW210975   4.018   2.723   2.055
 3173SOL     OW10976   4.185   3.128   3.589
 3173SOL    HW110977   4.135   3.129   3.503
 3173SOL    HW210978   4.122   3.110   3.665
 3174SOL     OW10979   4.835   3.638   2.099
 3174SOL    HW110980   4.775   3.576   2.149
 3174SOL    HW210981   4.866   3.594   2.014
 3175SOL     OW10982   4.188   3.605   2.185
 3175SOL    HW110983   4.221   3.644   2.271
 3175SOL    HW210984   4.264   3.598   2.120
 3176SOL     OW10985   3.973   3.647   3.103
 3176SOL    HW110986   4.030   3.582   3.153
 3176SOL    HW210987   3.957   3.614   3.010
 3177SOL     OW10988   4.106   2.562   2.342
 3177SOL    HW110989   4.151   2.472   2.339
 3177SOL    HW210990   4.012   2.551   2.375
 3178SOL     OW10991   4.505   2.126   3.611
 3178SOL    HW110992   4.572   2.065   3.654
 3178SOL    HW210993   4.432   2.145   3.676
 3179SOL     OW10994   4.527   3.264   2.786
 3179SOL    HW110995   4.617   3.278   2.744
 3179SOL    HW210996   4.456   3.266   2.715
 3180SOL     OW10997   4.646   2.365   2.761
 3180SOL    HW110998   4.621   2.356   2.665
 3180SOL    HW210999   4.694   2.283   2.792
 3181SOL     OW11000   4.800   2.545   3.326
 3181SOL    HW111001   4.720   2.484   3.329
 3181SOL    HW211002   4.881   2.492   3.302
 3182SOL     OW11003   4.951   3.432   2.655
 3182SOL    HW111004   4.972   3.506   2.590
 3182SOL    HW211005   5.019   3.432   2.728
 3183SOL     OW11006   4.183   3.014   2.603
 3183SOL    HW111007   4.112   2.987   2.668
 3183SOL    HW211008   4.157   2.986   2.510
 3184SOL     OW11009   4.995   3.659   2.453
 3184SOL    HW111010   5.039   3.723   2.389
 3184SOL    HW211011   4.945   3.711   2.523
 3185SOL     OW11012   4.756   2.411   1.878
 3185SOL    HW111013   4.715   2.493   1.839
 3185SOL    HW211014   4.820   2.437   1.951
 3186SOL     OW11015   3.802   2.418   3.248
 3186SOL    HW111016   3.894   2.417   3.207
 3186SOL    HW211017   3.796   2.492   3.315
 3187SOL     OW11018   4.590   2.316   2.504
 3187SOL    HW111019   4.558   2.388   2.442
 3187SOL    HW211020   4.614   2.235   2.451
 3188SOL     OW11021   4.741   1.901   2.615
 3188SOL    HW111022   4.669   1.906   2.546
 3188SOL    HW211023   4.717   1.832   2.684
 3189SOL     OW11024   4.212   3.247   2.036
 3189SOL    HW111025   4.125   3.232   2.083
 3189SOL    HW211026   4.195   3.273   1.941
 3190SOL     OW11027   5.388   3.142   2.519
 3190SOL    HW111028   5.487   3.150   2.533
 3190SOL    HW211029   5.343   3.226   2.550
 3191SOL     OW11030   4.251   2.118   2.190
 3191SOL    HW111031   4.278   2.059   2.115
 3191SOL    HW211032   4.251   2.213   2.159
 3192SOL     OW11033   4.788   3.209   3.202
 3192SOL    HW111034   4.708   3.186   3.257
 3192SOL    HW211035   4.871   3.183   3.251
 3193SOL     OW11036   4.835   3.057   2.962
 3193SOL    HW111037   4.795   3.101   3.043
 3193SOL    HW211038   4.794   3.094   2.879
 3194SOL     OW11039   4.639   1.951   3.264
 3194SOL    HW111040   4.664   1.931   3.169
 3194SOL    HW211041   4.711   2.007   3.306
 3195SOL     OW11042   4.704   2.978   3.581
 3195SOL    HW111043   4.605   2.984   3.591
 3195SOL    HW211044   4.727   2.898   3.525
 3196SOL     OW11045   4.429   2.912   2.230
 3196SOL    HW111046   4.415   2.919   2.329
 3196SOL    HW211047   4.513   2.861   2.212
 3197SOL     OW11048   4.134   2.675   3.113
 3197SOL    HW111049   4.220   2.687   3.163
 3197SOL    HW211050   4.092   2.588   3.140
 3198SOL     OW11051   4.998   2.248   3.124
 3198SOL    HW111052   5.019   2.322   3.188
 3198SOL    HW211053   4.909   2.265   3.081
 3199SOL     OW11054   3.788   3.426   3.193
 3199SOL    HW111055   3.742   3.508   3.159
 3199SOL    HW211056   3.886   3.445   3.202
 3200SOL     OW11057   4.091   2.962   2.363
 3200SOL    HW111058   4.084   3.045   2.307
 3200SOL    HW211059   4.095   2.882   2.303
 3201SOL     OW11060   4.290   2.399   2.727
 3201SOL    HW111061   4.302   2.465   2.653
 3201SOL    HW211062   4.336   2.433   2.810
 3202SOL     OW11063   4.976   3.210   2.250
 3202SOL    HW111064   5.026   3.287   2.290
 3202SOL    HW211065   4.881   3.212   2.282
 3203SOL     OW11066   4.078   3.372   3.191
 3203SOL    HW111067   4.057   3.328   3.104
 3203SOL    HW211068   4.175   3.398   3.194
 3204SOL     OW11069   4.126   2.613   3.460
 3204SOL    HW111070   4.194   2.668   3.413
 3204SOL    HW211071   4.166   2.525   3.487
 3205SOL     OW11072   4.737   1.967   3.632
 3205SOL    HW111073   4.743   2.052   3.580
 3205SOL    HW211074   4.769   1.891   3.575
 3206SOL     OW11075   4.297   2.732   2.891
 3206SOL    HW111076   4.341   2.821   2.882
 3206SOL    HW211077   4.234   2.732   2.968
 3207SOL     OW11078   5.084   2.724   2.907
 3207SOL    HW111079   5.009   2.724   2.841
 3207SOL    HW211080   5.121   2.632   2.916
 3208SOL     OW11081   4.933   2.387   2.137
 3208SOL    HW111082   4.946   2.303   2.191
 3208SOL    HW211083   4.904   2.461   2.197
 3209SOL     OW11084   3.761   3.172   3.144
 3209SOL    HW111085   3.814   3.123   3.212
 3209SOL    HW211086   3.783   3.270   3.149
 3210SOL     OW11087   4.456   2.496   2.926
 3210SOL    HW111088   4.515   2.470   2.850
 3210SOL    HW211089   4.428   2.592   2.915
 3211SOL     OW11090   4.031   1.925   2.480
 3211SOL    HW111091   4.020   2.019   2.513
 3211SOL    HW211092   4.026   1.862   2.557
 3212SOL     OW11093   5.346   2.229   2.236
 3212SOL    HW111094   5.348   2.153   2.300
 3212SOL    HW211095   5.298   2.306   2.276
 3213SOL     OW11096   4.747   2.628   2.828
 3213SOL    HW111097   4.762   2.649   2.924
 3213SOL    HW211098   4.717   2.533   2.819
 3214SOL     OW11099   4.704   3.435   3.562
 3214SOL    HW111100   4.684   3.479   3.474
 3214SOL    HW211101   4.743   3.344   3.546
 3215SOL     OW11102   4.074   2.760   3.666
 3215SOL    HW111103   4.150   2.804   3.714
 3215SOL    HW211104   4.109   2.713   3.584
 3216SOL     OW11105   5.027   2.700   1.904
 3216SOL    HW111106   5.061   2.607   1.919
 3216SOL    HW211107   5.045   2.727   1.809
 3217SOL     OW11108   4.792   3.195   2.711
 3217SOL    HW111109   4.799   3.111   2.656
 3217SOL    HW211110   4.854   3.264   2.675
 3218SOL     OW11111   4.043   2.672   2.811
 3218SOL    HW111112   4.136   2.708   2.816
 3218SOL    HW211113   4.037   2.587   2.863
 3219SOL     OW11114   4.862   2.242   3.540
 3219SOL    HW111115   4.817   2.305   3.604
 3219SOL    HW211116   4.955   2.273   3.523
 3220SOL     OW11117   4.884   2.069   3.339
 3220SOL    HW111118   4.884   2.133   3.416
 3220SOL    HW211119   4.912   2.117   3.256
 3221SOL     OW11120   3.732   3.188   2.062
 3221SOL    HW111121   3.639   3.209   2.031
 3221SOL    HW211122   3.742   3.089   2.075
 3222SOL     OW11123   3.812   3.663   2.789
 3222SOL    HW111124   3.770   3.577   2.762
 3222SOL    HW211125   3.906   3.666   2.755
 3223SOL     OW11126   4.228   3.430   2.772
 3223SOL    HW111127   4.294   3.504   2.781
 3223SOL    HW211128   4.272   3.351   2.730
 3224SOL     OW11129   4.726   2.658   3.100
 3224SOL    HW111130   4.767   2.626   3.186
 3224SOL    HW211131   4.630   2.631   3.097
 3225SOL     OW11132   3.913   2.382   3.584
 3225SOL    HW111133   3.972   2.342   3.514
 3225SOL    HW211134   3.855   2.453   3.543
 3226SOL     OW11135   4.395   2.326   3.131
 3226SOL    HW111136   4.361   2.237   3.101
 3226SOL    HW211137   4.421   2.380   3.051
 3227SOL     OW11138   3.883   2.999   3.328
 3227SOL    HW111139   3.905   2.938   3.404
 3227SOL    HW211140   3.893   2.950   3.242
 3228SOL     OW11141   5.071   2.921   3.096
 3228SOL    HW111142   5.095   2.858   3.022
 3228SOL    HW211143   4.981   2.961   3.078
 3229SOL     OW11144   3.807   3.120   2.884
 3229SOL    HW111145   3.802   3.119   2.984
 3229SOL    HW211146   3.724   3.079   2.846
 3230SOL     OW11147   4.412   3.524   3.578
 3230SOL    HW111148   4.356   3.605   3.587
 3230SOL    HW211149   4.464   3.528   3.492
 3231SOL     OW11150   5.112   3.435   2.339
 3231SOL    HW111151   5.179   3.447   2.265
 3231SOL    HW211152   5.072   3.524   2.362
 3232SOL     OW11153   3.854   3.656   3.713
 3232SOL    HW111154   3.813   3.582   3.766
 3232SOL    HW211155   3.918   3.707   3.771
 3233SOL     OW11156   5.004   2.789   2.534
 3233SOL    HW111157   5.064   2.708   2.536
 3233SOL    HW211158   5.044   2.858   2.474
 3234SOL     OW11159   4.554   3.135   3.284
 3234SOL    HW111160   4.549   3.168   3.379
 3234SOL    HW211161   4.468   3.154   3.238
 3235SOL     OW11162   4.396   3.478   2.016
 3235SOL    HW111163   4.405   3.488   1.917
 3235SOL    HW211164   4.356   3.389   2.037
 3236SOL     OW11165   3.987   2.188   2.582
 3236SOL    HW111166   3.908   2.239   2.548
 3236SOL    HW211167   3.978   2.173   2.680
 3237SOL     OW11168   4.918   3.474   1.893
 3237SOL    HW111169   4.924   3.381   1.930
 3237SOL    HW211170   4.859   3.474   1.813
 3238SOL     OW11171   4.546   2.864   3.234
 3238SOL    HW111172   4.586   2.863   3.142
 3238SOL    HW211173   4.556   2.956   3.274
 3239SOL     OW11174   4.640   2.772   2.153
 3239SOL    HW111175   4.703   2.810   2.085
 3239SOL    HW211176   4.680   2.689   2.192
 3240SOL     OW11177   4.096   3.150   3.352
 3240SOL    HW111178   4.083   3.243   3.318
 3240SOL    HW211179   4.012   3.098   3.339
 3241SOL     OW11180   4.763   2.960   2.558
 3241SOL    HW111181   4.693   2.913   2.612
 3241SOL    HW211182   4.822   2.892   2.515
 3242SOL     OW11183   4.738   2.098   2.833
 3242SOL    HW111184   4.730   2.062   2.740
 3242SOL    HW211185   4.736   2.022   2.898
 3243SOL     OW11186   4.314   3.349   2.353
 3243SOL    HW111187   4.356   3.291   2.283
 3243SOL    HW211188   4.270   3.428   2.309
 3244SOL     OW11189   3.979   3.210   2.152
 3244SOL    HW111190   3.883   3.211   2.125
 3244SOL    HW211191   3.991   3.263   2.236
 3245SOL     OW11192   3.829   2.875   3.588
 3245SOL    HW111193   3.752   2.842   3.642
 3245SOL    HW211194   3.914   2.845   3.630
 3246SOL     OW11195   4.396   2.065   3.351
 3246SOL    HW111196   4.486   2.049   3.311
 3246SOL    HW211197   4.404   2.070   3.450
 3247SOL     OW11198   3.799   2.207   1.895
 3247SOL    HW111199   3.707   2.179   1.866
 3247SOL    HW211200   3.830   2.284   1.839
 3248SOL     OW11201   5.164   2.718   3.260
 3248SOL    HW111202   5.107   2.770   3.197
 3248SOL    HW211203   5.260   2.730   3.236
 3249SOL     OW11204   3.796   2.028   2.180
 3249SOL    HW111205   3.779   2.111   2.126
 3249SOL    HW211206   3.886   1.991   2.158
 3250SOL     OW11207   4.337   2.704   3.293
 3250SOL    HW111208   4.393   2.785   3.276
 3250SOL    HW211209   4.396   2.624   3.296
 3251SOL     OW11210   4.440   2.427   3.570
 3251SOL    HW111211   4.459   2.492   3.644
 3251SOL    HW211212   4.500   2.347   3.579
 3252SOL     OW11213   4.114   3.603   3.422
 3252SOL    HW111214   4.023   3.644   3.420
 3252SOL    HW211215   4.107   3.509   3.454
 3253SOL     OW11216   4.318   2.607   2.514
 3253SOL    HW111217   4.368   2.692   2.495
 3253SOL    HW211218   4.230   2.609   2.466
 3254SOL     OW11219   4.583   3.236   1.878
 3254SOL    HW111220   4.537   3.251   1.966
 3254SOL    HW211221   4.627   3.321   1.848
 3255SOL     OW11222   4.583   2.818   2.723
 3255SOL    HW111223   4.637   2.749   2.771
 3255SOL    HW211224   4.551   2.887   2.789
 3256SOL     OW11225   4.807   2.846   1.949
 3256SOL    HW111226   4.784   2.899   1.867
 3256SOL    HW211227   4.888   2.790   1.930
 3257SOL     OW11228   3.945   3.176   3.706
 3257SOL    HW111229   3.880   3.103   3.685
 3257SOL    HW211230   3.949   3.190   3.804
 3258SOL     OW11231   3.803   3.102   2.515
 3258SOL    HW111232   3.802   3.055   2.603
 3258SOL    HW211233   3.885   3.074   2.464
 3259SOL     OW11234   4.396   3.253   3.486
 3259SOL    HW111235   4.318   3.203   3.524
 3259SOL    HW211236   4.393   3.348   3.517
 3260SOL     OW11237   4.152   2.286   2.382
 3260SOL    HW111238   4.182   2.214   2.320
 3260SOL    HW211239   4.113   2.246   2.465
 3261SOL     OW11240   4.536   3.448   2.549
 3261SOL    HW111241   4.568   3.458   2.455
 3261SOL    HW211242   4.457   3.386   2.551
 3262SOL     OW11243   4.725   1.896   3.016
 3262SOL    HW111244   4.662   1.824   2.985
 3262SOL    HW211245   4.818   1.860   3.016
 3263SOL     OW11246   4.494   3.192   2.163
 3263SOL    HW111247   4.448   3.105   2.180
 3263SOL    HW211248   4.585   3.189   2.204
 3264SOL     OW11249   4.342   3.429   3.146
 3264SOL    HW111250   4.337   3.511   3.203
 3264SOL    HW211251   4.431   3.426   3.101
 3265SOL     OW11252   5.076   1.914   2.030
 3265SOL    HW111253   5.111   1.873   1.946
 3265SOL    HW211254   4.986   1.876   2.050
 3266SOL     OW11255   4.599   3.508   2.199
 3266SOL    HW111256   4.522   3.473   2.145
 3266SOL    HW211257   4.567   3.579   2.261
 3267SOL     OW11258   3.954   2.490   3.837
 3267SOL    HW111259   3.861   2.488   3.874
 3267SOL    HW211260   3.955   2.451   3.745
 3268SOL     OW11261   3.949   2.137   4.720
 3268SOL    HW111262   3.984   2.120   4.812
 3268SOL    HW211263   3.861   2.092   4.708
 3269SOL     OW11264   3.743   2.230   4.371
 3269SOL    HW111265   3.661   2.273   4.410
 3269SOL    HW211266   3.715   2.157   4.308
 3270SOL     OW11267   4.293   3.137   4.889
 3270SOL    HW111268   4.200   3.130   4.852
 3270SOL    HW211269   4.304   3.226   4.933
 3271SOL     OW11270   4.859   2.565   4.441
 3271SOL    HW111271   4.916   2.643   4.416
 3271SOL    HW211272   4.799   2.591   4.517
 3272SOL     OW11273   4.492   3.006   4.747
 3272SOL    HW111274   4.414   3.023   4.807
 3272SOL    HW211275   4.526   3.093   4.711
 3273SOL     OW11276   4.409   2.874   4.389
 3273SOL    HW111277   4.478   2.858   4.459
 3273SOL    HW211278   4.336   2.931   4.427
 3274SOL     OW11279   3.964   2.953   4.610
 3274SOL    HW111280   3.978   2.869   4.662
 3274SOL    HW211281   3.909   3.017   4.665
 3275SOL     OW11282   4.344   3.648   5.163
 3275SOL    HW111283   4.252   3.631   5.198
 3275SOL    HW211284   4.372   3.740   5.189
 3276SOL     OW11285   4.330   2.826   3.847
 3276SOL    HW111286   4.337   2.910   3.793
 3276SOL    HW211287   4.376   2.839   3.935
 3277SOL     OW11288   3.846   2.505   4.287
 3277SOL    HW111289   3.801   2.417   4.304
 3277SOL    HW211290   3.845   2.559   4.371
 3278SOL     OW11291   4.337   3.227   4.450
 3278SOL    HW111292   4.288   3.140   4.459
 3278SOL    HW211293   4.314   3.270   4.363
 3279SOL     OW11294   4.533   1.866   4.226
 3279SOL    HW111295   4.573   1.957   4.217
 3279SOL    HW211296   4.433   1.874   4.232
 3280SOL     OW11297   3.921   2.838   4.988
 3280SOL    HW111298   4.010   2.793   4.974
 3280SOL    HW211299   3.848   2.773   4.969
 3281SOL     OW11300   4.322   2.591   3.994
 3281SOL    HW111301   4.346   2.660   3.926
 3281SOL    HW211302   4.244   2.624   4.048
 3282SOL     OW11303   5.005   2.207   4.668
 3282SOL    HW111304   4.919   2.157   4.655
 3282SOL    HW211305   5.067   2.153   4.724
 3283SOL     OW11306   4.715   2.272   4.966
 3283SOL    HW111307   4.638   2.306   5.020
 3283SOL    HW211308   4.681   2.221   4.887
 3284SOL     OW11309   4.765   2.563   4.153
 3284SOL    HW111310   4.791   2.559   4.249
 3284SOL    HW211311   4.680   2.512   4.139
 3285SOL     OW11312   3.800   2.673   4.513
 3285SOL    HW111313   3.899   2.661   4.522
 3285SOL    HW211314   3.776   2.768   4.534
 3286SOL     OW11315   4.589   2.210   3.919
 3286SOL    HW111316   4.648   2.273   3.870
 3286SOL    HW211317   4.608   2.116   3.890
 3287SOL     OW11318   4.274   2.058   4.609
 3287SOL    HW111319   4.269   2.053   4.709
 3287SOL    HW211320   4.276   2.154   4.580
 3288SOL     OW11321   4.732   3.318   4.201
 3288SOL    HW111322   4.686   3.390   4.149
 3288SOL    HW211323   4.728   3.338   4.299
 3289SOL     OW11324   4.045   2.805   3.966
 3289SOL    HW111325   4.127   2.844   3.924
 3289SOL    HW211326   4.018   2.723   3.917
 3290SOL     OW11327   4.835   3.638   3.961
 3290SOL    HW111328   4.775   3.576   4.011
 3290SOL    HW211329   4.866   3.594   3.876
 3291SOL     OW11330   3.973   3.647   4.965
 3291SOL    HW111331   4.030   3.582   5.015
 3291SOL    HW211332   3.957   3.614   4.872
 3292SOL     OW11333   4.664   3.560   4.628
 3292SOL    HW111334   4.744   3.503   4.649
 3292SOL    HW211335   4.615   3.520   4.551
 3293SOL     OW11336   4.106   2.562   4.204
 3293SOL    HW111337   4.151   2.472   4.201
 3293SOL    HW211338   4.012   2.551   4.237
 3294SOL     OW11339   4.338   1.984   3.841
 3294SOL    HW111340   4.436   1.962   3.848
 3294SOL    HW211341   4.307   1.967   3.748
 3295SOL     OW11342   4.527   3.264   4.648
 3295SOL    HW111343   4.617   3.278   4.606
 3295SOL    HW211344   4.456   3.266   4.577
 3296SOL     OW11345   4.646   2.365   4.623
 3296SOL    HW111346   4.621   2.356   4.527
 3296SOL    HW211347   4.694   2.283   4.654
 3297SOL     OW11348   4.263   1.926   4.236
 3297SOL    HW111349   4.182   1.927   4.294
 3297SOL    HW211350   4.266   2.009   4.181
 3298SOL     OW11351   4.659   2.098   4.204
 3298SOL    HW111352   4.611   2.139   4.126
 3298SOL    HW211353   4.758   2.096   4.185
 3299SOL     OW11354   4.951   3.432   4.517
 3299SOL    HW111355   4.972   3.506   4.452
 3299SOL    HW211356   5.019   3.432   4.590
 3300SOL     OW11357   4.183   3.014   4.465
 3300SOL    HW111358   4.112   2.987   4.530
 3300SOL    HW211359   4.157   2.986   4.372
 3301SOL     OW11360   4.995   3.659   4.315
 3301SOL    HW111361   5.039   3.723   4.251
 3301SOL    HW211362   4.945   3.711   4.385
 3302SOL     OW11363   4.756   2.411   3.740
 3302SOL    HW111364   4.715   2.493   3.701
 3302SOL    HW211365   4.820   2.437   3.813
 3303SOL     OW11366   4.285   2.084   4.871
 3303SOL    HW111367   4.323   2.000   4.908
 3303SOL    HW211368   4.197   2.103   4.915
 3304SOL     OW11369   4.590   2.316   4.366
 3304SOL    HW111370   4.558   2.388   4.304
 3304SOL    HW211371   4.614   2.235   4.313
 3305SOL     OW11372   4.741   1.901   4.477
 3305SOL    HW111373   4.669   1.906   4.408
 3305SOL    HW211374   4.717   1.832   4.546
 3306SOL     OW11375   4.212   3.247   3.898
 3306SOL    HW111376   4.125   3.232   3.945
 3306SOL    HW211377   4.195   3.273   3.803
 3307SOL     OW11378   4.251   2.118   4.052
 3307SOL    HW111379   4.278   2.059   3.977
 3307SOL    HW211380   4.251   2.213   4.021
 3308SOL     OW11381   5.316   3.491   5.349
 3308SOL    HW111382   5.343   3.525   5.259
 3308SOL    HW211383   5.395   3.453   5.395
 3309SOL     OW11384   4.835   3.057   4.824
 3309SOL    HW111385   4.795   3.101   4.905
 3309SOL    HW211386   4.794   3.094   4.741
 3310SOL     OW11387   4.429   2.912   4.092
 3310SOL    HW111388   4.415   2.919   4.191
 3310SOL    HW211389   4.513   2.861   4.074
 3311SOL     OW11390   4.290   2.399   4.589
 3311SOL    HW111391   4.302   2.465   4.515
 3311SOL    HW211392   4.336   2.433   4.672
 3312SOL     OW11393   4.976   3.210   4.112
 3312SOL    HW111394   5.026   3.287   4.152
 3312SOL    HW211395   4.881   3.212   4.144
 3313SOL     OW11396   4.078   3.372   5.053
 3313SOL    HW111397   4.057   3.328   4.966
 3313SOL    HW211398   4.175   3.398   5.056
 3314SOL     OW11399   4.297   2.732   4.753
 3314SOL    HW111400   4.341   2.821   4.744
 3314SOL    HW211401   4.234   2.732   4.830
 3315SOL     OW11402   5.084   2.724   4.769
 3315SOL    HW111403   5.009   2.724   4.703
 3315SOL    HW211404   5.121   2.632   4.778
 3316SOL     OW11405   4.933   2.387   3.999
 3316SOL    HW111406   4.946   2.303   4.053
 3316SOL    HW211407   4.904   2.461   4.059
 3317SOL     OW11408   3.761   3.172   5.006
 3317SOL    HW111409   3.814   3.123   5.074
 3317SOL    HW211410   3.783   3.270   5.011
 3318SOL     OW11411   4.456   2.496   4.788
 3318SOL    HW111412   4.515   2.470   4.712
 3318SOL    HW211413   4.428   2.592   4.777
 3319SOL     OW11414   4.031   1.925   4.342
 3319SOL    HW111415   4.020   2.019   4.375
 3319SOL    HW211416   4.026   1.862   4.419
 3320SOL     OW11417   5.346   2.229   4.098
 3320SOL    HW111418   5.348   2.153   4.162
 3320SOL    HW211419   5.298   2.306   4.138
 3321SOL     OW11420   4.747   2.628   4.690
 3321SOL    HW111421   4.762   2.649   4.786
 3321SOL    HW211422   4.717   2.533   4.681
 3322SOL     OW11423   5.027   2.700   3.766
 3322SOL    HW111424   5.061   2.607   3.781
 3322SOL    HW211425   5.045   2.727   3.671
 3323SOL     OW11426   4.792   3.195   4.573
 3323SOL    HW111427   4.799   3.111   4.518
 3323SOL    HW211428   4.854   3.264   4.537
 3324SOL     OW11429   4.043   2.672   4.673
 3324SOL    HW111430   4.136   2.708   4.678
 3324SOL    HW211431   4.037   2.587   4.725
 3325SOL     OW11432   4.884   2.069   5.201
 3325SOL    HW111433   4.884   2.133   5.278
 3325SOL    HW211434   4.912   2.117   5.118
 3326SOL     OW11435   4.228   3.430   4.634
 3326SOL    HW111436   4.294   3.504   4.643
 3326SOL    HW211437   4.272   3.351   4.592
 3327SOL     OW11438   4.726   2.658   4.962
 3327SOL    HW111439   4.767   2.626   5.048
 3327SOL    HW211440   4.630   2.631   4.959
 3328SOL     OW11441   3.764   2.406   4.838
 3328SOL    HW111442   3.849   2.373   4.797
 3328SOL    HW211443   3.777   2.421   4.936
 3329SOL     OW11444   4.539   2.434   4.049
 3329SOL    HW111445   4.546   2.345   4.003
 3329SOL    HW211446   4.445   2.468   4.041
 3330SOL     OW11447   4.395   2.326   4.993
 3330SOL    HW111448   4.361   2.237   4.963
 3330SOL    HW211449   4.421   2.380   4.913
 3331SOL     OW11450   4.654   3.540   5.189
 3331SOL    HW111451   4.630   3.522   5.094
 3331SOL    HW211452   4.684   3.634   5.199
 3332SOL     OW11453   4.197   2.362   3.915
 3332SOL    HW111454   4.258   2.442   3.919
 3332SOL    HW211455   4.102   2.393   3.922
 3333SOL     OW11456   5.071   2.921   4.958
 3333SOL    HW111457   5.095   2.858   4.884
 3333SOL    HW211458   4.981   2.961   4.940
 3334SOL     OW11459   4.976   3.593   4.852
 3334SOL    HW111460   5.060   3.598   4.798
 3334SOL    HW211461   4.953   3.497   4.870
 3335SOL     OW11462   3.807   3.120   4.746
 3335SOL    HW111463   3.802   3.119   4.846
 3335SOL    HW211464   3.724   3.079   4.708
 3336SOL     OW11465   5.112   3.435   4.201
 3336SOL    HW111466   5.179   3.447   4.127
 3336SOL    HW211467   5.072   3.524   4.224
 3337SOL     OW11468   5.004   2.789   4.396
 3337SOL    HW111469   5.064   2.708   4.398
 3337SOL    HW211470   5.044   2.858   4.336
 3338SOL     OW11471   4.396   3.478   3.878
 3338SOL    HW111472   4.405   3.488   3.779
 3338SOL    HW211473   4.356   3.389   3.899
 3339SOL     OW11474   3.987   2.188   4.444
 3339SOL    HW111475   3.908   2.239   4.410
 3339SOL    HW211476   3.978   2.173   4.542
 3340SOL     OW11477   4.918   3.474   3.755
 3340SOL    HW111478   4.924   3.381   3.792
 3340SOL    HW211479   4.859   3.474   3.675
 3341SOL     OW11480   4.546   2.864   5.096
 3341SOL    HW111481   4.586   2.863   5.004
 3341SOL    HW211482   4.556   2.956   5.136
 3342SOL     OW11483   4.640   2.772   4.015
 3342SOL    HW111484   4.703   2.810   3.947
 3342SOL    HW211485   4.680   2.689   4.054
 3343SOL     OW11486   4.763   2.960   4.420
 3343SOL    HW111487   4.693   2.913   4.474
 3343SOL    HW211488   4.822   2.892   4.377
 3344SOL     OW11489   4.738   2.098   4.695
 3344SOL    HW111490   4.730   2.062   4.602
 3344SOL    HW211491   4.736   2.022   4.760
 3345SOL     OW11492   3.799   2.207   3.757
 3345SOL    HW111493   3.707   2.179   3.728
 3345SOL    HW211494   3.830   2.284   3.701
 3346SOL     OW11495   3.796   2.028   4.042
 3346SOL    HW111496   3.779   2.111   3.988
 3346SOL    HW211497   3.886   1.991   4.020
 3347SOL     OW11498   4.949   2.187   4.173
 3347SOL    HW111499   5.014   2.113   4.162
 3347SOL    HW211500   4.969   2.237   4.257
 3348SOL     OW11501   4.318   2.607   4.376
 3348SOL    HW111502   4.368   2.692   4.357
 3348SOL    HW211503   4.230   2.609   4.328
 3349SOL     OW11504   4.583   3.236   3.740
 3349SOL    HW111505   4.537   3.251   3.828
 3349SOL    HW211506   4.627   3.321   3.710
 3350SOL     OW11507   4.385   3.652   4.677
 3350SOL    HW111508   4.339   3.740   4.664
 3350SOL    HW211509   4.484   3.664   4.670
 3351SOL     OW11510   4.583   2.818   4.585
 3351SOL    HW111511   4.637   2.749   4.633
 3351SOL    HW211512   4.551   2.887   4.651
 3352SOL     OW11513   4.807   2.846   3.811
 3352SOL    HW111514   4.784   2.899   3.729
 3352SOL    HW211515   4.888   2.790   3.792
 3353SOL     OW11516   3.803   3.102   4.377
 3353SOL    HW111517   3.802   3.055   4.465
 3353SOL    HW211518   3.885   3.074   4.326
 3354SOL     OW11519   4.152   2.286   4.244
 3354SOL    HW111520   4.182   2.214   4.182
 3354SOL    HW211521   4.113   2.246   4.327
 3355SOL     OW11522   4.536   3.448   4.411
 3355SOL    HW111523   4.568   3.458   4.317
 3355SOL    HW211524   4.457   3.386   4.413
 3356SOL     OW11525   4.725   1.896   4.878
 3356SOL    HW111526   4.662   1.824   4.847
 3356SOL    HW211527   4.818   1.860   4.878
 3357SOL     OW11528   4.494   3.192   4.025
 3357SOL    HW111529   4.448   3.105   4.042
 3357SOL    HW211530   4.585   3.189   4.066
 3358SOL     OW11531   5.076   1.914   3.892
 3358SOL    HW111532   5.111   1.873   3.808
 3358SOL    HW211533   4.986   1.876   3.912
 3359SOL     OW11534   3.763   2.939   4.024
 3359SOL    HW111535   3.862   2.928   4.015
 3359SOL    HW211536   3.723   2.853   4.056
 3360SOL     OW11537   3.954   4.352   0.113
 3360SOL    HW111538   3.861   4.350   0.150
 3360SOL    HW211539   3.955   4.313   0.021
 3361SOL     OW11540   3.949   3.999   0.996
 3361SOL    HW111541   3.984   3.982   1.088
 3361SOL    HW211542   3.861   3.954   0.984
 3362SOL     OW11543   3.743   4.092   0.647
 3362SOL    HW111544   3.661   4.135   0.686
 3362SOL    HW211545   3.715   4.019   0.584
 3363SOL     OW11546   4.293   4.999   1.165
 3363SOL    HW111547   4.200   4.992   1.128
 3363SOL    HW211548   4.304   5.088   1.209
 3364SOL     OW11549   4.859   4.427   0.717
 3364SOL    HW111550   4.916   4.505   0.692
 3364SOL    HW211551   4.799   4.453   0.793
 3365SOL     OW11552   4.492   4.868   1.023
 3365SOL    HW111553   4.414   4.885   1.083
 3365SOL    HW211554   4.526   4.955   0.987
 3366SOL     OW11555   4.574   4.522   1.823
 3366SOL    HW111556   4.570   4.598   1.888
 3366SOL    HW211557   4.596   4.558   1.732
 3367SOL     OW11558   4.409   4.736   0.665
 3367SOL    HW111559   4.478   4.720   0.735
 3367SOL    HW211560   4.336   4.793   0.703
 3368SOL     OW11561   4.410   4.885   1.803
 3368SOL    HW111562   4.470   4.964   1.817
 3368SOL    HW211563   4.324   4.916   1.762
 3369SOL     OW11564   4.059   5.159   1.061
 3369SOL    HW111565   3.981   5.128   1.008
 3369SOL    HW211566   4.117   5.217   1.004
 3370SOL     OW11567   4.162   4.116   1.499
 3370SOL    HW111568   4.244   4.060   1.508
 3370SOL    HW211569   4.081   4.058   1.503
 3371SOL     OW11570   3.964   4.815   0.886
 3371SOL    HW111571   3.978   4.731   0.938
 3371SOL    HW211572   3.909   4.879   0.941
 3372SOL     OW11573   4.330   4.688   0.123
 3372SOL    HW111574   4.337   4.772   0.069
 3372SOL    HW211575   4.376   4.701   0.211
 3373SOL     OW11576   3.846   4.367   0.563
 3373SOL    HW111577   3.801   4.279   0.580
 3373SOL    HW211578   3.845   4.421   0.647
 3374SOL     OW11579   3.837   4.461   1.597
 3374SOL    HW111580   3.925   4.448   1.642
 3374SOL    HW211581   3.824   4.558   1.575
 3375SOL     OW11582   5.017   4.952   1.423
 3375SOL    HW111583   5.054   4.879   1.365
 3375SOL    HW211584   5.069   4.957   1.508
 3376SOL     OW11585   4.533   3.728   0.502
 3376SOL    HW111586   4.573   3.819   0.493
 3376SOL    HW211587   4.433   3.736   0.508
 3377SOL     OW11588   3.921   4.700   1.264
 3377SOL    HW111589   4.010   4.655   1.250
 3377SOL    HW211590   3.848   4.635   1.245
 3378SOL     OW11591   4.041   3.975   1.801
 3378SOL    HW111592   4.112   4.046   1.807
 3378SOL    HW211593   3.953   4.014   1.829
 3379SOL     OW11594   4.322   4.453   0.270
 3379SOL    HW111595   4.346   4.522   0.202
 3379SOL    HW211596   4.244   4.486   0.324
 3380SOL     OW11597   5.005   4.069   0.944
 3380SOL    HW111598   4.919   4.019   0.931
 3380SOL    HW211599   5.067   4.015   1.000
 3381SOL     OW11600   4.531   4.329   1.465
 3381SOL    HW111601   4.484   4.326   1.554
 3381SOL    HW211602   4.480   4.274   1.399
 3382SOL     OW11603   4.697   4.614   1.572
 3382SOL    HW111604   4.743   4.530   1.543
 3382SOL    HW211605   4.641   4.648   1.497
 3383SOL     OW11606   4.715   4.134   1.242
 3383SOL    HW111607   4.638   4.168   1.296
 3383SOL    HW211608   4.681   4.083   1.163
 3384SOL     OW11609   4.765   4.425   0.429
 3384SOL    HW111610   4.791   4.421   0.525
 3384SOL    HW211611   4.680   4.374   0.415
 3385SOL     OW11612   3.800   4.535   0.789
 3385SOL    HW111613   3.899   4.523   0.798
 3385SOL    HW211614   3.776   4.630   0.810
 3386SOL     OW11615   4.274   3.920   0.885
 3386SOL    HW111616   4.269   3.915   0.985
 3386SOL    HW211617   4.276   4.016   0.856
 3387SOL     OW11618   4.045   4.667   0.242
 3387SOL    HW111619   4.127   4.706   0.200
 3387SOL    HW211620   4.018   4.585   0.193
 3388SOL     OW11621   3.926   4.009   1.498
 3388SOL    HW111622   3.846   4.069   1.485
 3388SOL    HW211623   3.916   3.960   1.584
 3389SOL     OW11624   4.106   4.424   0.480
 3389SOL    HW111625   4.151   4.334   0.477
 3389SOL    HW211626   4.012   4.413   0.513
 3390SOL     OW11627   4.505   3.988   1.749
 3390SOL    HW111628   4.572   3.927   1.792
 3390SOL    HW211629   4.432   4.007   1.814
 3391SOL     OW11630   4.527   5.126   0.924
 3391SOL    HW111631   4.617   5.140   0.882
 3391SOL    HW211632   4.456   5.128   0.853
 3392SOL     OW11633   4.646   4.227   0.899
 3392SOL    HW111634   4.621   4.218   0.803
 3392SOL    HW211635   4.694   4.145   0.930
 3393SOL     OW11636   4.263   3.788   0.512
 3393SOL    HW111637   4.182   3.789   0.570
 3393SOL    HW211638   4.266   3.871   0.457
 3394SOL     OW11639   4.021   3.759   0.171
 3394SOL    HW111640   4.070   3.843   0.150
 3394SOL    HW211641   4.083   3.694   0.216
 3395SOL     OW11642   4.659   3.960   0.480
 3395SOL    HW111643   4.611   4.001   0.402
 3395SOL    HW211644   4.758   3.958   0.461
 3396SOL     OW11645   4.800   4.407   1.464
 3396SOL    HW111646   4.720   4.346   1.467
 3396SOL    HW211647   4.881   4.354   1.440
 3397SOL     OW11648   4.951   5.294   0.793
 3397SOL    HW111649   4.972   5.368   0.728
 3397SOL    HW211650   5.019   5.294   0.866
 3398SOL     OW11651   4.183   4.876   0.741
 3398SOL    HW111652   4.112   4.849   0.806
 3398SOL    HW211653   4.157   4.848   0.648
 3399SOL     OW11654   3.802   4.280   1.386
 3399SOL    HW111655   3.894   4.279   1.345
 3399SOL    HW211656   3.796   4.354   1.453
 3400SOL     OW11657   4.285   3.946   1.147
 3400SOL    HW111658   4.323   3.862   1.184
 3400SOL    HW211659   4.197   3.965   1.191
 3401SOL     OW11660   4.590   4.178   0.642
 3401SOL    HW111661   4.558   4.250   0.580
 3401SOL    HW211662   4.614   4.097   0.589
 3402SOL     OW11663   4.741   3.763   0.753
 3402SOL    HW111664   4.669   3.768   0.684
 3402SOL    HW211665   4.717   3.694   0.822
 3403SOL     OW11666   4.251   3.980   0.328
 3403SOL    HW111667   4.278   3.921   0.253
 3403SOL    HW211668   4.251   4.075   0.297
 3404SOL     OW11669   4.639   3.813   1.402
 3404SOL    HW111670   4.664   3.793   1.307
 3404SOL    HW211671   4.711   3.869   1.444
 3405SOL     OW11672   4.704   4.840   1.719
 3405SOL    HW111673   4.605   4.846   1.729
 3405SOL    HW211674   4.727   4.760   1.663
 3406SOL     OW11675   4.429   4.774   0.368
 3406SOL    HW111676   4.415   4.781   0.467
 3406SOL    HW211677   4.513   4.723   0.350
 3407SOL     OW11678   4.134   4.537   1.251
 3407SOL    HW111679   4.220   4.549   1.301
 3407SOL    HW211680   4.092   4.450   1.278
 3408SOL     OW11681   4.998   4.110   1.262
 3408SOL    HW111682   5.019   4.184   1.326
 3408SOL    HW211683   4.909   4.127   1.219
 3409SOL     OW11684   4.091   4.824   0.501
 3409SOL    HW111685   4.084   4.907   0.445
 3409SOL    HW211686   4.095   4.744   0.441
 3410SOL     OW11687   4.290   4.261   0.865
 3410SOL    HW111688   4.302   4.327   0.791
 3410SOL    HW211689   4.336   4.295   0.948
 3411SOL     OW11690   4.976   5.072   0.388
 3411SOL    HW111691   5.026   5.149   0.428
 3411SOL    HW211692   4.881   5.074   0.420
 3412SOL     OW11693   4.126   4.475   1.598
 3412SOL    HW111694   4.194   4.530   1.551
 3412SOL    HW211695   4.166   4.387   1.625
 3413SOL     OW11696   4.737   3.829   1.770
 3413SOL    HW111697   4.743   3.914   1.718
 3413SOL    HW211698   4.769   3.753   1.713
 3414SOL     OW11699   4.228   3.774   1.740
 3414SOL    HW111700   4.186   3.717   1.670
 3414SOL    HW211701   4.162   3.843   1.772
 3415SOL     OW11702   4.297   4.594   1.029
 3415SOL    HW111703   4.341   4.683   1.020
 3415SOL    HW211704   4.234   4.594   1.106
 3416SOL     OW11705   5.084   4.586   1.045
 3416SOL    HW111706   5.009   4.586   0.979
 3416SOL    HW211707   5.121   4.494   1.054
 3417SOL     OW11708   4.031   3.937   1.231
 3417SOL    HW111709   4.008   3.974   1.321
 3417SOL    HW211710   4.001   3.842   1.225
 3418SOL     OW11711   4.456   4.358   1.064
 3418SOL    HW111712   4.515   4.332   0.988
 3418SOL    HW211713   4.428   4.454   1.053
 3419SOL     OW11714   4.031   3.787   0.618
 3419SOL    HW111715   4.020   3.881   0.651
 3419SOL    HW211716   4.026   3.724   0.695
 3420SOL     OW11717   5.346   4.091   0.374
 3420SOL    HW111718   5.348   4.015   0.438
 3420SOL    HW211719   5.298   4.168   0.414
 3421SOL     OW11720   4.747   4.490   0.966
 3421SOL    HW111721   4.762   4.511   1.062
 3421SOL    HW211722   4.717   4.395   0.957
 3422SOL     OW11723   4.074   4.622   1.804
 3422SOL    HW111724   4.150   4.666   1.852
 3422SOL    HW211725   4.109   4.575   1.722
 3423SOL     OW11726   4.043   4.534   0.949
 3423SOL    HW111727   4.136   4.570   0.954
 3423SOL    HW211728   4.037   4.449   1.001
 3424SOL     OW11729   4.063   4.233   1.006
 3424SOL    HW111730   4.011   4.150   0.989
 3424SOL    HW211731   4.140   4.238   0.942
 3425SOL     OW11732   4.862   4.104   1.678
 3425SOL    HW111733   4.817   4.167   1.742
 3425SOL    HW211734   4.955   4.135   1.661
 3426SOL     OW11735   4.884   3.931   1.477
 3426SOL    HW111736   4.884   3.995   1.554
 3426SOL    HW211737   4.912   3.979   1.394
 3427SOL     OW11738   4.726   4.520   1.238
 3427SOL    HW111739   4.767   4.488   1.324
 3427SOL    HW211740   4.630   4.493   1.235
 3428SOL     OW11741   3.764   4.268   1.114
 3428SOL    HW111742   3.849   4.235   1.073
 3428SOL    HW211743   3.777   4.283   1.212
 3429SOL     OW11744   3.913   4.244   1.722
 3429SOL    HW111745   3.972   4.204   1.652
 3429SOL    HW211746   3.855   4.315   1.681
 3430SOL     OW11747   4.539   4.296   0.325
 3430SOL    HW111748   4.546   4.207   0.279
 3430SOL    HW211749   4.445   4.330   0.317
 3431SOL     OW11750   4.395   4.188   1.269
 3431SOL    HW111751   4.361   4.099   1.239
 3431SOL    HW211752   4.421   4.242   1.189
 3432SOL     OW11753   4.197   4.224   0.191
 3432SOL    HW111754   4.258   4.304   0.195
 3432SOL    HW211755   4.102   4.255   0.198
 3433SOL     OW11756   3.883   4.861   1.466
 3433SOL    HW111757   3.905   4.800   1.542
 3433SOL    HW211758   3.893   4.812   1.380
 3434SOL     OW11759   5.071   4.783   1.234
 3434SOL    HW111760   5.095   4.720   1.160
 3434SOL    HW211761   4.981   4.823   1.216
 3435SOL     OW11762   3.807   4.982   1.022
 3435SOL    HW111763   3.802   4.981   1.122
 3435SOL    HW211764   3.724   4.941   0.984
 3436SOL     OW11765   4.627   3.810   0.133
 3436SOL    HW111766   4.678   3.811   0.047
 3436SOL    HW211767   4.683   3.768   0.204
 3437SOL     OW11768   5.004   4.651   0.672
 3437SOL    HW111769   5.064   4.570   0.674
 3437SOL    HW211770   5.044   4.720   0.612
 3438SOL     OW11771   4.554   4.997   1.422
 3438SOL    HW111772   4.549   5.030   1.517
 3438SOL    HW211773   4.468   5.016   1.376
 3439SOL     OW11774   3.987   4.050   0.720
 3439SOL    HW111775   3.908   4.101   0.686
 3439SOL    HW211776   3.978   4.035   0.818
 3440SOL     OW11777   4.546   4.726   1.372
 3440SOL    HW111778   4.586   4.725   1.280
 3440SOL    HW211779   4.556   4.818   1.412
 3441SOL     OW11780   4.640   4.634   0.291
 3441SOL    HW111781   4.703   4.672   0.223
 3441SOL    HW211782   4.680   4.551   0.330
 3442SOL     OW11783   4.096   5.012   1.490
 3442SOL    HW111784   4.083   5.105   1.456
 3442SOL    HW211785   4.012   4.960   1.477
 3443SOL     OW11786   4.763   4.822   0.696
 3443SOL    HW111787   4.693   4.775   0.750
 3443SOL    HW211788   4.822   4.754   0.653
 3444SOL     OW11789   4.738   3.960   0.971
 3444SOL    HW111790   4.730   3.924   0.878
 3444SOL    HW211791   4.736   3.884   1.036
 3445SOL     OW11792   4.396   3.927   1.489
 3445SOL    HW111793   4.486   3.911   1.449
 3445SOL    HW211794   4.404   3.932   1.588
 3446SOL     OW11795   5.164   4.580   1.398
 3446SOL    HW111796   5.107   4.632   1.335
 3446SOL    HW211797   5.260   4.592   1.374
 3447SOL     OW11798   4.337   4.566   1.431
 3447SOL    HW111799   4.393   4.647   1.414
 3447SOL    HW211800   4.396   4.486   1.434
 3448SOL     OW11801   4.440   4.289   1.708
 3448SOL    HW111802   4.459   4.354   1.782
 3448SOL    HW211803   4.500   4.209   1.717
 3449SOL     OW11804   5.174   4.944   1.633
 3449SOL    HW111805   5.165   4.934   1.732
 3449SOL    HW211806   5.270   4.937   1.607
 3450SOL     OW11807   4.949   4.049   0.449
 3450SOL    HW111808   5.014   3.975   0.438
 3450SOL    HW211809   4.969   4.099   0.533
 3451SOL     OW11810   4.318   4.469   0.652
 3451SOL    HW111811   4.368   4.554   0.633
 3451SOL    HW211812   4.230   4.471   0.604
 3452SOL     OW11813   4.583   4.680   0.861
 3452SOL    HW111814   4.637   4.611   0.909
 3452SOL    HW211815   4.551   4.749   0.927
 3453SOL     OW11816   3.803   4.964   0.653
 3453SOL    HW111817   3.802   4.917   0.741
 3453SOL    HW211818   3.885   4.936   0.602
 3454SOL     OW11819   4.152   4.148   0.520
 3454SOL    HW111820   4.182   4.076   0.458
 3454SOL    HW211821   4.113   4.108   0.603
 3455SOL     OW11822   4.041   4.271   1.280
 3455SOL    HW111823   4.079   4.212   1.352
 3455SOL    HW211824   4.081   4.245   1.192
 3456SOL     OW11825   4.725   3.758   1.154
 3456SOL    HW111826   4.662   3.686   1.123
 3456SOL    HW211827   4.818   3.722   1.154
 3457SOL     OW11828   4.494   5.054   0.301
 3457SOL    HW111829   4.448   4.967   0.318
 3457SOL    HW211830   4.585   5.051   0.342
 3458SOL     OW11831   3.763   4.801   0.300
 3458SOL    HW111832   3.862   4.790   0.291
 3458SOL    HW211833   3.723   4.715   0.332
 3459SOL     OW11834   3.954   4.352   1.975
 3459SOL    HW111835   3.861   4.350   2.012
 3459SOL    HW211836   3.955   4.313   1.883
 3460SOL     OW11837   3.949   3.999   2.858
 3460SOL    HW111838   3.984   3.982   2.950
 3460SOL    HW211839   3.861   3.954   2.846
 3461SOL     OW11840   3.743   4.092   2.509
 3461SOL    HW111841   3.661   4.135   2.548
 3461SOL    HW211842   3.715   4.019   2.446
 3462SOL     OW11843   4.293   4.999   3.027
 3462SOL    HW111844   4.200   4.992   2.990
 3462SOL    HW211845   4.304   5.088   3.071
 3463SOL     OW11846   4.859   4.427   2.579
 3463SOL    HW111847   4.916   4.505   2.554
 3463SOL    HW211848   4.799   4.453   2.655
 3464SOL     OW11849   4.492   4.868   2.885
 3464SOL    HW111850   4.414   4.885   2.945
 3464SOL    HW211851   4.526   4.955   2.849
 3465SOL     OW11852   4.574   4.522   3.685
 3465SOL    HW111853   4.570   4.598   3.750
 3465SOL    HW211854   4.596   4.558   3.594
 3466SOL     OW11855   4.409   4.736   2.527
 3466SOL    HW111856   4.478   4.720   2.597
 3466SOL    HW211857   4.336   4.793   2.565
 3467SOL     OW11858   4.410   4.885   3.665
 3467SOL    HW111859   4.470   4.964   3.679
 3467SOL    HW211860   4.324   4.916   3.624
 3468SOL     OW11861   4.059   5.159   2.923
 3468SOL    HW111862   3.981   5.128   2.870
 3468SOL    HW211863   4.117   5.217   2.866
 3469SOL     OW11864   4.162   4.116   3.361
 3469SOL    HW111865   4.244   4.060   3.370
 3469SOL    HW211866   4.081   4.058   3.365
 3470SOL     OW11867   3.964   4.815   2.748
 3470SOL    HW111868   3.978   4.731   2.800
 3470SOL    HW211869   3.909   4.879   2.803
 3471SOL     OW11870   4.330   4.688   1.985
 3471SOL    HW111871   4.337   4.772   1.931
 3471SOL    HW211872   4.376   4.701   2.073
 3472SOL     OW11873   3.846   4.367   2.425
 3472SOL    HW111874   3.801   4.279   2.442
 3472SOL    HW211875   3.845   4.421   2.509
 3473SOL     OW11876   3.837   4.461   3.459
 3473SOL    HW111877   3.925   4.448   3.504
 3473SOL    HW211878   3.824   4.558   3.437
 3474SOL     OW11879   5.017   4.952   3.285
 3474SOL    HW111880   5.054   4.879   3.227
 3474SOL    HW211881   5.069   4.957   3.370
 3475SOL     OW11882   4.533   3.728   2.364
 3475SOL    HW111883   4.573   3.819   2.355
 3475SOL    HW211884   4.433   3.736   2.370
 3476SOL     OW11885   3.921   4.700   3.126
 3476SOL    HW111886   4.010   4.655   3.112
 3476SOL    HW211887   3.848   4.635   3.107
 3477SOL     OW11888   4.041   3.975   3.663
 3477SOL    HW111889   4.112   4.046   3.669
 3477SOL    HW211890   3.953   4.014   3.691
 3478SOL     OW11891   4.322   4.453   2.132
 3478SOL    HW111892   4.346   4.522   2.064
 3478SOL    HW211893   4.244   4.486   2.186
 3479SOL     OW11894   5.005   4.069   2.806
 3479SOL    HW111895   4.919   4.019   2.793
 3479SOL    HW211896   5.067   4.015   2.862
 3480SOL     OW11897   4.531   4.329   3.327
 3480SOL    HW111898   4.484   4.326   3.416
 3480SOL    HW211899   4.480   4.274   3.261
 3481SOL     OW11900   4.697   4.614   3.434
 3481SOL    HW111901   4.743   4.530   3.405
 3481SOL    HW211902   4.641   4.648   3.359
 3482SOL     OW11903   4.715   4.134   3.104
 3482SOL    HW111904   4.638   4.168   3.158
 3482SOL    HW211905   4.681   4.083   3.025
 3483SOL     OW11906   4.765   4.425   2.291
 3483SOL    HW111907   4.791   4.421   2.387
 3483SOL    HW211908   4.680   4.374   2.277
 3484SOL     OW11909   3.800   4.535   2.651
 3484SOL    HW111910   3.899   4.523   2.660
 3484SOL    HW211911   3.776   4.630   2.672
 3485SOL     OW11912   4.589   4.072   2.057
 3485SOL    HW111913   4.648   4.135   2.008
 3485SOL    HW211914   4.608   3.978   2.028
 3486SOL     OW11915   4.274   3.920   2.747
 3486SOL    HW111916   4.269   3.915   2.847
 3486SOL    HW211917   4.276   4.016   2.718
 3487SOL     OW11918   4.045   4.667   2.104
 3487SOL    HW111919   4.127   4.706   2.062
 3487SOL    HW211920   4.018   4.585   2.055
 3488SOL     OW11921   3.926   4.009   3.360
 3488SOL    HW111922   3.846   4.069   3.347
 3488SOL    HW211923   3.916   3.960   3.446
 3489SOL     OW11924   4.106   4.424   2.342
 3489SOL    HW111925   4.151   4.334   2.339
 3489SOL    HW211926   4.012   4.413   2.375
 3490SOL     OW11927   4.338   3.846   1.979
 3490SOL    HW111928   4.436   3.824   1.986
 3490SOL    HW211929   4.307   3.829   1.886
 3491SOL     OW11930   4.505   3.988   3.611
 3491SOL    HW111931   4.572   3.927   3.654
 3491SOL    HW211932   4.432   4.007   3.676
 3492SOL     OW11933   4.646   4.227   2.761
 3492SOL    HW111934   4.621   4.218   2.665
 3492SOL    HW211935   4.694   4.145   2.792
 3493SOL     OW11936   4.263   3.788   2.374
 3493SOL    HW111937   4.182   3.789   2.432
 3493SOL    HW211938   4.266   3.871   2.319
 3494SOL     OW11939   5.158   4.912   1.903
 3494SOL    HW111940   5.190   4.836   1.960
 3494SOL    HW211941   5.066   4.939   1.933
 3495SOL     OW11942   4.021   3.759   2.033
 3495SOL    HW111943   4.070   3.843   2.012
 3495SOL    HW211944   4.083   3.694   2.078
 3496SOL     OW11945   4.659   3.960   2.342
 3496SOL    HW111946   4.611   4.001   2.264
 3496SOL    HW211947   4.758   3.958   2.323
 3497SOL     OW11948   4.800   4.407   3.326
 3497SOL    HW111949   4.720   4.346   3.329
 3497SOL    HW211950   4.881   4.354   3.302
 3498SOL     OW11951   4.951   5.294   2.655
 3498SOL    HW111952   4.972   5.368   2.590
 3498SOL    HW211953   5.019   5.294   2.728
 3499SOL     OW11954   4.183   4.876   2.603
 3499SOL    HW111955   4.112   4.849   2.668
 3499SOL    HW211956   4.157   4.848   2.510
 3500SOL     OW11957   4.756   4.273   1.878
 3500SOL    HW111958   4.715   4.355   1.839
 3500SOL    HW211959   4.820   4.299   1.951
 3501SOL     OW11960   3.802   4.280   3.248
 3501SOL    HW111961   3.894   4.279   3.207
 3501SOL    HW211962   3.796   4.354   3.315
 3502SOL     OW11963   4.590   4.178   2.504
 3502SOL    HW111964   4.558   4.250   2.442
 3502SOL    HW211965   4.614   4.097   2.451
 3503SOL     OW11966   4.251   3.980   2.190
 3503SOL    HW111967   4.278   3.921   2.115
 3503SOL    HW211968   4.251   4.075   2.159
 3504SOL     OW11969   4.704   4.840   3.581
 3504SOL    HW111970   4.605   4.846   3.591
 3504SOL    HW211971   4.727   4.760   3.525
 3505SOL     OW11972   4.429   4.774   2.230
 3505SOL    HW111973   4.415   4.781   2.329
 3505SOL    HW211974   4.513   4.723   2.212
 3506SOL     OW11975   4.134   4.537   3.113
 3506SOL    HW111976   4.220   4.549   3.163
 3506SOL    HW211977   4.092   4.450   3.140
 3507SOL     OW11978   4.998   4.110   3.124
 3507SOL    HW111979   5.019   4.184   3.188
 3507SOL    HW211980   4.909   4.127   3.081
 3508SOL     OW11981   4.091   4.824   2.363
 3508SOL    HW111982   4.084   4.907   2.307
 3508SOL    HW211983   4.095   4.744   2.303
 3509SOL     OW11984   4.290   4.261   2.727
 3509SOL    HW111985   4.302   4.327   2.653
 3509SOL    HW211986   4.336   4.295   2.810
 3510SOL     OW11987   4.976   5.072   2.250
 3510SOL    HW111988   5.026   5.149   2.290
 3510SOL    HW211989   4.881   5.074   2.282
 3511SOL     OW11990   4.126   4.475   3.460
 3511SOL    HW111991   4.194   4.530   3.413
 3511SOL    HW211992   4.166   4.387   3.487
 3512SOL     OW11993   4.737   3.829   3.632
 3512SOL    HW111994   4.743   3.914   3.580
 3512SOL    HW211995   4.769   3.753   3.575
 3513SOL     OW11996   4.228   3.774   3.602
 3513SOL    HW111997   4.186   3.717   3.532
 3513SOL    HW211998   4.162   3.843   3.634
 3514SOL     OW11999   4.297   4.594   2.891
 3514SOL    HW112000   4.341   4.683   2.882
 3514SOL    HW212001   4.234   4.594   2.968
 3515SOL     OW12002   5.084   4.586   2.907
 3515SOL    HW112003   5.009   4.586   2.841
 3515SOL    HW212004   5.121   4.494   2.916
 3516SOL     OW12005   4.933   4.249   2.137
 3516SOL    HW112006   4.946   4.165   2.191
 3516SOL    HW212007   4.904   4.323   2.197
 3517SOL     OW12008   4.031   3.937   3.093
 3517SOL    HW112009   4.008   3.974   3.183
 3517SOL    HW212010   4.001   3.842   3.087
 3518SOL     OW12011   4.456   4.358   2.926
 3518SOL    HW112012   4.515   4.332   2.850
 3518SOL    HW212013   4.428   4.454   2.915
 3519SOL     OW12014   4.031   3.787   2.480
 3519SOL    HW112015   4.020   3.881   2.513
 3519SOL    HW212016   4.026   3.724   2.557
 3520SOL     OW12017   5.346   4.091   2.236
 3520SOL    HW112018   5.348   4.015   2.300
 3520SOL    HW212019   5.298   4.168   2.276
 3521SOL     OW12020   4.747   4.490   2.828
 3521SOL    HW112021   4.762   4.511   2.924
 3521SOL    HW212022   4.717   4.395   2.819
 3522SOL     OW12023   4.074   4.622   3.666
 3522SOL    HW112024   4.150   4.666   3.714
 3522SOL    HW212025   4.109   4.575   3.584
 3523SOL     OW12026   5.027   4.562   1.904
 3523SOL    HW112027   5.061   4.469   1.919
 3523SOL    HW212028   5.045   4.589   1.809
 3524SOL     OW12029   4.043   4.534   2.811
 3524SOL    HW112030   4.136   4.570   2.816
 3524SOL    HW212031   4.037   4.449   2.863
 3525SOL     OW12032   4.063   4.233   2.868
 3525SOL    HW112033   4.011   4.150   2.851
 3525SOL    HW212034   4.140   4.238   2.804
 3526SOL     OW12035   4.862   4.104   3.540
 3526SOL    HW112036   4.817   4.167   3.604
 3526SOL    HW212037   4.955   4.135   3.523
 3527SOL     OW12038   4.726   4.520   3.100
 3527SOL    HW112039   4.767   4.488   3.186
 3527SOL    HW212040   4.630   4.493   3.097
 3528SOL     OW12041   3.764   4.268   2.976
 3528SOL    HW112042   3.849   4.235   2.935
 3528SOL    HW212043   3.777   4.283   3.074
 3529SOL     OW12044   3.913   4.244   3.584
 3529SOL    HW112045   3.972   4.204   3.514
 3529SOL    HW212046   3.855   4.315   3.543
 3530SOL     OW12047   4.539   4.296   2.187
 3530SOL    HW112048   4.546   4.207   2.141
 3530SOL    HW212049   4.445   4.330   2.179
 3531SOL     OW12050   4.197   4.224   2.053
 3531SOL    HW112051   4.258   4.304   2.057
 3531SOL    HW212052   4.102   4.255   2.060
 3532SOL     OW12053   3.883   4.861   3.328
 3532SOL    HW112054   3.905   4.800   3.404
 3532SOL    HW212055   3.893   4.812   3.242
 3533SOL     OW12056   5.071   4.783   3.096
 3533SOL    HW112057   5.095   4.720   3.022
 3533SOL    HW212058   4.981   4.823   3.078
 3534SOL     OW12059   3.807   4.982   2.884
 3534SOL    HW112060   3.802   4.981   2.984
 3534SOL    HW212061   3.724   4.941   2.846
 3535SOL     OW12062   5.004   4.651   2.534
 3535SOL    HW112063   5.064   4.570   2.536
 3535SOL    HW212064   5.044   4.720   2.474
 3536SOL     OW12065   4.554   4.997   3.284
 3536SOL    HW112066   4.549   5.030   3.379
 3536SOL    HW212067   4.468   5.016   3.238
 3537SOL     OW12068   3.987   4.050   2.582
 3537SOL    HW112069   3.908   4.101   2.548
 3537SOL    HW212070   3.978   4.035   2.680
 3538SOL     OW12071   4.918   5.336   1.893
 3538SOL    HW112072   4.924   5.243   1.930
 3538SOL    HW212073   4.859   5.336   1.813
 3539SOL     OW12074   4.546   4.726   3.234
 3539SOL    HW112075   4.586   4.725   3.142
 3539SOL    HW212076   4.556   4.818   3.274
 3540SOL     OW12077   4.640   4.634   2.153
 3540SOL    HW112078   4.703   4.672   2.085
 3540SOL    HW212079   4.680   4.551   2.192
 3541SOL     OW12080   4.096   5.012   3.352
 3541SOL    HW112081   4.083   5.105   3.318
 3541SOL    HW212082   4.012   4.960   3.339
 3542SOL     OW12083   4.763   4.822   2.558
 3542SOL    HW112084   4.693   4.775   2.612
 3542SOL    HW212085   4.822   4.754   2.515
 3543SOL     OW12086   4.738   3.960   2.833
 3543SOL    HW112087   4.730   3.924   2.740
 3543SOL    HW212088   4.736   3.884   2.898
 3544SOL     OW12089   3.829   4.737   3.588
 3544SOL    HW112090   3.752   4.704   3.642
 3544SOL    HW212091   3.914   4.707   3.630
 3545SOL     OW12092   3.799   4.069   1.895
 3545SOL    HW112093   3.707   4.041   1.866
 3545SOL    HW212094   3.830   4.146   1.839
 3546SOL     OW12095   5.164   4.580   3.260
 3546SOL    HW112096   5.107   4.632   3.197
 3546SOL    HW212097   5.260   4.592   3.236
 3547SOL     OW12098   3.796   3.890   2.180
 3547SOL    HW112099   3.779   3.973   2.126
 3547SOL    HW212100   3.886   3.853   2.158
 3548SOL     OW12101   4.337   4.566   3.293
 3548SOL    HW112102   4.393   4.647   3.276
 3548SOL    HW212103   4.396   4.486   3.296
 3549SOL     OW12104   4.440   4.289   3.570
 3549SOL    HW112105   4.459   4.354   3.644
 3549SOL    HW212106   4.500   4.209   3.579
 3550SOL     OW12107   4.949   4.049   2.311
 3550SOL    HW112108   5.014   3.975   2.300
 3550SOL    HW212109   4.969   4.099   2.395
 3551SOL     OW12110   4.318   4.469   2.514
 3551SOL    HW112111   4.368   4.554   2.495
 3551SOL    HW212112   4.230   4.471   2.466
 3552SOL     OW12113   4.583   4.680   2.723
 3552SOL    HW112114   4.637   4.611   2.771
 3552SOL    HW212115   4.551   4.749   2.789
 3553SOL     OW12116   4.807   4.708   1.949
 3553SOL    HW112117   4.784   4.761   1.867
 3553SOL    HW212118   4.888   4.652   1.930
 3554SOL     OW12119   3.803   4.964   2.515
 3554SOL    HW112120   3.802   4.917   2.603
 3554SOL    HW212121   3.885   4.936   2.464
 3555SOL     OW12122   4.152   4.148   2.382
 3555SOL    HW112123   4.182   4.076   2.320
 3555SOL    HW212124   4.113   4.108   2.465
 3556SOL     OW12125   4.041   4.271   3.142
 3556SOL    HW112126   4.079   4.212   3.214
 3556SOL    HW212127   4.081   4.245   3.054
 3557SOL     OW12128   4.494   5.054   2.163
 3557SOL    HW112129   4.448   4.967   2.180
 3557SOL    HW212130   4.585   5.051   2.204
 3558SOL     OW12131   5.076   3.776   2.030
 3558SOL    HW112132   5.111   3.735   1.946
 3558SOL    HW212133   4.986   3.738   2.050
 3559SOL     OW12134   3.954   4.352   3.837
 3559SOL    HW112135   3.861   4.350   3.874
 3559SOL    HW212136   3.955   4.313   3.745
 3560SOL     OW12137   3.949   3.999   4.720
 3560SOL    HW112138   3.984   3.982   4.812
 3560SOL    HW212139   3.861   3.954   4.708
 3561SOL     OW12140   3.743   4.092   4.371
 3561SOL    HW112141   3.661   4.135   4.410
 3561SOL    HW212142   3.715   4.019   4.308
 3562SOL     OW12143   4.293   4.999   4.889
 3562SOL    HW112144   4.200   4.992   4.852
 3562SOL    HW212145   4.304   5.088   4.933
 3563SOL     OW12146   4.859   4.427   4.441
 3563SOL    HW112147   4.916   4.505   4.416
 3563SOL    HW212148   4.799   4.453   4.517
 3564SOL     OW12149   4.492   4.868   4.747
 3564SOL    HW112150   4.414   4.885   4.807
 3564SOL    HW212151   4.526   4.955   4.711
 3565SOL     OW12152   4.409   4.736   4.389
 3565SOL    HW112153   4.478   4.720   4.459
 3565SOL    HW212154   4.336   4.793   4.427
 3566SOL     OW12155   4.059   5.159   4.785
 3566SOL    HW112156   3.981   5.128   4.732
 3566SOL    HW212157   4.117   5.217   4.728
 3567SOL     OW12158   3.964   4.815   4.610
 3567SOL    HW112159   3.978   4.731   4.662
 3567SOL    HW212160   3.909   4.879   4.665
 3568SOL     OW12161   4.330   4.688   3.847
 3568SOL    HW112162   4.337   4.772   3.793
 3568SOL    HW212163   4.376   4.701   3.935
 3569SOL     OW12164   3.846   4.367   4.287
 3569SOL    HW112165   3.801   4.279   4.304
 3569SOL    HW212166   3.845   4.421   4.371
 3570SOL     OW12167   3.921   4.700   4.988
 3570SOL    HW112168   4.010   4.655   4.974
 3570SOL    HW212169   3.848   4.635   4.969
 3571SOL     OW12170   4.322   4.453   3.994
 3571SOL    HW112171   4.346   4.522   3.926
 3571SOL    HW212172   4.244   4.486   4.048
 3572SOL     OW12173   5.005   4.069   4.668
 3572SOL    HW112174   4.919   4.019   4.655
 3572SOL    HW212175   5.067   4.015   4.724
 3573SOL     OW12176   4.715   4.134   4.966
 3573SOL    HW112177   4.638   4.168   5.020
 3573SOL    HW212178   4.681   4.083   4.887
 3574SOL     OW12179   4.765   4.425   4.153
 3574SOL    HW112180   4.791   4.421   4.249
 3574SOL    HW212181   4.680   4.374   4.139
 3575SOL     OW12182   3.800   4.535   4.513
 3575SOL    HW112183   3.899   4.523   4.522
 3575SOL    HW212184   3.776   4.630   4.534
 3576SOL     OW12185   4.589   4.072   3.919
 3576SOL    HW112186   4.648   4.135   3.870
 3576SOL    HW212187   4.608   3.978   3.890
 3577SOL     OW12188   4.045   4.667   3.966
 3577SOL    HW112189   4.127   4.706   3.924
 3577SOL    HW212190   4.018   4.585   3.917
 3578SOL     OW12191   4.106   4.424   4.204
 3578SOL    HW112192   4.151   4.334   4.201
 3578SOL    HW212193   4.012   4.413   4.237
 3579SOL     OW12194   4.338   3.846   3.841
 3579SOL    HW112195   4.436   3.824   3.848
 3579SOL    HW212196   4.307   3.829   3.748
 3580SOL     OW12197   4.527   5.126   4.648
 3580SOL    HW112198   4.617   5.140   4.606
 3580SOL    HW212199   4.456   5.128   4.577
 3581SOL     OW12200   4.646   4.227   4.623
 3581SOL    HW112201   4.621   4.218   4.527
 3581SOL    HW212202   4.694   4.145   4.654
 3582SOL     OW12203   4.021   3.759   3.895
 3582SOL    HW112204   4.070   3.843   3.874
 3582SOL    HW212205   4.083   3.694   3.940
 3583SOL     OW12206   4.951   5.294   4.517
 3583SOL    HW112207   4.972   5.368   4.452
 3583SOL    HW212208   5.019   5.294   4.590
 3584SOL     OW12209   4.183   4.876   4.465
 3584SOL    HW112210   4.112   4.849   4.530
 3584SOL    HW212211   4.157   4.848   4.372
 3585SOL     OW12212   4.756   4.273   3.740
 3585SOL    HW112213   4.715   4.355   3.701
 3585SOL    HW212214   4.820   4.299   3.813
 3586SOL     OW12215   4.285   3.946   4.871
 3586SOL    HW112216   4.323   3.862   4.908
 3586SOL    HW212217   4.197   3.965   4.915
 3587SOL     OW12218   4.590   4.178   4.366
 3587SOL    HW112219   4.558   4.250   4.304
 3587SOL    HW212220   4.614   4.097   4.313
 3588SOL     OW12221   4.741   3.763   4.477
 3588SOL    HW112222   4.669   3.768   4.408
 3588SOL    HW212223   4.717   3.694   4.546
 3589SOL     OW12224   4.251   3.980   4.052
 3589SOL    HW112225   4.278   3.921   3.977
 3589SOL    HW212226   4.251   4.075   4.021
 3590SOL     OW12227   4.429   4.774   4.092
 3590SOL    HW112228   4.415   4.781   4.191
 3590SOL    HW212229   4.513   4.723   4.074
 3591SOL     OW12230   4.134   4.537   4.975
 3591SOL    HW112231   4.220   4.549   5.025
 3591SOL    HW212232   4.092   4.450   5.002
 3592SOL     OW12233   4.091   4.824   4.225
 3592SOL    HW112234   4.084   4.907   4.169
 3592SOL    HW212235   4.095   4.744   4.165
 3593SOL     OW12236   4.290   4.261   4.589
 3593SOL    HW112237   4.302   4.327   4.515
 3593SOL    HW212238   4.336   4.295   4.672
 3594SOL     OW12239   4.976   5.072   4.112
 3594SOL    HW112240   5.026   5.149   4.152
 3594SOL    HW212241   4.881   5.074   4.144
 3595SOL     OW12242   4.297   4.594   4.753
 3595SOL    HW112243   4.341   4.683   4.744
 3595SOL    HW212244   4.234   4.594   4.830
 3596SOL     OW12245   5.084   4.586   4.769
 3596SOL    HW112246   5.009   4.586   4.703
 3596SOL    HW212247   5.121   4.494   4.778
 3597SOL     OW12248   4.933   4.249   3.999
 3597SOL    HW112249   4.946   4.165   4.053
 3597SOL    HW212250   4.904   4.323   4.059
 3598SOL     OW12251   4.031   3.937   4.955
 3598SOL    HW112252   4.008   3.974   5.045
 3598SOL    HW212253   4.001   3.842   4.949
 3599SOL     OW12254   4.456   4.358   4.788
 3599SOL    HW112255   4.515   4.332   4.712
 3599SOL    HW212256   4.428   4.454   4.777
 3600SOL     OW12257   5.346   4.091   4.098
 3600SOL    HW112258   5.348   4.015   4.162
 3600SOL    HW212259   5.298   4.168   4.138
 3601SOL     OW12260   5.027   4.562   3.766
 3601SOL    HW112261   5.061   4.469   3.781
 3601SOL    HW212262   5.045   4.589   3.671
 3602SOL     OW12263   4.043   4.534   4.673
 3602SOL    HW112264   4.136   4.570   4.678
 3602SOL    HW212265   4.037   4.449   4.725
 3603SOL     OW12266   4.063   4.233   4.730
 3603SOL    HW112267   4.011   4.150   4.713
 3603SOL    HW212268   4.140   4.238   4.666
 3604SOL     OW12269   3.732   5.050   3.924
 3604SOL    HW112270   3.639   5.071   3.893
 3604SOL    HW212271   3.742   4.951   3.937
 3605SOL     OW12272   3.764   4.268   4.838
 3605SOL    HW112273   3.849   4.235   4.797
 3605SOL    HW212274   3.777   4.283   4.936
 3606SOL     OW12275   4.539   4.296   4.049
 3606SOL    HW112276   4.546   4.207   4.003
 3606SOL    HW212277   4.445   4.330   4.041
 3607SOL     OW12278   4.395   4.188   4.993
 3607SOL    HW112279   4.361   4.099   4.963
 3607SOL    HW212280   4.421   4.242   4.913
 3608SOL     OW12281   4.197   4.224   3.915
 3608SOL    HW112282   4.258   4.304   3.919
 3608SOL    HW212283   4.102   4.255   3.922
 3609SOL     OW12284   3.807   4.982   4.746
 3609SOL    HW112285   3.802   4.981   4.846
 3609SOL    HW212286   3.724   4.941   4.708
 3610SOL     OW12287   5.004   4.651   4.396
 3610SOL    HW112288   5.064   4.570   4.398
 3610SOL    HW212289   5.044   4.720   4.336
 3611SOL     OW12290   4.554   4.997   5.146
 3611SOL    HW112291   4.549   5.030   5.241
 3611SOL    HW212292   4.468   5.016   5.100
 3612SOL     OW12293   3.987   4.050   4.444
 3612SOL    HW112294   3.908   4.101   4.410
 3612SOL    HW212295   3.978   4.035   4.542
 3613SOL     OW12296   4.546   4.726   5.096
 3613SOL    HW112297   4.586   4.725   5.004
 3613SOL    HW212298   4.556   4.818   5.136
 3614SOL     OW12299   4.640   4.634   4.015
 3614SOL    HW112300   4.703   4.672   3.947
 3614SOL    HW212301   4.680   4.551   4.054
 3615SOL     OW12302   4.763   4.822   4.420
 3615SOL    HW112303   4.693   4.775   4.474
 3615SOL    HW212304   4.822   4.754   4.377
 3616SOL     OW12305   4.738   3.960   4.695
 3616SOL    HW112306   4.730   3.924   4.602
 3616SOL    HW212307   4.736   3.884   4.760
 3617SOL     OW12308   3.799   4.069   3.757
 3617SOL    HW112309   3.707   4.041   3.728
 3617SOL    HW212310   3.830   4.146   3.701
 3618SOL     OW12311   4.949   4.049   4.173
 3618SOL    HW112312   5.014   3.975   4.162
 3618SOL    HW212313   4.969   4.099   4.257
 3619SOL     OW12314   4.318   4.469   4.376
 3619SOL    HW112315   4.368   4.554   4.357
 3619SOL    HW212316   4.230   4.471   4.328
 3620SOL     OW12317   4.583   4.680   4.585
 3620SOL    HW112318   4.637   4.611   4.633
 3620SOL    HW212319   4.551   4.749   4.651
 3621SOL     OW12320   4.807   4.708   3.811
 3621SOL    HW112321   4.784   4.761   3.729
 3621SOL    HW212322   4.888   4.652   3.792
 3622SOL     OW12323   3.803   4.964   4.377
 3622SOL    HW112324   3.802   4.917   4.465
 3622SOL    HW212325   3.885   4.936   4.326
 3623SOL     OW12326   4.152   4.148   4.244
 3623SOL    HW112327   4.182   4.076   4.182
 3623SOL    HW212328   4.113   4.108   4.327
 3624SOL     OW12329   4.725   3.758   4.878
 3624SOL    HW112330   4.662   3.686   4.847
 3624SOL    HW212331   4.818   3.722   4.878
 3625SOL     OW12332   4.494   5.054   4.025
 3625SOL    HW112333   4.448   4.967   4.042
 3625SOL    HW212334   4.585   5.051   4.066
 3626SOL     OW12335   5.076   3.776   3.892
 3626SOL    HW112336   5.111   3.735   3.808
 3626SOL    HW212337   4.986   3.738   3.912
 3627SOL     OW12338   3.763   4.801   4.024
 3627SOL    HW112339   3.862   4.790   4.015
 3627SOL    HW212340   3.723   4.715   4.056
   5.08970   5.08970   5.08970
