256-Lipid DPPC Bilayer in water
35893
    1DPPC    C1    1   5.753   5.551   5.427
    1DPPC    C2    2   5.765   5.709   5.262
    1DPPC    C3    3   5.627   5.529   5.210
    1DPPC    N4    4   5.671   5.614   5.322
    1DPPC    C5    5   5.564   5.687   5.391
    1DPPC    C6    6   5.475   5.785   5.316
    1DPPC    O7    7   5.530   5.912   5.281
    1DPPC    P8    8   5.407   6.015   5.274
    1DPPC    O9    9   5.492   6.135   5.264
    1DPPC   O10   10   5.334   5.976   5.397
    1DPPC   O11   11   5.324   5.988   5.138
    1DPPC   C12   12   5.350   6.099   5.052
    1DPPC   C13   13   5.306   6.077   4.907
    1DPPC   O14   14   5.171   6.117   4.879
    1DPPC   C15   15   5.153   6.249   4.855
    1DPPC   O16   16   5.240   6.324   4.900
    1DPPC   C17   17   5.017   6.297   4.805
    1DPPC   C18   18   5.021   6.415   4.708
    1DPPC   C19   19   4.906   6.424   4.608
    1DPPC   C20   20   4.908   6.547   4.516
    1DPPC   C21   21   5.023   6.531   4.416
    1DPPC   C22   22   5.018   6.633   4.302
    1DPPC   C23   23   5.128   6.580   4.209
    1DPPC   C24   24   5.120   6.662   4.081
    1DPPC   C25   25   5.202   6.583   3.978
    1DPPC   C26   26   5.186   6.659   3.846
    1DPPC   C27   27   5.245   6.590   3.723
    1DPPC   C28   28   5.212   6.667   3.594
    1DPPC   C29   29   5.270   6.598   3.471
    1DPPC   C30   30   5.220   6.648   3.336
    1DPPC   C31   31   5.247   6.799   3.327
    1DPPC   C32   32   5.353   5.937   4.865
    1DPPC   O33   33   5.447   5.946   4.759
    1DPPC   C34   34   5.536   5.843   4.746
    1DPPC   O35   35   5.536   5.760   4.837
    1DPPC   C36   36   5.627   5.841   4.623
    1DPPC   C37   37   5.609   5.708   4.550
    1DPPC   C38   38   5.696   5.697   4.425
    1DPPC   C39   39   5.840   5.695   4.478
    1DPPC   C40   40   5.946   5.690   4.368
    1DPPC   C41   41   5.939   5.565   4.281
    1DPPC   C42   42   5.992   5.603   4.142
    1DPPC   C43   43   5.977   5.479   4.054
    1DPPC   C44   44   6.032   5.508   3.914
    1DPPC   C45   45   6.009   5.399   3.809
    1DPPC   C46   46   6.050   5.463   3.676
    1DPPC   C47   47   5.962   5.579   3.628
    1DPPC   C48   48   6.026   5.646   3.506
    1DPPC   C49   49   5.935   5.746   3.434
    1DPPC   C50   50   5.910   5.856   3.538
    2DPPC    C1   51   3.417   0.830   1.574
    2DPPC    C2   52   3.573   0.938   1.445
    2DPPC    C3   53   3.368   1.044   1.501
    2DPPC    N4   54   3.478   0.963   1.555
    2DPPC    C5   55   3.527   1.014   1.683
    2DPPC    C6   56   3.591   1.153   1.683
    2DPPC    O7   57   3.612   1.201   1.816
    2DPPC    P8   58   3.706   1.331   1.823
    2DPPC    O9   59   3.642   1.421   1.725
    2DPPC   O10   60   3.849   1.296   1.838
    2DPPC   O11   61   3.655   1.371   1.971
    2DPPC   C12   62   3.725   1.299   2.074
    2DPPC   C13   63   3.707   1.337   2.221
    2DPPC   O14   64   3.812   1.273   2.296
    2DPPC   C15   65   3.936   1.321   2.270
    2DPPC   O16   66   3.951   1.439   2.239
    2DPPC   C17   67   4.050   1.239   2.330
    2DPPC   C18   68   4.017   1.173   2.464
    2DPPC   C19   69   4.118   1.063   2.496
    2DPPC   C20   70   4.096   1.002   2.635
    2DPPC   C21   71   4.218   0.912   2.653
    2DPPC   C22   72   4.194   0.835   2.783
    2DPPC   C23   73   4.149   0.923   2.900
    2DPPC   C24   74   4.125   0.822   3.013
    2DPPC   C25   75   4.097   0.902   3.140
    2DPPC   C26   76   3.994   0.828   3.225
    2DPPC   C27   77   3.939   0.931   3.325
    2DPPC   C28   78   3.858   0.850   3.426
    2DPPC   C29   79   3.851   0.942   3.548
    2DPPC   C30   80   3.771   0.873   3.658
    2DPPC   C31   81   3.627   0.859   3.608
    2DPPC   C32   82   3.563   1.300   2.255
    2DPPC   O33   83   3.538   1.340   2.390
    2DPPC   C34   84   3.411   1.319   2.434
    2DPPC   O35   85   3.317   1.300   2.357
    2DPPC   C36   86   3.382   1.358   2.579
    2DPPC   C37   87   3.250   1.307   2.638
    2DPPC   C38   88   3.240   1.350   2.784
    2DPPC   C39   89   3.368   1.309   2.857
    2DPPC   C40   90   3.361   1.394   2.984
    2DPPC   C41   91   3.359   1.543   2.949
    2DPPC   C42   92   3.395   1.642   3.060
    2DPPC   C43   93   3.352   1.784   3.023
    2DPPC   C44   94   3.200   1.788   3.004
    2DPPC   C45   95   3.151   1.932   2.988
    2DPPC   C46   96   3.015   1.933   2.918
    2DPPC   C47   97   2.980   2.075   2.874
    2DPPC   C48   98   2.854   2.047   2.793
    2DPPC   C49   99   2.729   1.990   2.860
    2DPPC   C50  100   2.627   1.950   2.753
    3DPPC    C1  101   6.385   4.473   5.023
    3DPPC    C2  102   6.409   4.483   5.263
    3DPPC    C3  103   6.479   4.300   5.145
    3DPPC    N4  104   6.474   4.447   5.137
    3DPPC    C5  105   6.595   4.526   5.110
    3DPPC    C6  106   6.596   4.671   5.158
    3DPPC    O7  107   6.508   4.761   5.091
    3DPPC    P8  108   6.521   4.910   5.152
    3DPPC    O9  109   6.570   4.892   5.290
    3DPPC   O10  110   6.404   4.992   5.111
    3DPPC   O11  111   6.655   4.953   5.073
    3DPPC   C12  112   6.611   4.977   4.939
    3DPPC   C13  113   6.723   5.026   4.846
    3DPPC   O14  114   6.669   5.069   4.720
    3DPPC   C15  115   6.734   5.151   4.633
    3DPPC   O16  116   6.818   5.226   4.683
    3DPPC   C17  117   6.670   5.173   4.496
    3DPPC   C18  118   6.756   5.158   4.371
    3DPPC   C19  119   6.691   5.137   4.234
    3DPPC   C20  120   6.771   5.210   4.126
    3DPPC   C21  121   6.742   5.136   3.995
    3DPPC   C22  122   6.809   5.201   3.874
    3DPPC   C23  123   6.774   5.118   3.751
    3DPPC   C24  124   6.821   4.973   3.768
    3DPPC   C25  125   6.768   4.888   3.653
    3DPPC   C26  126   6.834   4.751   3.637
    3DPPC   C27  127   6.777   4.661   3.527
    3DPPC   C28  128   6.822   4.515   3.537
    3DPPC   C29  129   6.782   4.458   3.673
    3DPPC   C30  130   6.831   4.315   3.694
    3DPPC   C31  131   6.754   4.232   3.591
    3DPPC   C32  132   6.818   4.906   4.849
    3DPPC   O33  133   6.761   4.803   4.767
    3DPPC   C34  134   6.833   4.690   4.748
    3DPPC   O35  135   6.947   4.687   4.795
    3DPPC   C36  136   6.796   4.583   4.645
    3DPPC   C37  137   6.695   4.490   4.711
    3DPPC   C38  138   6.656   4.371   4.622
    3DPPC   C39  139   6.610   4.431   4.489
    3DPPC   C40  140   6.595   4.320   4.384
    3DPPC   C41  141   6.591   4.372   4.240
    3DPPC   C42  142   6.720   4.449   4.212
    3DPPC   C43  143   6.742   4.497   4.068
    3DPPC   C44  144   6.797   4.638   4.046
    3DPPC   C45  145   6.948   4.644   4.071
    3DPPC   C46  146   7.002   4.786   4.084
    3DPPC   C47  147   7.143   4.793   4.142
    3DPPC   C48  148   7.146   4.748   4.288
    3DPPC   C49  149   7.107   4.863   4.382
    3DPPC   C50  150   7.110   4.821   4.529
    4DPPC    C1  151   8.476   4.065   1.560
    4DPPC    C2  152   8.384   4.193   1.416
    4DPPC    C3  153   8.291   3.967   1.420
    4DPPC    N4  154   8.343   4.079   1.500
    4DPPC    C5  155   8.247   4.123   1.603
    4DPPC    C6  156   8.109   4.158   1.547
    4DPPC    O7  157   8.088   4.263   1.452
    4DPPC    P8  158   7.936   4.258   1.398
    4DPPC    O9  159   7.886   4.119   1.409
    4DPPC   O10  160   7.929   4.339   1.275
    4DPPC   O11  161   7.850   4.334   1.510
    4DPPC   C12  162   7.913   4.462   1.527
    4DPPC   C13  163   7.827   4.576   1.472
    4DPPC   O14  164   7.884   4.705   1.502
    4DPPC   C15  165   7.815   4.815   1.463
    4DPPC   O16  166   7.730   4.802   1.374
    4DPPC   C17  167   7.871   4.948   1.511
    4DPPC   C18  168   7.788   5.003   1.627
    4DPPC   C19  169   7.763   4.905   1.742
    4DPPC   C20  170   7.890   4.881   1.824
    4DPPC   C21  171   7.845   4.806   1.950
    4DPPC   C22  172   7.766   4.916   2.022
    4DPPC   C23  173   7.709   4.857   2.151
    4DPPC   C24  174   7.643   4.968   2.233
    4DPPC   C25  175   7.565   4.911   2.351
    4DPPC   C26  176   7.442   4.839   2.294
    4DPPC   C27  177   7.356   4.773   2.402
    4DPPC   C28  178   7.286   4.875   2.492
    4DPPC   C29  179   7.219   4.787   2.598
    4DPPC   C30  180   7.120   4.884   2.662
    4DPPC   C31  181   7.001   4.798   2.704
    4DPPC   C32  182   7.688   4.544   1.529
    4DPPC   O33  183   7.674   4.566   1.669
    4DPPC   C34  184   7.563   4.509   1.722
    4DPPC   O35  185   7.511   4.409   1.672
    4DPPC   C36  186   7.522   4.556   1.861
    4DPPC   C37  187   7.469   4.435   1.939
    4DPPC   C38  188   7.485   4.438   2.091
    4DPPC   C39  189   7.440   4.298   2.133
    4DPPC   C40  190   7.450   4.274   2.284
    4DPPC   C41  191   7.370   4.360   2.383
    4DPPC   C42  192   7.390   4.313   2.527
    4DPPC   C43  193   7.292   4.395   2.611
    4DPPC   C44  194   7.298   4.349   2.756
    4DPPC   C45  195   7.266   4.200   2.771
    4DPPC   C46  196   7.249   4.162   2.918
    4DPPC   C47  197   7.359   4.204   3.016
    4DPPC   C48  198   7.359   4.143   3.156
    4DPPC   C49  199   7.218   4.150   3.215
    4DPPC   C50  200   7.223   4.173   3.366
    5DPPC    C1  201   8.609   4.747   5.420
    5DPPC    C2  202   8.786   4.902   5.434
    5DPPC    C3  203   8.767   4.733   5.592
    5DPPC    N4  204   8.753   4.760   5.448
    5DPPC    C5  205   8.838   4.675   5.363
    5DPPC    C6  206   8.785   4.535   5.333
    5DPPC    O7  207   8.769   4.447   5.444
    5DPPC    P8  208   8.695   4.312   5.398
    5DPPC    O9  209   8.657   4.208   5.496
    5DPPC   O10  210   8.722   4.278   5.256
    5DPPC   O11  211   8.559   4.398   5.394
    5DPPC   C12  212   8.474   4.308   5.321
    5DPPC   C13  213   8.343   4.365   5.269
    5DPPC   O14  214   8.263   4.258   5.216
    5DPPC   C15  215   8.134   4.275   5.176
    5DPPC   O16  216   8.083   4.386   5.161
    5DPPC   C17  217   8.062   4.150   5.125
    5DPPC   C18  218   8.096   4.129   4.977
    5DPPC   C19  219   8.023   4.005   4.924
    5DPPC   C20  220   8.060   3.980   4.778
    5DPPC   C21  221   8.207   3.937   4.782
    5DPPC   C22  222   8.257   3.924   4.638
    5DPPC   C23  223   8.248   4.062   4.573
    5DPPC   C24  224   8.243   4.050   4.420
    5DPPC   C25  225   8.387   4.020   4.376
    5DPPC   C26  226   8.373   4.027   4.224
    5DPPC   C27  227   8.500   3.982   4.152
    5DPPC   C28  228   8.468   3.980   4.002
    5DPPC   C29  229   8.582   3.911   3.927
    5DPPC   C30  230   8.543   3.888   3.781
    5DPPC   C31  231   8.628   3.782   3.709
    5DPPC   C32  232   8.393   4.479   5.179
    5DPPC   O33  233   8.457   4.431   5.061
    5DPPC   C34  234   8.540   4.517   4.997
    5DPPC   O35  235   8.588   4.607   5.066
    5DPPC   C36  236   8.601   4.476   4.863
    5DPPC   C37  237   8.750   4.495   4.837
    5DPPC   C38  238   8.789   4.462   4.692
    5DPPC   C39  239   8.941   4.457   4.675
    5DPPC   C40  240   8.993   4.393   4.547
    5DPPC   C41  241   8.964   4.243   4.540
    5DPPC   C42  242   9.067   4.178   4.449
    5DPPC   C43  243   9.071   4.241   4.309
    5DPPC   C44  244   8.965   4.181   4.216
    5DPPC   C45  245   8.965   4.275   4.095
    5DPPC   C46  246   8.842   4.240   4.012
    5DPPC   C47  247   8.858   4.303   3.873
    5DPPC   C48  248   8.853   4.188   3.771
    5DPPC   C49  249   8.836   4.249   3.632
    5DPPC   C50  250   8.832   4.150   3.515
    6DPPC    C1  251   6.143   0.616   5.345
    6DPPC    C2  252   6.147   0.799   5.205
    6DPPC    C3  253   6.338   0.666   5.211
    6DPPC    N4  254   6.191   0.660   5.213
    6DPPC    C5  255   6.149   0.581   5.097
    6DPPC    C6  256   6.115   0.434   5.122
    6DPPC    O7  257   6.234   0.365   5.160
    6DPPC    P8  258   6.195   0.210   5.183
    6DPPC    O9  259   6.121   0.154   5.068
    6DPPC   O10  260   6.128   0.223   5.315
    6DPPC   O11  261   6.337   0.137   5.201
    6DPPC   C12  262   6.366   0.068   5.079
    6DPPC   C13  263   6.506   0.006   5.081
    6DPPC   O14  264   6.599   0.070   4.993
    6DPPC   C15  265   6.731   0.074   5.024
    6DPPC   O16  266   6.777   0.036   5.132
    6DPPC   C17  267   6.808   0.172   4.934
    6DPPC   C18  268   6.960   0.155   4.937
    6DPPC   C19  269   7.024   0.241   4.829
    6DPPC   C20  270   7.175   0.250   4.852
    6DPPC   C21  271   7.253   0.325   4.744
    6DPPC   C22  272   7.362   0.412   4.807
    6DPPC   C23  273   7.411   0.513   4.703
    6DPPC   C24  274   7.459   0.450   4.572
    6DPPC   C25  275   7.494   0.570   4.484
    6DPPC   C26  276   7.540   0.533   4.342
    6DPPC   C27  277   7.596   0.652   4.263
    6DPPC   C28  278   7.731   0.694   4.320
    6DPPC   C29  279   7.802   0.811   4.252
    6DPPC   C30  280   7.930   0.833   4.333
    6DPPC   C31  281   7.900   0.899   4.468
    6DPPC   C32  282   6.480  -0.145   5.070
    6DPPC   O33  283   6.405  -0.166   4.950
    6DPPC   C34  284   6.389  -0.296   4.912
    6DPPC   O35  285   6.430  -0.383   4.988
    6DPPC   C36  286   6.305  -0.330   4.789
    6DPPC   C37  287   6.345  -0.277   4.651
    6DPPC   C38  288   6.245  -0.339   4.553
    6DPPC   C39  289   6.271  -0.309   4.406
    6DPPC   C40  290   6.155  -0.342   4.312
    6DPPC   C41  291   6.199  -0.394   4.175
    6DPPC   C42  292   6.287  -0.519   4.169
    6DPPC   C43  293   6.416  -0.496   4.091
    6DPPC   C44  294   6.445  -0.608   3.991
    6DPPC   C45  295   6.546  -0.573   3.882
    6DPPC   C46  296   6.576  -0.708   3.817
    6DPPC   C47  297   6.708  -0.703   3.739
    6DPPC   C48  298   6.707  -0.608   3.619
    6DPPC   C49  299   6.853  -0.588   3.577
    6DPPC   C50  300   6.848  -0.484   3.465
    7DPPC    C1  301   2.875   1.563   5.373
    7DPPC    C2  302   2.683   1.521   5.503
    7DPPC    C3  303   2.697   1.505   5.251
    7DPPC    N4  304   2.757   1.477   5.383
    7DPPC    C5  305   2.802   1.338   5.392
    7DPPC    C6  306   2.698   1.232   5.431
    7DPPC    O7  307   2.618   1.212   5.314
    7DPPC    P8  308   2.495   1.118   5.357
    7DPPC    O9  309   2.405   1.223   5.411
    7DPPC   O10  310   2.560   1.017   5.443
    7DPPC   O11  311   2.473   1.070   5.205
    7DPPC   C12  312   2.423   1.171   5.118
    7DPPC   C13  313   2.433   1.119   4.974
    7DPPC   O14  314   2.324   1.040   4.927
    7DPPC   C15  315   2.202   1.094   4.899
    7DPPC   O16  316   2.160   1.197   4.950
    7DPPC   C17  317   2.102   0.998   4.833
    7DPPC   C18  318   2.150   0.993   4.688
    7DPPC   C19  319   2.091   0.878   4.606
    7DPPC   C20  320   1.942   0.911   4.599
    7DPPC   C21  321   1.868   0.823   4.498
    7DPPC   C22  322   1.936   0.824   4.361
    7DPPC   C23  323   1.946   0.957   4.286
    7DPPC   C24  324   2.016   0.949   4.150
    7DPPC   C25  325   2.033   1.088   4.087
    7DPPC   C26  326   1.895   1.139   4.044
    7DPPC   C27  327   1.905   1.259   3.949
    7DPPC   C28  328   1.984   1.229   3.822
    7DPPC   C29  329   1.910   1.123   3.739
    7DPPC   C30  330   1.991   1.117   3.610
    7DPPC   C31  331   1.960   1.236   3.520
    7DPPC   C32  332   2.570   1.050   4.967
    7DPPC   O33  333   2.666   1.155   4.982
    7DPPC   C34  334   2.794   1.110   4.977
    7DPPC   O35  335   2.832   0.993   4.988
    7DPPC   C36  336   2.903   1.218   4.975
    7DPPC   C37  337   2.887   1.310   4.854
    7DPPC   C38  338   2.988   1.424   4.857
    7DPPC   C39  339   2.971   1.509   4.730
    7DPPC   C40  340   2.829   1.564   4.736
    7DPPC   C41  341   2.795   1.619   4.597
    7DPPC   C42  342   2.808   1.511   4.490
    7DPPC   C43  343   2.777   1.536   4.342
    7DPPC   C44  344   2.785   1.412   4.252
    7DPPC   C45  345   2.746   1.455   4.110
    7DPPC   C46  346   2.769   1.343   4.009
    7DPPC   C47  347   2.726   1.390   3.870
    7DPPC   C48  348   2.750   1.293   3.753
    7DPPC   C49  349   2.714   1.347   3.615
    7DPPC   C50  350   2.718   1.238   3.507
    8DPPC    C1  351   8.426   5.840   4.485
    8DPPC    C2  352   8.615   5.777   4.621
    8DPPC    C3  353   8.467   5.957   4.678
    8DPPC    N4  354   8.475   5.821   4.622
    8DPPC    C5  355   8.384   5.735   4.699
    8DPPC    C6  356   8.393   5.689   4.844
    8DPPC    O7  357   8.512   5.616   4.878
    8DPPC    P8  358   8.497   5.561   5.028
    8DPPC    O9  359   8.438   5.669   5.112
    8DPPC   O10  360   8.618   5.486   5.070
    8DPPC   O11  361   8.375   5.459   5.009
    8DPPC   C12  362   8.412   5.372   4.902
    8DPPC   C13  363   8.320   5.257   4.861
    8DPPC   O14  364   8.381   5.158   4.777
    8DPPC   C15  365   8.425   5.041   4.829
    8DPPC   O16  366   8.447   5.022   4.949
    8DPPC   C17  367   8.456   4.940   4.719
    8DPPC   C18  368   8.336   4.889   4.638
    8DPPC   C19  369   8.259   4.996   4.560
    8DPPC   C20  370   8.184   4.928   4.445
    8DPPC   C21  371   8.038   4.905   4.483
    8DPPC   C22  372   7.966   4.878   4.351
    8DPPC   C23  373   8.005   4.985   4.249
    8DPPC   C24  374   7.933   4.969   4.116
    8DPPC   C25  375   7.969   5.092   4.032
    8DPPC   C26  376   7.917   5.087   3.889
    8DPPC   C27  377   7.966   5.209   3.811
    8DPPC   C28  378   8.117   5.202   3.790
    8DPPC   C29  379   8.155   5.088   3.695
    8DPPC   C30  380   8.294   5.092   3.631
    8DPPC   C31  381   8.347   4.954   3.595
    8DPPC   C32  382   8.194   5.316   4.797
    8DPPC   O33  383   8.199   5.430   4.710
    8DPPC   C34  384   8.077   5.470   4.667
    8DPPC   O35  385   7.969   5.440   4.717
    8DPPC   C36  386   8.085   5.559   4.543
    8DPPC   C37  387   8.155   5.500   4.420
    8DPPC   C38  388   8.187   5.594   4.304
    8DPPC   C39  389   8.085   5.557   4.196
    8DPPC   C40  390   8.136   5.621   4.067
    8DPPC   C41  391   8.039   5.589   3.952
    8DPPC   C42  392   8.106   5.648   3.827
    8DPPC   C43  393   8.022   5.630   3.701
    8DPPC   C44  394   8.090   5.695   3.580
    8DPPC   C45  395   8.009   5.646   3.461
    8DPPC   C46  396   7.959   5.502   3.474
    8DPPC   C47  397   7.915   5.439   3.341
    8DPPC   C48  398   7.842   5.309   3.374
    8DPPC   C49  399   7.815   5.228   3.247
    8DPPC   C50  400   7.787   5.081   3.277
    9DPPC    C1  401   3.094   2.966   5.912
    9DPPC    C2  402   2.958   2.805   6.040
    9DPPC    C3  403   2.887   3.028   6.003
    9DPPC    N4  404   2.959   2.915   5.943
    9DPPC    C5  405   2.894   2.862   5.822
    9DPPC    C6  406   2.835   2.966   5.728
    9DPPC    O7  407   2.925   3.023   5.633
    9DPPC    P8  408   2.839   3.070   5.505
    9DPPC    O9  409   2.910   3.190   5.459
    9DPPC   O10  410   2.700   3.077   5.556
    9DPPC   O11  411   2.841   2.940   5.410
    9DPPC   C12  412   2.964   2.965   5.341
    9DPPC   C13  413   3.026   2.830   5.301
    9DPPC   O14  414   3.152   2.848   5.237
    9DPPC   C15  415   3.237   2.742   5.232
    9DPPC   O16  416   3.248   2.671   5.332
    9DPPC   C17  417   3.350   2.756   5.130
    9DPPC   C18  418   3.314   2.716   4.987
    9DPPC   C19  419   3.437   2.707   4.897
    9DPPC   C20  420   3.400   2.704   4.749
    9DPPC   C21  421   3.522   2.678   4.660
    9DPPC   C22  422   3.496   2.649   4.512
    9DPPC   C23  423   3.629   2.640   4.437
    9DPPC   C24  424   3.621   2.563   4.305
    9DPPC   C25  425   3.759   2.550   4.241
    9DPPC   C26  426   3.739   2.432   4.146
    9DPPC   C27  427   3.856   2.423   4.048
    9DPPC   C28  428   3.842   2.307   3.949
    9DPPC   C29  429   3.971   2.310   3.866
    9DPPC   C30  430   4.098   2.272   3.942
    9DPPC   C31  431   4.202   2.253   3.831
    9DPPC   C32  432   2.917   2.769   5.213
    9DPPC   O33  433   2.891   2.845   5.094
    9DPPC   C34  434   2.795   2.801   5.009
    9DPPC   O35  435   2.709   2.714   5.028
    9DPPC   C36  436   2.806   2.879   4.878
    9DPPC   C37  437   2.789   2.783   4.760
    9DPPC   C38  438   2.796   2.863   4.630
    9DPPC   C39  439   2.691   2.974   4.638
    9DPPC   C40  440   2.694   3.057   4.510
    9DPPC   C41  441   2.574   3.151   4.511
    9DPPC   C42  442   2.561   3.240   4.387
    9DPPC   C43  443   2.450   3.344   4.403
    9DPPC   C44  444   2.431   3.437   4.283
    9DPPC   C45  445   2.332   3.390   4.176
    9DPPC   C46  446   2.189   3.369   4.227
    9DPPC   C47  447   2.108   3.309   4.112
    9DPPC   C48  448   2.165   3.173   4.072
    9DPPC   C49  449   2.053   3.068   4.071
    9DPPC   C50  450   2.102   2.930   4.029
   10DPPC    C1  451   8.305   6.244   5.287
   10DPPC    C2  452   8.414   6.437   5.230
   10DPPC    C3  453   8.412   6.266   5.073
   10DPPC    N4  454   8.327   6.334   5.172
   10DPPC    C5  455   8.207   6.402   5.121
   10DPPC    C6  456   8.098   6.318   5.053
   10DPPC    O7  457   7.987   6.397   5.009
   10DPPC    P8  458   7.893   6.286   4.940
   10DPPC    O9  459   7.801   6.376   4.866
   10DPPC   O10  460   7.853   6.173   5.027
   10DPPC   O11  461   8.001   6.228   4.836
   10DPPC   C12  462   7.996   6.312   4.720
   10DPPC   C13  463   8.124   6.295   4.638
   10DPPC   O14  464   8.153   6.414   4.563
   10DPPC   C15  465   8.275   6.433   4.506
   10DPPC   O16  466   8.371   6.374   4.554
   10DPPC   C17  467   8.280   6.522   4.382
   10DPPC   C18  468   8.290   6.432   4.259
   10DPPC   C19  469   8.416   6.347   4.245
   10DPPC   C20  470   8.386   6.254   4.127
   10DPPC   C21  471   8.334   6.120   4.180
   10DPPC   C22  472   8.332   6.031   4.055
   10DPPC   C23  473   8.473   6.027   3.995
   10DPPC   C24  474   8.466   5.973   3.852
   10DPPC   C25  475   8.601   5.987   3.784
   10DPPC   C26  476   8.603   5.906   3.654
   10DPPC   C27  477   8.740   5.907   3.585
   10DPPC   C28  478   8.845   5.850   3.680
   10DPPC   C29  479   8.986   5.875   3.627
   10DPPC   C30  480   9.038   6.018   3.645
   10DPPC   C31  481   9.184   6.028   3.600
   10DPPC   C32  482   8.125   6.158   4.570
   10DPPC   O33  483   8.006   6.137   4.492
   10DPPC   C34  484   8.006   6.026   4.414
   10DPPC   O35  485   8.108   5.960   4.396
   10DPPC   C36  486   7.901   6.033   4.303
   10DPPC   C37  487   7.893   5.923   4.197
   10DPPC   C38  488   7.777   5.956   4.103
   10DPPC   C39  489   7.779   5.856   3.987
   10DPPC   C40  490   7.699   5.927   3.876
   10DPPC   C41  491   7.704   5.841   3.750
   10DPPC   C42  492   7.606   5.921   3.665
   10DPPC   C43  493   7.595   5.859   3.525
   10DPPC   C44  494   7.651   5.948   3.415
   10DPPC   C45  495   7.631   5.876   3.282
   10DPPC   C46  496   7.678   5.730   3.287
   10DPPC   C47  497   7.659   5.668   3.149
   10DPPC   C48  498   7.755   5.717   3.041
   10DPPC   C49  499   7.714   5.662   2.904
   10DPPC   C50  500   7.825   5.673   2.799
   11DPPC    C1  501   6.350   7.644   5.374
   11DPPC    C2  502   6.432   7.721   5.580
   11DPPC    C3  503   6.470   7.488   5.518
   11DPPC    N4  504   6.460   7.627   5.471
   11DPPC    C5  505   6.576   7.653   5.385
   11DPPC    C6  506   6.660   7.780   5.403
   11DPPC    O7  507   6.589   7.883   5.334
   11DPPC    P8  508   6.646   8.023   5.390
   11DPPC    O9  509   6.696   7.999   5.527
   11DPPC   O10  510   6.541   8.127   5.376
   11DPPC   O11  511   6.760   8.034   5.278
   11DPPC   C12  512   6.701   8.086   5.158
   11DPPC   C13  513   6.804   8.090   5.045
   11DPPC   O14  514   6.781   8.189   4.945
   11DPPC   C15  515   6.893   8.228   4.878
   11DPPC   O16  516   7.001   8.229   4.938
   11DPPC   C17  517   6.863   8.327   4.766
   11DPPC   C18  518   6.736   8.292   4.688
   11DPPC   C19  519   6.719   8.381   4.564
   11DPPC   C20  520   6.724   8.524   4.617
   11DPPC   C21  521   6.758   8.615   4.499
   11DPPC   C22  522   6.722   8.763   4.519
   11DPPC   C23  523   6.740   8.837   4.387
   11DPPC   C24  524   6.700   8.985   4.397
   11DPPC   C25  525   6.686   9.056   4.262
   11DPPC   C26  526   6.590   9.175   4.260
   11DPPC   C27  527   6.453   9.108   4.246
   11DPPC   C28  528   6.417   9.024   4.123
   11DPPC   C29  529   6.273   8.972   4.128
   11DPPC   C30  530   6.249   8.884   4.005
   11DPPC   C31  531   6.103   8.839   3.999
   11DPPC   C32  532   6.830   7.941   5.022
   11DPPC   O33  533   6.707   7.885   4.976
   11DPPC   C34  534   6.719   7.757   4.933
   11DPPC   O35  535   6.811   7.685   4.971
   11DPPC   C36  536   6.608   7.712   4.837
   11DPPC   C37  537   6.613   7.803   4.713
   11DPPC   C38  538   6.495   7.785   4.619
   11DPPC   C39  539   6.518   7.885   4.505
   11DPPC   C40  540   6.663   7.918   4.466
   11DPPC   C41  541   6.655   8.021   4.354
   11DPPC   C42  542   6.796   8.067   4.315
   11DPPC   C43  543   6.838   7.970   4.204
   11DPPC   C44  544   6.982   8.016   4.177
   11DPPC   C45  545   6.980   8.161   4.129
   11DPPC   C46  546   6.905   8.165   3.996
   11DPPC   C47  547   6.917   8.311   3.950
   11DPPC   C48  548   7.062   8.338   3.909
   11DPPC   C49  549   7.065   8.489   3.888
   11DPPC   C50  550   7.206   8.549   3.881
   12DPPC    C1  551   9.233   1.819   4.879
   12DPPC    C2  552   9.448   1.894   4.882
   12DPPC    C3  553   9.342   1.849   5.088
   12DPPC    N4  554   9.360   1.799   4.951
   12DPPC    C5  555   9.409   1.661   4.931
   12DPPC    C6  556   9.345   1.537   4.992
   12DPPC    O7  557   9.368   1.430   4.899
   12DPPC    P8  558   9.315   1.297   4.973
   12DPPC    O9  559   9.321   1.304   5.121
   12DPPC   O10  560   9.368   1.181   4.899
   12DPPC   O11  561   9.158   1.325   4.946
   12DPPC   C12  562   9.121   1.256   4.826
   12DPPC   C13  563   8.972   1.272   4.795
   12DPPC   O14  564   8.922   1.192   4.687
   12DPPC   C15  565   8.893   1.061   4.710
   12DPPC   O16  566   8.888   1.018   4.825
   12DPPC   C17  567   8.829   0.992   4.589
   12DPPC   C18  568   8.786   1.069   4.465
   12DPPC   C19  569   8.679   1.176   4.488
   12DPPC   C20  570   8.658   1.243   4.352
   12DPPC   C21  571   8.557   1.358   4.355
   12DPPC   C22  572   8.535   1.436   4.225
   12DPPC   C23  573   8.472   1.347   4.117
   12DPPC   C24  574   8.417   1.433   4.003
   12DPPC   C25  575   8.307   1.528   4.053
   12DPPC   C26  576   8.277   1.620   3.934
   12DPPC   C27  577   8.189   1.573   3.819
   12DPPC   C28  578   8.045   1.531   3.848
   12DPPC   C29  579   7.966   1.467   3.734
   12DPPC   C30  580   7.825   1.432   3.782
   12DPPC   C31  581   7.836   1.330   3.896
   12DPPC   C32  582   8.943   1.419   4.767
   12DPPC   O33  583   9.019   1.454   4.651
   12DPPC   C34  584   9.001   1.580   4.602
   12DPPC   O35  585   8.949   1.671   4.666
   12DPPC   C36  586   9.092   1.619   4.485
   12DPPC   C37  587   9.039   1.568   4.350
   12DPPC   C38  588   8.921   1.648   4.294
   12DPPC   C39  589   8.916   1.617   4.145
   12DPPC   C40  590   8.800   1.666   4.057
   12DPPC   C41  591   8.811   1.648   3.905
   12DPPC   C42  592   8.715   1.736   3.825
   12DPPC   C43  593   8.707   1.681   3.683
   12DPPC   C44  594   8.596   1.756   3.608
   12DPPC   C45  595   8.632   1.899   3.569
   12DPPC   C46  596   8.519   1.980   3.506
   12DPPC   C47  597   8.392   1.993   3.591
   12DPPC   C48  598   8.312   2.118   3.555
   12DPPC   C49  599   8.178   2.102   3.627
   12DPPC   C50  600   8.105   1.975   3.581
   13DPPC    C1  601   1.540   1.634   4.926
   13DPPC    C2  602   1.672   1.494   5.081
   13DPPC    C3  603   1.509   1.613   5.172
   13DPPC    N4  604   1.539   1.547   5.044
   13DPPC    C5  605   1.460   1.424   5.031
   13DPPC    C6  606   1.310   1.440   5.055
   13DPPC    O7  607   1.215   1.350   4.998
   13DPPC    P8  608   1.067   1.407   5.027
   13DPPC    O9  609   1.058   1.430   5.173
   13DPPC   O10  610   0.977   1.309   4.962
   13DPPC   O11  611   1.070   1.554   4.962
   13DPPC   C12  612   0.976   1.561   4.855
   13DPPC   C13  613   0.975   1.700   4.792
   13DPPC   O14  614   0.888   1.720   4.680
   13DPPC   C15  615   0.754   1.719   4.702
   13DPPC   O16  616   0.710   1.705   4.816
   13DPPC   C17  617   0.663   1.719   4.578
   13DPPC   C18  618   0.645   1.579   4.521
   13DPPC   C19  619   0.552   1.597   4.401
   13DPPC   C20  620   0.502   1.464   4.345
   13DPPC   C21  621   0.392   1.485   4.241
   13DPPC   C22  622   0.249   1.498   4.294
   13DPPC   C23  623   0.145   1.503   4.182
   13DPPC   C24  624   0.006   1.472   4.239
   13DPPC   C25  625  -0.088   1.498   4.121
   13DPPC   C26  626  -0.070   1.638   4.062
   13DPPC   C27  627  -0.162   1.636   3.939
   13DPPC   C28  628  -0.149   1.760   3.852
   13DPPC   C29  629  -0.283   1.783   3.781
   13DPPC   C30  630  -0.255   1.882   3.668
   13DPPC   C31  631  -0.210   2.019   3.718
   13DPPC   C32  632   1.123   1.718   4.756
   13DPPC   O33  633   1.181   1.610   4.683
   13DPPC   C34  634   1.293   1.645   4.614
   13DPPC   O35  635   1.368   1.732   4.656
   13DPPC   C36  636   1.331   1.550   4.499
   13DPPC   C37  637   1.257   1.590   4.371
   13DPPC   C38  638   1.126   1.512   4.358
   13DPPC   C39  639   1.051   1.544   4.229
   13DPPC   C40  640   0.919   1.466   4.221
   13DPPC   C41  641   0.840   1.504   4.096
   13DPPC   C42  642   0.720   1.409   4.091
   13DPPC   C43  643   0.686   1.397   3.943
   13DPPC   C44  644   0.563   1.307   3.931
   13DPPC   C45  645   0.590   1.168   3.989
   13DPPC   C46  646   0.667   1.078   3.892
   13DPPC   C47  647   0.685   0.943   3.963
   13DPPC   C48  648   0.740   0.838   3.867
   13DPPC   C49  649   0.746   0.693   3.917
   13DPPC   C50  650   0.822   0.680   4.049
   14DPPC    C1  651   8.412   3.413   5.431
   14DPPC    C2  652   8.375   3.581   5.600
   14DPPC    C3  653   8.588   3.508   5.543
   14DPPC    N4  654   8.457   3.542   5.485
   14DPPC    C5  655   8.458   3.657   5.393
   14DPPC    C6  656   8.529   3.644   5.259
   14DPPC    O7  657   8.667   3.608   5.273
   14DPPC    P8  658   8.711   3.515   5.149
   14DPPC    O9  659   8.607   3.409   5.149
   14DPPC   O10  660   8.855   3.482   5.150
   14DPPC   O11  661   8.696   3.637   5.045
   14DPPC   C12  662   8.624   3.589   4.930
   14DPPC   C13  663   8.498   3.673   4.909
   14DPPC   O14  664   8.414   3.613   4.809
   14DPPC   C15  665   8.315   3.532   4.854
   14DPPC   O16  666   8.292   3.524   4.975
   14DPPC   C17  667   8.240   3.455   4.746
   14DPPC   C18  668   8.331   3.349   4.684
   14DPPC   C19  669   8.280   3.282   4.556
   14DPPC   C20  670   8.276   3.378   4.437
   14DPPC   C21  671   8.224   3.324   4.304
   14DPPC   C22  672   8.200   3.435   4.202
   14DPPC   C23  673   8.328   3.515   4.176
   14DPPC   C24  674   8.303   3.624   4.071
   14DPPC   C25  675   8.249   3.557   3.945
   14DPPC   C26  676   8.256   3.662   3.834
   14DPPC   C27  677   8.226   3.609   3.694
   14DPPC   C28  678   8.212   3.714   3.582
   14DPPC   C29  679   8.111   3.821   3.622
   14DPPC   C30  680   8.082   3.892   3.490
   14DPPC   C31  681   8.217   3.942   3.438
   14DPPC   C32  682   8.552   3.805   4.855
   14DPPC   O33  683   8.664   3.800   4.766
   14DPPC   C34  684   8.702   3.924   4.725
   14DPPC   O35  685   8.653   4.023   4.779
   14DPPC   C36  686   8.823   3.923   4.632
   14DPPC   C37  687   8.829   3.807   4.532
   14DPPC   C38  688   8.733   3.843   4.419
   14DPPC   C39  689   8.773   3.762   4.296
   14DPPC   C40  690   8.751   3.611   4.309
   14DPPC   C41  691   8.820   3.541   4.191
   14DPPC   C42  692   8.768   3.398   4.170
   14DPPC   C43  693   8.817   3.335   4.040
   14DPPC   C44  694   8.727   3.226   3.981
   14DPPC   C45  695   8.797   3.097   3.939
   14DPPC   C46  696   8.701   3.020   3.848
   14DPPC   C47  697   8.772   2.888   3.818
   14DPPC   C48  698   8.816   2.881   3.672
   14DPPC   C49  699   8.896   2.753   3.642
   14DPPC   C50  700   8.923   2.722   3.495
   15DPPC    C1  701   5.208   8.170   4.863
   15DPPC    C2  702   5.381   8.283   4.737
   15DPPC    C3  703   5.152   8.363   4.781
   15DPPC    N4  704   5.272   8.299   4.835
   15DPPC    C5  705   5.300   8.359   4.966
   15DPPC    C6  706   5.379   8.274   5.064
   15DPPC    O7  707   5.518   8.264   5.034
   15DPPC    P8  708   5.583   8.130   5.094
   15DPPC    O9  709   5.492   8.024   5.046
   15DPPC   O10  710   5.584   8.173   5.236
   15DPPC   O11  711   5.723   8.143   5.015
   15DPPC   C12  712   5.677   8.129   4.881
   15DPPC   C13  713   5.787   8.185   4.790
   15DPPC   O14  714   5.750   8.202   4.652
   15DPPC   C15  715   5.834   8.266   4.566
   15DPPC   O16  716   5.919   8.338   4.617
   15DPPC   C17  717   5.773   8.294   4.428
   15DPPC   C18  718   5.775   8.443   4.394
   15DPPC   C19  719   5.702   8.524   4.502
   15DPPC   C20  720   5.706   8.673   4.466
   15DPPC   C21  721   5.852   8.717   4.450
   15DPPC   C22  722   5.868   8.864   4.410
   15DPPC   C23  723   5.801   8.885   4.274
   15DPPC   C24  724   5.834   9.029   4.235
   15DPPC   C25  725   5.765   9.061   4.102
   15DPPC   C26  726   5.613   9.062   4.116
   15DPPC   C27  727   5.564   9.104   3.977
   15DPPC   C28  728   5.415   9.137   3.982
   15DPPC   C29  729   5.381   9.216   3.855
   15DPPC   C30  730   5.235   9.255   3.835
   15DPPC   C31  731   5.192   9.340   3.954
   15DPPC   C32  732   5.911   8.099   4.813
   15DPPC   O33  733   5.918   7.979   4.736
   15DPPC   C34  734   6.022   7.894   4.759
   15DPPC   O35  735   6.099   7.918   4.852
   15DPPC   C36  736   6.023   7.769   4.672
   15DPPC   C37  737   5.987   7.640   4.747
   15DPPC   C38  738   5.971   7.518   4.657
   15DPPC   C39  739   5.887   7.555   4.534
   15DPPC   C40  740   5.837   7.437   4.451
   15DPPC   C41  741   5.945   7.334   4.419
   15DPPC   C42  742   5.866   7.223   4.350
   15DPPC   C43  743   5.947   7.141   4.250
   15DPPC   C44  744   5.851   7.044   4.181
   15DPPC   C45  745   5.935   6.948   4.096
   15DPPC   C46  746   5.976   7.025   3.971
   15DPPC   C47  747   5.865   7.086   3.885
   15DPPC   C48  748   5.920   7.156   3.761
   15DPPC   C49  749   5.811   7.221   3.676
   15DPPC   C50  750   5.752   7.337   3.755
   16DPPC    C1  751   9.163   0.895   4.932
   16DPPC    C2  752   9.109   0.898   5.172
   16DPPC    C3  753   8.988   0.755   5.009
   16DPPC    N4  754   9.114   0.819   5.048
   16DPPC    C5  755   9.205   0.705   5.064
   16DPPC    C6  756   9.186   0.613   5.186
   16DPPC    O7  757   9.247   0.484   5.184
   16DPPC    P8  758   9.146   0.377   5.249
   16DPPC    O9  759   9.088   0.459   5.358
   16DPPC   O10  760   9.207   0.246   5.279
   16DPPC   O11  761   9.056   0.354   5.118
   16DPPC   C12  762   9.137   0.286   5.022
   16DPPC   C13  763   9.103   0.326   4.878
   16DPPC   O14  764   9.165   0.447   4.833
   16DPPC   C15  765   9.289   0.435   4.777
   16DPPC   O16  766   9.364   0.348   4.819
   16DPPC   C17  767   9.350   0.546   4.691
   16DPPC   C18  768   9.271   0.676   4.676
   16DPPC   C19  769   9.307   0.748   4.545
   16DPPC   C20  770   9.224   0.688   4.432
   16DPPC   C21  771   9.077   0.705   4.472
   16DPPC   C22  772   8.975   0.647   4.374
   16DPPC   C23  773   8.947   0.733   4.250
   16DPPC   C24  774   8.842   0.657   4.169
   16DPPC   C25  775   8.765   0.715   4.050
   16DPPC   C26  776   8.703   0.604   3.965
   16DPPC   C27  777   8.643   0.671   3.840
   16DPPC   C28  778   8.514   0.593   3.815
   16DPPC   C29  779   8.432   0.622   3.689
   16DPPC   C30  780   8.518   0.570   3.573
   16DPPC   C31  781   8.463   0.596   3.432
   16DPPC   C32  782   8.950   0.333   4.875
   16DPPC   O33  783   8.891   0.203   4.878
   16DPPC   C34  784   8.758   0.196   4.851
   16DPPC   O35  785   8.685   0.271   4.916
   16DPPC   C36  786   8.711   0.054   4.817
   16DPPC   C37  787   8.660   0.070   4.674
   16DPPC   C38  788   8.685  -0.062   4.601
   16DPPC   C39  789   8.665  -0.055   4.449
   16DPPC   C40  790   8.730  -0.173   4.376
   16DPPC   C41  791   8.711  -0.168   4.224
   16DPPC   C42  792   8.567  -0.201   4.183
   16DPPC   C43  793   8.570  -0.231   4.033
   16DPPC   C44  794   8.441  -0.312   4.018
   16DPPC   C45  795   8.401  -0.338   3.872
   16DPPC   C46  796   8.260  -0.393   3.894
   16DPPC   C47  797   8.182  -0.438   3.770
   16DPPC   C48  798   8.052  -0.486   3.836
   16DPPC   C49  799   7.957  -0.560   3.742
   16DPPC   C50  800   7.838  -0.622   3.815
   17DPPC    C1  801   1.513   0.600   5.217
   17DPPC    C2  802   1.572   0.603   4.994
   17DPPC    C3  803   1.436   0.436   5.067
   17DPPC    N4  804   1.457   0.580   5.082
   17DPPC    C5  805   1.338   0.659   5.048
   17DPPC    C6  806   1.366   0.809   5.037
   17DPPC    O7  807   1.248   0.889   5.034
   17DPPC    P8  808   1.267   1.049   5.030
   17DPPC    O9  809   1.412   1.064   5.052
   17DPPC   O10  810   1.163   1.100   5.122
   17DPPC   O11  811   1.230   1.062   4.874
   17DPPC   C12  812   1.351   1.119   4.823
   17DPPC   C13  813   1.326   1.158   4.677
   17DPPC   O14  814   1.433   1.228   4.612
   17DPPC   C15  815   1.520   1.147   4.546
   17DPPC   O16  816   1.484   1.033   4.518
   17DPPC   C17  817   1.649   1.209   4.490
   17DPPC   C18  818   1.671   1.343   4.561
   17DPPC   C19  819   1.757   1.436   4.475
   17DPPC   C20  820   1.875   1.358   4.417
   17DPPC   C21  821   1.955   1.459   4.335
   17DPPC   C22  822   2.088   1.394   4.297
   17DPPC   C23  823   2.175   1.502   4.233
   17DPPC   C24  824   2.309   1.445   4.186
   17DPPC   C25  825   2.280   1.347   4.072
   17DPPC   C26  826   2.394   1.267   4.009
   17DPPC   C27  827   2.337   1.191   3.889
   17DPPC   C28  828   2.437   1.082   3.850
   17DPPC   C29  829   2.382   0.996   3.736
   17DPPC   C30  830   2.379   1.067   3.600
   17DPPC   C31  831   2.347   0.966   3.490
   17DPPC   C32  832   1.198   1.242   4.675
   17DPPC   O33  833   1.113   1.239   4.559
   17DPPC   C34  834   1.044   1.130   4.517
   17DPPC   O35  835   1.069   1.019   4.564
   17DPPC   C36  836   0.984   1.136   4.377
   17DPPC   C37  837   1.074   1.068   4.274
   17DPPC   C38  838   0.986   1.000   4.170
   17DPPC   C39  839   1.063   0.955   4.045
   17DPPC   C40  840   1.096   1.082   3.967
   17DPPC   C41  841   1.154   1.045   3.830
   17DPPC   C42  842   1.231   1.163   3.770
   17DPPC   C43  843   1.296   1.152   3.632
   17DPPC   C44  844   1.365   1.281   3.587
   17DPPC   C45  845   1.416   1.267   3.443
   17DPPC   C46  846   1.463   1.403   3.389
   17DPPC   C47  847   1.589   1.448   3.462
   17DPPC   C48  848   1.641   1.587   3.424
   17DPPC   C49  849   1.761   1.644   3.500
   17DPPC   C50  850   1.774   1.794   3.471
   18DPPC    C1  851   1.835   7.205   5.344
   18DPPC    C2  852   1.905   7.004   5.419
   18DPPC    C3  853   1.692   7.017   5.303
   18DPPC    N4  854   1.832   7.063   5.306
   18DPPC    C5  855   1.898   7.058   5.175
   18DPPC    C6  856   1.927   6.915   5.129
   18DPPC    O7  857   1.997   6.912   5.005
   18DPPC    P8  858   1.996   6.763   4.943
   18DPPC    O9  859   1.858   6.720   4.974
   18DPPC   O10  860   2.110   6.682   4.991
   18DPPC   O11  861   2.007   6.787   4.784
   18DPPC   C12  862   2.050   6.669   4.717
   18DPPC   C13  863   2.073   6.680   4.566
   18DPPC   O14  864   2.076   6.556   4.494
   18DPPC   C15  865   1.959   6.494   4.464
   18DPPC   O16  866   1.856   6.496   4.531
   18DPPC   C17  867   1.968   6.372   4.373
   18DPPC   C18  868   1.846   6.369   4.280
   18DPPC   C19  869   1.889   6.308   4.146
   18DPPC   C20  870   1.766   6.290   4.057
   18DPPC   C21  871   1.795   6.204   3.933
   18DPPC   C22  872   1.664   6.193   3.856
   18DPPC   C23  873   1.685   6.100   3.736
   18DPPC   C24  874   1.556   6.100   3.654
   18DPPC   C25  875   1.424   6.070   3.727
   18DPPC   C26  876   1.406   5.927   3.778
   18DPPC   C27  877   1.283   5.936   3.869
   18DPPC   C28  878   1.157   5.973   3.791
   18DPPC   C29  879   1.109   5.869   3.690
   18DPPC   C30  880   0.979   5.909   3.621
   18DPPC   C31  881   0.948   5.789   3.530
   18DPPC   C32  882   2.190   6.777   4.550
   18DPPC   O33  883   2.222   6.807   4.413
   18DPPC   C34  884   2.352   6.841   4.392
   18DPPC   O35  885   2.429   6.845   4.487
   18DPPC   C36  886   2.376   6.871   4.243
   18DPPC   C37  887   2.429   6.747   4.170
   18DPPC   C38  888   2.451   6.788   4.024
   18DPPC   C39  889   2.531   6.690   3.937
   18DPPC   C40  890   2.675   6.667   3.981
   18DPPC   C41  891   2.741   6.573   3.880
   18DPPC   C42  892   2.826   6.463   3.943
   18DPPC   C43  893   2.893   6.383   3.831
   18DPPC   C44  894   2.940   6.246   3.879
   18DPPC   C45  895   3.054   6.267   3.978
   18DPPC   C46  896   3.100   6.153   4.069
   18DPPC   C47  897   3.207   6.201   4.167
   18DPPC   C48  898   3.146   6.289   4.277
   18DPPC   C49  899   3.262   6.328   4.369
   18DPPC   C50  900   3.222   6.408   4.493
   19DPPC    C1  901   2.562   5.750   5.479
   19DPPC    C2  902   2.349   5.802   5.421
   19DPPC    C3  903   2.520   5.810   5.250
   19DPPC    N4  904   2.468   5.737   5.367
   19DPPC    C5  905   2.429   5.600   5.330
   19DPPC    C6  906   2.534   5.496   5.292
   19DPPC    O7  907   2.607   5.518   5.171
   19DPPC    P8  908   2.737   5.423   5.169
   19DPPC    O9  909   2.776   5.419   5.312
   19DPPC   O10  910   2.818   5.484   5.061
   19DPPC   O11  911   2.670   5.296   5.097
   19DPPC   C12  912   2.708   5.279   4.960
   19DPPC   C13  913   2.626   5.163   4.903
   19DPPC   O14  914   2.701   5.082   4.812
   19DPPC   C15  915   2.666   4.950   4.813
   19DPPC   O16  916   2.590   4.896   4.893
   19DPPC   C17  917   2.740   4.865   4.709
   19DPPC   C18  918   2.873   4.803   4.753
   19DPPC   C19  919   2.934   4.735   4.631
   19DPPC   C20  920   2.853   4.609   4.602
   19DPPC   C21  921   2.917   4.532   4.486
   19DPPC   C22  922   2.835   4.407   4.452
   19DPPC   C23  923   2.902   4.350   4.327
   19DPPC   C24  924   3.045   4.298   4.341
   19DPPC   C25  925   3.104   4.258   4.206
   19DPPC   C26  926   3.073   4.367   4.103
   19DPPC   C27  927   3.136   4.323   3.970
   19DPPC   C28  928   3.084   4.412   3.858
   19DPPC   C29  929   3.152   4.378   3.725
   19DPPC   C30  930   3.074   4.427   3.604
   19DPPC   C31  931   3.069   4.579   3.617
   19DPPC   C32  932   2.486   5.215   4.868
   19DPPC   O33  933   2.492   5.314   4.766
   19DPPC   C34  934   2.382   5.344   4.691
   19DPPC   O35  935   2.276   5.286   4.714
   19DPPC   C36  936   2.392   5.448   4.579
   19DPPC   C37  937   2.284   5.415   4.476
   19DPPC   C38  938   2.318   5.461   4.334
   19DPPC   C39  939   2.211   5.457   4.225
   19DPPC   C40  940   2.249   5.541   4.103
   19DPPC   C41  941   2.151   5.564   3.988
   19DPPC   C42  942   2.206   5.666   3.888
   19DPPC   C43  943   2.352   5.626   3.864
   19DPPC   C44  944   2.415   5.716   3.758
   19DPPC   C45  945   2.559   5.665   3.744
   19DPPC   C46  946   2.619   5.725   3.617
   19DPPC   C47  947   2.770   5.699   3.606
   19DPPC   C48  948   2.839   5.753   3.731
   19DPPC   C49  949   2.992   5.758   3.715
   19DPPC   C50  950   3.067   5.802   3.841
   20DPPC    C1  951   6.712   5.493   4.902
   20DPPC    C2  952   6.529   5.451   4.761
   20DPPC    C3  953   6.514   5.362   4.970
   20DPPC    N4  954   6.566   5.480   4.900
   20DPPC    C5  955   6.487   5.595   4.949
   20DPPC    C6  956   6.558   5.715   5.010
   20DPPC    O7  957   6.634   5.799   4.922
   20DPPC    P8  958   6.718   5.908   5.003
   20DPPC    O9  959   6.796   5.811   5.083
   20DPPC   O10  960   6.625   6.007   5.062
   20DPPC   O11  961   6.816   5.987   4.902
   20DPPC   C12  962   6.913   5.890   4.863
   20DPPC   C13  963   7.041   5.938   4.793
   20DPPC   O14  964   7.029   6.024   4.679
   20DPPC   C15  965   7.030   6.160   4.667
   20DPPC   O16  966   7.070   6.224   4.763
   20DPPC   C17  967   7.006   6.225   4.530
   20DPPC   C18  968   7.081   6.354   4.494
   20DPPC   C19  969   7.026   6.395   4.357
   20DPPC   C20  970   6.875   6.418   4.370
   20DPPC   C21  971   6.824   6.462   4.233
   20DPPC   C22  972   6.899   6.585   4.181
   20DPPC   C23  973   6.889   6.603   4.029
   20DPPC   C24  974   6.975   6.713   3.967
   20DPPC   C25  975   6.982   6.687   3.816
   20DPPC   C26  976   7.063   6.782   3.727
   20DPPC   C27  977   7.210   6.770   3.769
   20DPPC   C28  978   7.299   6.862   3.687
   20DPPC   C29  979   7.448   6.827   3.688
   20DPPC   C30  980   7.537   6.912   3.597
   20DPPC   C31  981   7.677   6.850   3.597
   20DPPC   C32  982   7.127   5.814   4.771
   20DPPC   O33  983   7.052   5.703   4.723
   20DPPC   C34  984   7.110   5.580   4.723
   20DPPC   O35  985   7.210   5.549   4.788
   20DPPC   C36  986   7.054   5.492   4.611
   20DPPC   C37  987   7.169   5.422   4.539
   20DPPC   C38  988   7.114   5.362   4.409
   20DPPC   C39  989   7.215   5.285   4.323
   20DPPC   C40  990   7.171   5.266   4.178
   20DPPC   C41  991   7.275   5.204   4.084
   20DPPC   C42  992   7.195   5.194   3.954
   20DPPC   C43  993   7.286   5.138   3.844
   20DPPC   C44  994   7.204   5.081   3.728
   20DPPC   C45  995   7.293   5.008   3.628
   20DPPC   C46  996   7.206   4.960   3.512
   20DPPC   C47  997   7.136   5.072   3.435
   20DPPC   C48  998   7.040   5.011   3.333
   20DPPC   C49  999   6.947   5.107   3.259
   20DPPC   C50 1000   7.028   5.195   3.163
   21DPPC    C1 1001   3.167   2.250   6.045
   21DPPC    C2 1002   3.332   2.199   5.878
   21DPPC    C3 1003   3.377   2.144   6.098
   21DPPC    N4 1004   3.267   2.152   6.001
   21DPPC    C5 1005   3.217   2.014   5.991
   21DPPC    C6 1006   3.080   1.988   5.926
   21DPPC    O7 1007   3.076   2.001   5.784
   21DPPC    P8 1008   2.929   2.037   5.727
   21DPPC    O9 1009   2.860   2.128   5.820
   21DPPC   O10 1010   2.888   1.902   5.683
   21DPPC   O11 1011   2.976   2.110   5.591
   21DPPC   C12 1012   2.985   2.006   5.494
   21DPPC   C13 1013   2.983   2.064   5.352
   21DPPC   O14 1014   2.971   1.970   5.244
   21DPPC   C15 1015   2.845   1.934   5.211
   21DPPC   O16 1016   2.755   1.926   5.296
   21DPPC   C17 1017   2.840   1.868   5.073
   21DPPC   C18 1018   2.936   1.945   4.981
   21DPPC   C19 1019   2.905   1.912   4.835
   21DPPC   C20 1020   2.977   2.013   4.746
   21DPPC   C21 1021   2.915   1.993   4.608
   21DPPC   C22 1022   2.973   2.092   4.506
   21DPPC   C23 1023   2.919   2.066   4.365
   21DPPC   C24 1024   3.003   2.128   4.254
   21DPPC   C25 1025   2.916   2.133   4.128
   21DPPC   C26 1026   2.991   2.174   4.001
   21DPPC   C27 1027   2.910   2.162   3.872
   21DPPC   C28 1028   2.999   2.196   3.753
   21DPPC   C29 1029   2.931   2.181   3.617
   21DPPC   C30 1030   3.042   2.144   3.519
   21DPPC   C31 1031   3.008   2.152   3.370
   21DPPC   C32 1032   3.111   2.147   5.347
   21DPPC   O33 1033   3.140   2.230   5.234
   21DPPC   C34 1034   3.072   2.346   5.212
   21DPPC   O35 1035   2.976   2.381   5.281
   21DPPC   C36 1036   3.112   2.422   5.085
   21DPPC   C37 1037   3.030   2.387   4.961
   21DPPC   C38 1038   3.077   2.474   4.845
   21DPPC   C39 1039   2.994   2.437   4.721
   21DPPC   C40 1040   3.025   2.520   4.597
   21DPPC   C41 1041   2.939   2.479   4.477
   21DPPC   C42 1042   2.992   2.537   4.346
   21DPPC   C43 1043   3.144   2.534   4.327
   21DPPC   C44 1044   3.198   2.619   4.212
   21DPPC   C45 1045   3.151   2.566   4.076
   21DPPC   C46 1046   3.181   2.658   3.957
   21DPPC   C47 1047   3.138   2.598   3.824
   21DPPC   C48 1048   3.192   2.685   3.710
   21DPPC   C49 1049   3.121   2.634   3.585
   21DPPC   C50 1050   3.129   2.732   3.468
   22DPPC    C1 1051   1.588   2.045   5.428
   22DPPC    C2 1052   1.772   2.139   5.308
   22DPPC    C3 1053   1.807   2.034   5.527
   22DPPC    N4 1054   1.731   2.032   5.400
   22DPPC    C5 1055   1.747   1.906   5.327
   22DPPC    C6 1056   1.874   1.874   5.247
   22DPPC    O7 1057   1.862   1.755   5.169
   22DPPC    P8 1058   2.009   1.719   5.113
   22DPPC    O9 1059   1.998   1.595   5.033
   22DPPC   O10 1060   2.103   1.731   5.226
   22DPPC   O11 1061   2.013   1.850   5.019
   22DPPC   C12 1062   1.959   1.828   4.888
   22DPPC   C13 1063   1.941   1.963   4.820
   22DPPC   O14 1064   1.881   1.953   4.689
   22DPPC   C15 1065   1.747   1.936   4.682
   22DPPC   O16 1066   1.679   1.922   4.784
   22DPPC   C17 1067   1.687   1.940   4.541
   22DPPC   C18 1068   1.748   1.835   4.449
   22DPPC   C19 1069   1.683   1.839   4.311
   22DPPC   C20 1070   1.725   1.726   4.217
   22DPPC   C21 1071   1.622   1.708   4.105
   22DPPC   C22 1072   1.643   1.579   4.024
   22DPPC   C23 1073   1.514   1.548   3.948
   22DPPC   C24 1074   1.469   1.657   3.850
   22DPPC   C25 1075   1.352   1.585   3.782
   22DPPC   C26 1076   1.302   1.685   3.678
   22DPPC   C27 1077   1.168   1.639   3.620
   22DPPC   C28 1078   1.066   1.609   3.729
   22DPPC   C29 1079   0.939   1.550   3.667
   22DPPC   C30 1080   0.964   1.419   3.592
   22DPPC   C31 1081   0.843   1.356   3.523
   22DPPC   C32 1082   2.073   2.041   4.826
   22DPPC   O33 1083   2.189   1.967   4.790
   22DPPC   C34 1084   2.300   2.044   4.780
   22DPPC   O35 1085   2.283   2.166   4.785
   22DPPC   C36 1086   2.421   1.990   4.704
   22DPPC   C37 1087   2.391   1.875   4.608
   22DPPC   C38 1088   2.494   1.888   4.496
   22DPPC   C39 1089   2.470   1.792   4.379
   22DPPC   C40 1090   2.552   1.835   4.258
   22DPPC   C41 1091   2.524   1.755   4.130
   22DPPC   C42 1092   2.609   1.795   4.010
   22DPPC   C43 1093   2.572   1.723   3.880
   22DPPC   C44 1094   2.671   1.779   3.778
   22DPPC   C45 1095   2.647   1.727   3.636
   22DPPC   C46 1096   2.706   1.811   3.522
   22DPPC   C47 1097   2.668   1.751   3.386
   22DPPC   C48 1098   2.741   1.622   3.347
   22DPPC   C49 1099   2.716   1.567   3.206
   22DPPC   C50 1100   2.752   1.670   3.098
   23DPPC    C1 1101   1.346   7.347   4.910
   23DPPC    C2 1102   1.441   7.149   4.972
   23DPPC    C3 1103   1.292   7.133   4.799
   23DPPC    N4 1104   1.396   7.221   4.852
   23DPPC    C5 1105   1.508   7.233   4.758
   23DPPC    C6 1106   1.504   7.308   4.624
   23DPPC    O7 1107   1.427   7.261   4.513
   23DPPC    P8 1108   1.363   7.383   4.429
   23DPPC    O9 1109   1.408   7.511   4.490
   23DPPC   O10 1110   1.223   7.349   4.400
   23DPPC   O11 1111   1.453   7.357   4.299
   23DPPC   C12 1112   1.407   7.238   4.234
   23DPPC   C13 1113   1.435   7.228   4.084
   23DPPC   O14 1114   1.575   7.231   4.056
   23DPPC   C15 1115   1.620   7.121   3.989
   23DPPC   O16 1116   1.555   7.017   3.993
   23DPPC   C17 1117   1.765   7.145   3.944
   23DPPC   C18 1118   1.781   7.239   3.825
   23DPPC   C19 1119   1.919   7.301   3.808
   23DPPC   C20 1120   1.925   7.417   3.709
   23DPPC   C21 1121   1.907   7.550   3.783
   23DPPC   C22 1122   1.894   7.648   3.667
   23DPPC   C23 1123   1.868   7.792   3.712
   23DPPC   C24 1124   1.845   7.890   3.597
   23DPPC   C25 1125   1.818   8.025   3.663
   23DPPC   C26 1126   1.825   8.140   3.561
   23DPPC   C27 1127   1.780   8.280   3.603
   23DPPC   C28 1128   1.629   8.276   3.624
   23DPPC   C29 1129   1.576   8.260   3.482
   23DPPC   C30 1130   1.425   8.236   3.493
   23DPPC   C31 1131   1.364   8.228   3.352
   23DPPC   C32 1132   1.363   7.353   4.032
   23DPPC   O33 1133   1.393   7.378   3.895
   23DPPC   C34 1134   1.333   7.481   3.830
   23DPPC   O35 1135   1.254   7.550   3.893
   23DPPC   C36 1136   1.385   7.507   3.688
   23DPPC   C37 1137   1.499   7.609   3.685
   23DPPC   C38 1138   1.553   7.630   3.543
   23DPPC   C39 1139   1.610   7.497   3.494
   23DPPC   C40 1140   1.640   7.514   3.345
   23DPPC   C41 1141   1.693   7.388   3.276
   23DPPC   C42 1142   1.577   7.291   3.251
   23DPPC   C43 1143   1.614   7.143   3.260
   23DPPC   C44 1144   1.502   7.059   3.199
   23DPPC   C45 1145   1.475   7.116   3.059
   23DPPC   C46 1146   1.373   7.023   2.994
   23DPPC   C47 1147   1.343   7.061   2.848
   23DPPC   C48 1148   1.254   6.971   2.763
   23DPPC   C49 1149   1.121   6.931   2.827
   23DPPC   C50 1150   1.005   6.978   2.740
   24DPPC    C1 1151   3.151   5.399   5.032
   24DPPC    C2 1152   3.311   5.436   5.201
   24DPPC    C3 1153   3.154   5.602   5.154
   24DPPC    N4 1154   3.169   5.457   5.166
   24DPPC    C5 1155   3.086   5.396   5.271
   24DPPC    C6 1156   3.101   5.246   5.296
   24DPPC    O7 1157   3.003   5.169   5.225
   24DPPC    P8 1158   3.039   5.015   5.254
   24DPPC    O9 1159   2.933   4.937   5.186
   24DPPC   O10 1160   3.073   5.011   5.398
   24DPPC   O11 1161   3.178   5.000   5.175
   24DPPC   C12 1162   3.140   4.979   5.038
   24DPPC   C13 1163   3.259   4.973   4.942
   24DPPC   O14 1164   3.200   4.986   4.812
   24DPPC   C15 1165   3.172   5.107   4.757
   24DPPC   O16 1166   3.230   5.209   4.794
   24DPPC   C17 1167   3.104   5.100   4.620
   24DPPC   C18 1168   3.197   5.143   4.507
   24DPPC   C19 1169   3.294   5.035   4.459
   24DPPC   C20 1170   3.436   5.094   4.467
   24DPPC   C21 1171   3.523   4.997   4.386
   24DPPC   C22 1172   3.665   5.045   4.356
   24DPPC   C23 1173   3.728   4.959   4.247
   24DPPC   C24 1174   3.866   5.006   4.203
   24DPPC   C25 1175   3.923   4.945   4.074
   24DPPC   C26 1176   4.050   5.023   4.041
   24DPPC   C27 1177   4.113   4.977   3.909
   24DPPC   C28 1178   4.220   5.079   3.871
   24DPPC   C29 1179   4.316   5.020   3.767
   24DPPC   C30 1180   4.429   5.117   3.734
   24DPPC   C31 1181   4.530   5.162   3.840
   24DPPC   C32 1182   3.312   4.832   4.963
   24DPPC   O33 1183   3.224   4.720   4.955
   24DPPC   C34 1184   3.277   4.595   4.964
   24DPPC   O35 1185   3.392   4.581   5.005
   24DPPC   C36 1186   3.201   4.475   4.908
   24DPPC   C37 1187   3.257   4.427   4.774
   24DPPC   C38 1188   3.251   4.536   4.667
   24DPPC   C39 1189   3.300   4.486   4.531
   24DPPC   C40 1190   3.338   4.598   4.433
   24DPPC   C41 1191   3.360   4.541   4.293
   24DPPC   C42 1192   3.424   4.648   4.205
   24DPPC   C43 1193   3.477   4.593   4.072
   24DPPC   C44 1194   3.562   4.701   4.006
   24DPPC   C45 1195   3.636   4.669   3.875
   24DPPC   C46 1196   3.732   4.778   3.828
   24DPPC   C47 1197   3.827   4.723   3.721
   24DPPC   C48 1198   3.888   4.827   3.627
   24DPPC   C49 1199   3.961   4.766   3.507
   24DPPC   C50 1200   4.049   4.654   3.562
   25DPPC    C1 1201   3.880   5.428   5.154
   25DPPC    C2 1202   3.833   5.590   4.987
   25DPPC    C3 1203   3.690   5.398   5.042
   25DPPC    N4 1204   3.773   5.508   5.093
   25DPPC    C5 1205   3.718   5.585   5.206
   25DPPC    C6 1206   3.652   5.720   5.175
   25DPPC    O7 1207   3.539   5.699   5.089
   25DPPC    P8 1208   3.443   5.824   5.060
   25DPPC    O9 1209   3.544   5.911   4.995
   25DPPC   O10 1210   3.364   5.873   5.176
   25DPPC   O11 1211   3.354   5.741   4.955
   25DPPC   C12 1212   3.448   5.707   4.853
   25DPPC   C13 1213   3.409   5.647   4.718
   25DPPC   O14 1214   3.514   5.583   4.644
   25DPPC   C15 1215   3.571   5.464   4.677
   25DPPC   O16 1216   3.547   5.415   4.787
   25DPPC   C17 1217   3.661   5.400   4.571
   25DPPC   C18 1218   3.738   5.512   4.502
   25DPPC   C19 1219   3.773   5.453   4.365
   25DPPC   C20 1220   3.886   5.350   4.375
   25DPPC   C21 1221   4.031   5.399   4.384
   25DPPC   C22 1222   4.126   5.291   4.333
   25DPPC   C23 1223   4.260   5.313   4.404
   25DPPC   C24 1224   4.377   5.242   4.337
   25DPPC   C25 1225   4.500   5.218   4.425
   25DPPC   C26 1226   4.618   5.193   4.331
   25DPPC   C27 1227   4.715   5.311   4.325
   25DPPC   C28 1228   4.832   5.265   4.238
   25DPPC   C29 1229   4.915   5.391   4.211
   25DPPC   C30 1230   5.013   5.342   4.104
   25DPPC   C31 1231   4.942   5.273   3.988
   25DPPC   C32 1232   3.348   5.769   4.648
   25DPPC   O33 1233   3.440   5.877   4.631
   25DPPC   C34 1234   3.383   5.991   4.582
   25DPPC   O35 1235   3.269   6.027   4.612
   25DPPC   C36 1236   3.486   6.093   4.535
   25DPPC   C37 1237   3.501   6.078   4.384
   25DPPC   C38 1238   3.599   5.964   4.351
   25DPPC   C39 1239   3.659   5.967   4.210
   25DPPC   C40 1240   3.565   5.906   4.106
   25DPPC   C41 1241   3.622   5.902   3.964
   25DPPC   C42 1242   3.752   5.823   3.956
   25DPPC   C43 1243   3.746   5.675   3.994
   25DPPC   C44 1244   3.865   5.584   3.963
   25DPPC   C45 1245   3.884   5.557   3.814
   25DPPC   C46 1246   4.003   5.471   3.771
   25DPPC   C47 1247   3.988   5.411   3.631
   25DPPC   C48 1248   4.105   5.323   3.586
   25DPPC   C49 1249   4.074   5.239   3.462
   25DPPC   C50 1250   4.205   5.172   3.419
   26DPPC    C1 1251   3.569   2.695   5.691
   26DPPC    C2 1252   3.564   2.546   5.517
   26DPPC    C3 1253   3.563   2.763   5.456
   26DPPC    N4 1254   3.624   2.674   5.555
   26DPPC    C5 1255   3.769   2.665   5.538
   26DPPC    C6 1256   3.845   2.794   5.572
   26DPPC    O7 1257   3.858   2.889   5.465
   26DPPC    P8 1258   3.916   3.024   5.530
   26DPPC    O9 1259   3.886   3.020   5.675
   26DPPC   O10 1260   3.917   3.150   5.452
   26DPPC   O11 1261   4.067   2.967   5.531
   26DPPC   C12 1262   4.154   3.018   5.430
   26DPPC   C13 1263   4.291   2.951   5.432
   26DPPC   O14 1264   4.367   2.986   5.315
   26DPPC   C15 1265   4.434   3.102   5.293
   26DPPC   O16 1266   4.418   3.188   5.379
   26DPPC   C17 1267   4.480   3.132   5.150
   26DPPC   C18 1268   4.630   3.162   5.154
   26DPPC   C19 1269   4.683   3.185   5.012
   26DPPC   C20 1270   4.831   3.222   5.000
   26DPPC   C21 1271   4.858   3.211   4.849
   26DPPC   C22 1272   4.856   3.064   4.807
   26DPPC   C23 1273   4.869   3.063   4.655
   26DPPC   C24 1274   4.839   2.933   4.579
   26DPPC   C25 1275   4.871   2.933   4.429
   26DPPC   C26 1276   4.834   2.801   4.361
   26DPPC   C27 1277   4.848   2.811   4.209
   26DPPC   C28 1278   4.809   2.692   4.121
   26DPPC   C29 1279   4.796   2.738   3.976
   26DPPC   C30 1280   4.771   2.617   3.886
   26DPPC   C31 1281   4.792   2.643   3.737
   26DPPC   C32 1282   4.258   2.802   5.432
   26DPPC   O33 1283   4.171   2.758   5.328
   26DPPC   C34 1284   4.115   2.634   5.340
   26DPPC   O35 1285   4.118   2.591   5.455
   26DPPC   C36 1286   4.039   2.589   5.215
   26DPPC   C37 1287   4.120   2.502   5.118
   26DPPC   C38 1288   4.035   2.477   4.994
   26DPPC   C39 1289   3.989   2.609   4.933
   26DPPC   C40 1290   3.970   2.578   4.784
   26DPPC   C41 1291   3.942   2.706   4.705
   26DPPC   C42 1292   3.945   2.673   4.556
   26DPPC   C43 1293   3.947   2.805   4.480
   26DPPC   C44 1294   4.087   2.865   4.484
   26DPPC   C45 1295   4.085   2.988   4.394
   26DPPC   C46 1296   4.032   2.950   4.255
   26DPPC   C47 1297   3.988   3.064   4.163
   26DPPC   C48 1298   3.936   3.027   4.024
   26DPPC   C49 1299   3.906   3.144   3.929
   26DPPC   C50 1300   3.817   3.253   3.990
   27DPPC    C1 1301   3.667   0.232   5.240
   27DPPC    C2 1302   3.555   0.418   5.169
   27DPPC    C3 1303   3.737   0.348   5.034
   27DPPC    N4 1304   3.626   0.299   5.116
   27DPPC    C5 1305   3.529   0.209   5.053
   27DPPC    C6 1306   3.573   0.070   5.007
   27DPPC    O7 1307   3.685   0.063   4.918
   27DPPC    P8 1308   3.734  -0.090   4.928
   27DPPC    O9 1309   3.624  -0.170   4.987
   27DPPC   O10 1310   3.871  -0.086   4.984
   27DPPC   O11 1311   3.741  -0.133   4.773
   27DPPC   C12 1312   3.850  -0.060   4.716
   27DPPC   C13 1313   3.845  -0.042   4.564
   27DPPC   O14 1314   3.775   0.078   4.529
   27DPPC   C15 1315   3.851   0.170   4.464
   27DPPC   O16 1316   3.965   0.194   4.505
   27DPPC   C17 1317   3.766   0.286   4.411
   27DPPC   C18 1318   3.827   0.354   4.288
   27DPPC   C19 1319   3.742   0.475   4.247
   27DPPC   C20 1320   3.809   0.534   4.123
   27DPPC   C21 1321   3.788   0.441   4.003
   27DPPC   C22 1322   3.897   0.463   3.897
   27DPPC   C23 1323   3.897   0.405   3.756
   27DPPC   C24 1324   3.998   0.475   3.665
   27DPPC   C25 1325   3.999   0.396   3.534
   27DPPC   C26 1326   4.080   0.271   3.567
   27DPPC   C27 1327   4.066   0.167   3.456
   27DPPC   C28 1328   4.137   0.033   3.474
   27DPPC   C29 1329   4.117  -0.081   3.373
   27DPPC   C30 1330   3.966  -0.082   3.349
   27DPPC   C31 1331   3.909  -0.221   3.378
   27DPPC   C32 1332   3.775  -0.167   4.511
   27DPPC   O33 1333   3.846  -0.290   4.519
   27DPPC   C34 1334   3.776  -0.404   4.494
   27DPPC   O35 1335   3.654  -0.420   4.486
   27DPPC   C36 1336   3.868  -0.526   4.485
   27DPPC   C37 1337   3.916  -0.574   4.348
   27DPPC   C38 1338   3.999  -0.464   4.282
   27DPPC   C39 1339   4.038  -0.511   4.142
   27DPPC   C40 1340   4.147  -0.410   4.103
   27DPPC   C41 1341   4.204  -0.449   3.966
   27DPPC   C42 1342   4.289  -0.333   3.913
   27DPPC   C43 1343   4.361  -0.373   3.784
   27DPPC   C44 1344   4.458  -0.265   3.735
   27DPPC   C45 1345   4.517  -0.320   3.604
   27DPPC   C46 1346   4.415  -0.307   3.491
   27DPPC   C47 1347   4.482  -0.362   3.365
   27DPPC   C48 1348   4.397  -0.361   3.238
   27DPPC   C49 1349   4.505  -0.409   3.142
   27DPPC   C50 1350   4.524  -0.561   3.130
   28DPPC    C1 1351   8.640   2.516   5.320
   28DPPC    C2 1352   8.698   2.518   5.549
   28DPPC    C3 1353   8.646   2.722   5.438
   28DPPC    N4 1354   8.610   2.580   5.449
   28DPPC    C5 1355   8.480   2.526   5.492
   28DPPC    C6 1356   8.355   2.590   5.431
   28DPPC    O7 1357   8.308   2.683   5.529
   28DPPC    P8 1358   8.181   2.771   5.484
   28DPPC    O9 1359   8.192   2.887   5.575
   28DPPC   O10 1360   8.075   2.668   5.490
   28DPPC   O11 1361   8.253   2.799   5.343
   28DPPC   C12 1362   8.157   2.824   5.240
   28DPPC   C13 1363   8.231   2.888   5.122
   28DPPC   O14 1364   8.146   2.947   5.022
   28DPPC   C15 1365   8.184   3.063   4.962
   28DPPC   O16 1366   8.300   3.102   4.977
   28DPPC   C17 1367   8.095   3.111   4.847
   28DPPC   C18 1368   7.955   3.150   4.895
   28DPPC   C19 1369   7.847   3.153   4.787
   28DPPC   C20 1370   7.879   3.251   4.675
   28DPPC   C21 1371   7.791   3.226   4.552
   28DPPC   C22 1372   7.825   3.333   4.449
   28DPPC   C23 1373   7.740   3.294   4.328
   28DPPC   C24 1374   7.734   3.414   4.234
   28DPPC   C25 1375   7.681   3.377   4.095
   28DPPC   C26 1376   7.731   3.486   4.000
   28DPPC   C27 1377   7.664   3.476   3.863
   28DPPC   C28 1378   7.683   3.606   3.784
   28DPPC   C29 1379   7.571   3.619   3.681
   28DPPC   C30 1380   7.594   3.740   3.590
   28DPPC   C31 1381   7.486   3.735   3.481
   28DPPC   C32 1382   8.330   2.783   5.071
   28DPPC   O33 1383   8.266   2.662   5.032
   28DPPC   C34 1384   8.339   2.555   4.988
   28DPPC   O35 1385   8.454   2.540   5.029
   28DPPC   C36 1386   8.260   2.438   4.928
   28DPPC   C37 1387   8.234   2.459   4.779
   28DPPC   C38 1388   8.127   2.564   4.748
   28DPPC   C39 1389   8.110   2.574   4.597
   28DPPC   C40 1390   8.020   2.692   4.559
   28DPPC   C41 1391   7.990   2.698   4.409
   28DPPC   C42 1392   7.920   2.832   4.385
   28DPPC   C43 1393   7.872   2.851   4.241
   28DPPC   C44 1394   7.943   2.970   4.177
   28DPPC   C45 1395   7.913   2.992   4.028
   28DPPC   C46 1396   7.966   3.126   3.975
   28DPPC   C47 1397   7.930   3.115   3.826
   28DPPC   C48 1398   7.961   3.251   3.764
   28DPPC   C49 1399   7.905   3.245   3.622
   28DPPC   C50 1400   7.943   3.362   3.531
   29DPPC    C1 1401   0.441   4.842   5.023
   29DPPC    C2 1402   0.378   4.753   4.823
   29DPPC    C3 1403   0.213   4.846   4.922
   29DPPC    N4 1404   0.357   4.872   4.907
   29DPPC    C5 1405   0.396   4.991   4.830
   29DPPC    C6 1406   0.374   5.124   4.902
   29DPPC    O7 1407   0.441   5.229   4.832
   29DPPC    P8 1408   0.389   5.373   4.883
   29DPPC    O9 1409   0.498   5.418   4.973
   29DPPC   O10 1410   0.259   5.342   4.946
   29DPPC   O11 1411   0.406   5.444   4.740
   29DPPC   C12 1412   0.317   5.392   4.641
   29DPPC   C13 1413   0.340   5.456   4.505
   29DPPC   O14 1414   0.237   5.418   4.412
   29DPPC   C15 1415   0.129   5.498   4.391
   29DPPC   O16 1416   0.107   5.598   4.459
   29DPPC   C17 1417   0.043   5.471   4.267
   29DPPC   C18 1418   0.120   5.510   4.141
   29DPPC   C19 1419   0.049   5.449   4.020
   29DPPC   C20 1420   0.147   5.434   3.903
   29DPPC   C21 1421   0.079   5.411   3.768
   29DPPC   C22 1422  -0.037   5.506   3.737
   29DPPC   C23 1423  -0.125   5.480   3.615
   29DPPC   C24 1424  -0.206   5.600   3.566
   29DPPC   C25 1425  -0.267   5.598   3.426
   29DPPC   C26 1426  -0.389   5.507   3.410
   29DPPC   C27 1427  -0.470   5.518   3.281
   29DPPC   C28 1428  -0.594   5.428   3.270
   29DPPC   C29 1429  -0.662   5.448   3.135
   29DPPC   C30 1430  -0.721   5.589   3.145
   29DPPC   C31 1431  -0.802   5.634   3.023
   29DPPC   C32 1432   0.484   5.421   4.467
   29DPPC   O33 1433   0.522   5.283   4.463
   29DPPC   C34 1434   0.649   5.262   4.421
   29DPPC   O35 1435   0.713   5.357   4.374
   29DPPC   C36 1436   0.702   5.120   4.441
   29DPPC   C37 1437   0.786   5.083   4.319
   29DPPC   C38 1438   0.871   4.957   4.330
   29DPPC   C39 1439   0.960   4.939   4.207
   29DPPC   C40 1440   0.887   4.929   4.073
   29DPPC   C41 1441   0.983   4.894   3.959
   29DPPC   C42 1442   0.914   4.918   3.824
   29DPPC   C43 1443   1.004   4.905   3.701
   29DPPC   C44 1444   0.931   4.942   3.572
   29DPPC   C45 1445   1.012   4.918   3.444
   29DPPC   C46 1446   0.941   4.991   3.330
   29DPPC   C47 1447   1.011   4.965   3.197
   29DPPC   C48 1448   0.964   5.055   3.083
   29DPPC   C49 1449   1.058   5.044   2.963
   29DPPC   C50 1450   1.012   5.125   2.842
   30DPPC    C1 1451   6.727   1.955   5.904
   30DPPC    C2 1452   6.911   1.933   5.744
   30DPPC    C3 1453   6.715   2.008   5.661
   30DPPC    N4 1454   6.793   2.010   5.785
   30DPPC    C5 1455   6.847   2.145   5.809
   30DPPC    C6 1456   6.750   2.246   5.870
   30DPPC    O7 1457   6.806   2.378   5.878
   30DPPC    P8 1458   6.708   2.477   5.797
   30DPPC    O9 1459   6.755   2.615   5.820
   30DPPC   O10 1460   6.565   2.448   5.820
   30DPPC   O11 1461   6.737   2.442   5.643
   30DPPC   C12 1462   6.692   2.557   5.571
   30DPPC   C13 1463   6.768   2.562   5.439
   30DPPC   O14 1464   6.723   2.658   5.342
   30DPPC   C15 1465   6.801   2.769   5.331
   30DPPC   O16 1466   6.879   2.806   5.419
   30DPPC   C17 1467   6.774   2.856   5.207
   30DPPC   C18 1468   6.716   2.996   5.230
   30DPPC   C19 1469   6.697   3.082   5.106
   30DPPC   C20 1470   6.831   3.139   5.058
   30DPPC   C21 1471   6.819   3.209   4.922
   30DPPC   C22 1472   6.949   3.283   4.889
   30DPPC   C23 1473   6.922   3.374   4.769
   30DPPC   C24 1474   6.798   3.463   4.784
   30DPPC   C25 1475   6.804   3.549   4.658
   30DPPC   C26 1476   6.872   3.681   4.695
   30DPPC   C27 1477   6.905   3.755   4.565
   30DPPC   C28 1478   6.783   3.787   4.479
   30DPPC   C29 1479   6.704   3.891   4.558
   30DPPC   C30 1480   6.553   3.868   4.544
   30DPPC   C31 1481   6.517   3.884   4.397
   30DPPC   C32 1482   6.762   2.424   5.372
   30DPPC   O33 1483   6.840   2.399   5.255
   30DPPC   C34 1484   6.864   2.271   5.215
   30DPPC   O35 1485   6.773   2.200   5.257
   30DPPC   C36 1486   6.987   2.239   5.130
   30DPPC   C37 1487   6.956   2.213   4.983
   30DPPC   C38 1488   6.932   2.337   4.895
   30DPPC   C39 1489   6.933   2.298   4.747
   30DPPC   C40 1490   6.911   2.425   4.665
   30DPPC   C41 1491   6.877   2.380   4.523
   30DPPC   C42 1492   6.768   2.476   4.474
   30DPPC   C43 1493   6.738   2.484   4.324
   30DPPC   C44 1494   6.620   2.578   4.301
   30DPPC   C45 1495   6.606   2.607   4.151
   30DPPC   C46 1496   6.479   2.685   4.120
   30DPPC   C47 1497   6.464   2.803   4.216
   30DPPC   C48 1498   6.350   2.897   4.177
   30DPPC   C49 1499   6.358   3.020   4.269
   30DPPC   C50 1500   6.249   3.113   4.217
   31DPPC    C1 1501   5.900   7.120   5.032
   31DPPC    C2 1502   6.034   7.116   4.834
   31DPPC    C3 1503   6.119   7.142   5.062
   31DPPC    N4 1504   6.026   7.070   4.974
   31DPPC    C5 1505   6.038   6.927   5.006
   31DPPC    C6 1506   5.974   6.822   4.916
   31DPPC    O7 1507   5.832   6.834   4.922
   31DPPC    P8 1508   5.750   6.756   5.036
   31DPPC    O9 1509   5.739   6.855   5.146
   31DPPC   O10 1510   5.833   6.637   5.066
   31DPPC   O11 1511   5.609   6.727   4.965
   31DPPC   C12 1512   5.638   6.660   4.842
   31DPPC   C13 1513   5.545   6.543   4.809
   31DPPC   O14 1514   5.584   6.460   4.698
   31DPPC   C15 1515   5.575   6.327   4.722
   31DPPC   O16 1516   5.604   6.293   4.837
   31DPPC   C17 1517   5.591   6.238   4.598
   31DPPC   C18 1518   5.455   6.210   4.535
   31DPPC   C19 1519   5.485   6.169   4.390
   31DPPC   C20 1520   5.365   6.162   4.296
   31DPPC   C21 1521   5.408   6.109   4.159
   31DPPC   C22 1522   5.278   6.077   4.085
   31DPPC   C23 1523   5.187   6.200   4.083
   31DPPC   C24 1524   5.076   6.175   3.982
   31DPPC   C25 1525   4.996   6.305   3.968
   31DPPC   C26 1526   4.923   6.296   3.834
   31DPPC   C27 1527   4.878   6.440   3.807
   31DPPC   C28 1528   4.773   6.475   3.913
   31DPPC   C29 1529   4.701   6.604   3.871
   31DPPC   C30 1530   4.585   6.627   3.967
   31DPPC   C31 1531   4.646   6.666   4.102
   31DPPC   C32 1532   5.405   6.604   4.808
   31DPPC   O33 1533   5.387   6.706   4.710
   31DPPC   C34 1534   5.277   6.786   4.714
   31DPPC   O35 1535   5.182   6.755   4.786
   31DPPC   C36 1536   5.285   6.905   4.619
   31DPPC   C37 1537   5.248   6.869   4.475
   31DPPC   C38 1538   5.264   6.995   4.390
   31DPPC   C39 1539   5.227   6.947   4.249
   31DPPC   C40 1540   5.248   7.050   4.138
   31DPPC   C41 1541   5.373   7.132   4.168
   31DPPC   C42 1542   5.395   7.236   4.058
   31DPPC   C43 1543   5.535   7.299   4.054
   31DPPC   C44 1544   5.565   7.398   4.166
   31DPPC   C45 1545   5.467   7.514   4.143
   31DPPC   C46 1546   5.488   7.614   4.257
   31DPPC   C47 1547   5.436   7.560   4.390
   31DPPC   C48 1548   5.291   7.513   4.379
   31DPPC   C49 1549   5.222   7.529   4.514
   31DPPC   C50 1550   5.090   7.451   4.519
   32DPPC    C1 1551   1.036   7.638   4.577
   32DPPC    C2 1552   0.919   7.843   4.559
   32DPPC    C3 1553   0.904   7.664   4.392
   32DPPC    N4 1554   0.909   7.698   4.535
   32DPPC    C5 1555   0.805   7.628   4.612
   32DPPC    C6 1556   0.673   7.699   4.640
   32DPPC    O7 1557   0.599   7.724   4.520
   32DPPC    P8 1558   0.487   7.838   4.541
   32DPPC    O9 1559   0.557   7.968   4.549
   32DPPC   O10 1560   0.385   7.798   4.640
   32DPPC   O11 1561   0.426   7.816   4.393
   32DPPC   C12 1562   0.522   7.855   4.296
   32DPPC   C13 1563   0.488   7.797   4.158
   32DPPC   O14 1564   0.585   7.815   4.053
   32DPPC   C15 1565   0.562   7.732   3.949
   32DPPC   O16 1566   0.507   7.625   3.974
   32DPPC   C17 1567   0.628   7.761   3.814
   32DPPC   C18 1568   0.741   7.663   3.785
   32DPPC   C19 1569   0.822   7.693   3.659
   32DPPC   C20 1570   0.972   7.700   3.687
   32DPPC   C21 1571   1.060   7.714   3.563
   32DPPC   C22 1572   1.038   7.596   3.468
   32DPPC   C23 1573   1.132   7.595   3.348
   32DPPC   C24 1574   1.104   7.488   3.242
   32DPPC   C25 1575   1.109   7.355   3.318
   32DPPC   C26 1576   1.084   7.246   3.214
   32DPPC   C27 1577   0.943   7.265   3.157
   32DPPC   C28 1578   0.905   7.150   3.063
   32DPPC   C29 1579   0.895   7.019   3.142
   32DPPC   C30 1580   0.763   7.014   3.219
   32DPPC   C31 1581   0.754   6.868   3.266
   32DPPC   C32 1582   0.347   7.845   4.123
   32DPPC   O33 1583   0.339   7.983   4.087
   32DPPC   C34 1584   0.212   8.025   4.062
   32DPPC   O35 1585   0.118   7.946   4.051
   32DPPC   C36 1586   0.192   8.176   4.045
   32DPPC   C37 1587   0.088   8.220   3.942
   32DPPC   C38 1588   0.101   8.369   3.912
   32DPPC   C39 1589  -0.022   8.402   3.827
   32DPPC   C40 1590  -0.015   8.546   3.774
   32DPPC   C41 1591  -0.071   8.560   3.632
   32DPPC   C42 1592  -0.076   8.704   3.583
   32DPPC   C43 1593  -0.095   8.715   3.431
   32DPPC   C44 1594  -0.230   8.666   3.380
   32DPPC   C45 1595  -0.220   8.683   3.229
   32DPPC   C46 1596  -0.350   8.656   3.152
   32DPPC   C47 1597  -0.328   8.671   3.001
   32DPPC   C48 1598  -0.453   8.631   2.921
   32DPPC   C49 1599  -0.435   8.612   2.771
   32DPPC   C50 1600  -0.325   8.506   2.759
   33DPPC    C1 1601   2.249   2.386   5.092
   33DPPC    C2 1602   2.130   2.574   5.049
   33DPPC    C3 1603   2.246   2.481   4.866
   33DPPC    N4 1604   2.168   2.447   4.986
   33DPPC    C5 1605   2.058   2.365   4.932
   33DPPC    C6 1606   1.945   2.317   5.023
   33DPPC    O7 1607   1.830   2.257   4.963
   33DPPC    P8 1608   1.706   2.356   4.935
   33DPPC    O9 1609   1.730   2.461   5.036
   33DPPC   O10 1610   1.588   2.267   4.932
   33DPPC   O11 1611   1.748   2.411   4.790
   33DPPC   C12 1612   1.704   2.323   4.686
   33DPPC   C13 1613   1.716   2.388   4.548
   33DPPC   O14 1614   1.641   2.317   4.447
   33DPPC   C15 1615   1.518   2.372   4.427
   33DPPC   O16 1616   1.495   2.478   4.484
   33DPPC   C17 1617   1.441   2.326   4.303
   33DPPC   C18 1618   1.363   2.437   4.231
   33DPPC   C19 1619   1.305   2.408   4.093
   33DPPC   C20 1620   1.224   2.527   4.042
   33DPPC   C21 1621   1.140   2.493   3.918
   33DPPC   C22 1622   1.039   2.380   3.938
   33DPPC   C23 1623   0.966   2.370   3.804
   33DPPC   C24 1624   1.061   2.325   3.693
   33DPPC   C25 1625   0.976   2.325   3.566
   33DPPC   C26 1626   1.049   2.239   3.463
   33DPPC   C27 1627   1.193   2.288   3.483
   33DPPC   C28 1628   1.285   2.216   3.384
   33DPPC   C29 1629   1.436   2.225   3.404
   33DPPC   C30 1630   1.508   2.141   3.297
   33DPPC   C31 1631   1.593   2.218   3.195
   33DPPC   C32 1632   1.867   2.397   4.526
   33DPPC   O33 1633   1.946   2.278   4.538
   33DPPC   C34 1634   2.081   2.292   4.529
   33DPPC   O35 1635   2.129   2.404   4.547
   33DPPC   C36 1636   2.178   2.185   4.479
   33DPPC   C37 1637   2.106   2.060   4.427
   33DPPC   C38 1638   2.087   2.068   4.275
   33DPPC   C39 1639   2.037   1.934   4.220
   33DPPC   C40 1640   2.032   1.937   4.068
   33DPPC   C41 1641   2.016   1.797   4.008
   33DPPC   C42 1642   2.009   1.814   3.856
   33DPPC   C43 1643   2.136   1.889   3.814
   33DPPC   C44 1644   2.152   1.888   3.661
   33DPPC   C45 1645   2.071   2.010   3.617
   33DPPC   C46 1646   2.105   2.047   3.472
   33DPPC   C47 1647   2.030   2.168   3.415
   33DPPC   C48 1648   2.081   2.206   3.276
   33DPPC   C49 1649   1.983   2.314   3.229
   33DPPC   C50 1650   1.999   2.338   3.078
   34DPPC    C1 1651   2.880   4.421   5.274
   34DPPC    C2 1652   2.802   4.554   5.112
   34DPPC    C3 1653   2.814   4.663   5.324
   34DPPC    N4 1654   2.879   4.563   5.237
   34DPPC    C5 1655   3.012   4.616   5.205
   34DPPC    C6 1656   3.114   4.601   5.318
   34DPPC    O7 1657   3.220   4.693   5.293
   34DPPC    P8 1658   3.323   4.684   5.416
   34DPPC    O9 1659   3.246   4.681   5.543
   34DPPC   O10 1660   3.455   4.750   5.407
   34DPPC   O11 1661   3.347   4.526   5.396
   34DPPC   C12 1662   3.449   4.500   5.298
   34DPPC   C13 1663   3.513   4.362   5.301
   34DPPC   O14 1664   3.608   4.324   5.200
   34DPPC   C15 1665   3.732   4.378   5.206
   34DPPC   O16 1666   3.760   4.473   5.279
   34DPPC   C17 1667   3.843   4.326   5.114
   34DPPC   C18 1668   3.880   4.401   4.985
   34DPPC   C19 1669   3.762   4.418   4.890
   34DPPC   C20 1670   3.788   4.506   4.768
   34DPPC   C21 1671   3.659   4.547   4.697
   34DPPC   C22 1672   3.687   4.613   4.563
   34DPPC   C23 1673   3.739   4.516   4.457
   34DPPC   C24 1674   3.782   4.599   4.336
   34DPPC   C25 1675   3.830   4.509   4.221
   34DPPC   C26 1676   3.966   4.552   4.167
   34DPPC   C27 1677   4.036   4.439   4.091
   34DPPC   C28 1678   4.169   4.494   4.039
   34DPPC   C29 1679   4.242   4.403   3.940
   34DPPC   C30 1680   4.390   4.435   3.913
   34DPPC   C31 1681   4.401   4.574   3.849
   34DPPC   C32 1682   3.395   4.267   5.327
   34DPPC   O33 1683   3.290   4.266   5.229
   34DPPC   C34 1684   3.199   4.166   5.233
   34DPPC   O35 1685   3.165   4.137   5.348
   34DPPC   C36 1686   3.120   4.148   5.103
   34DPPC   C37 1687   3.121   4.001   5.060
   34DPPC   C38 1688   3.061   4.005   4.919
   34DPPC   C39 1689   3.166   4.055   4.820
   34DPPC   C40 1690   3.110   4.045   4.678
   34DPPC   C41 1691   3.194   3.957   4.586
   34DPPC   C42 1692   3.105   3.918   4.468
   34DPPC   C43 1693   3.202   3.867   4.361
   34DPPC   C44 1694   3.144   3.851   4.220
   34DPPC   C45 1695   3.255   3.785   4.139
   34DPPC   C46 1696   3.210   3.778   3.992
   34DPPC   C47 1697   3.227   3.915   3.927
   34DPPC   C48 1698   3.194   3.908   3.778
   34DPPC   C49 1699   3.241   4.040   3.716
   34DPPC   C50 1700   3.231   4.033   3.563
   35DPPC    C1 1701   1.400   2.737   1.227
   35DPPC    C2 1702   1.301   2.940   1.313
   35DPPC    C3 1703   1.364   2.758   1.459
   35DPPC    N4 1704   1.399   2.833   1.338
   35DPPC    C5 1705   1.534   2.890   1.350
   35DPPC    C6 1706   1.592   2.967   1.231
   35DPPC    O7 1707   1.709   3.041   1.266
   35DPPC    P8 1708   1.709   3.175   1.178
   35DPPC    O9 1709   1.629   3.159   1.055
   35DPPC   O10 1710   1.824   3.268   1.188
   35DPPC   O11 1711   1.587   3.237   1.263
   35DPPC   C12 1712   1.642   3.300   1.380
   35DPPC   C13 1713   1.517   3.362   1.442
   35DPPC   O14 1714   1.548   3.478   1.521
   35DPPC   C15 1715   1.615   3.583   1.467
   35DPPC   O16 1716   1.597   3.602   1.347
   35DPPC   C17 1717   1.668   3.687   1.567
   35DPPC   C18 1718   1.556   3.727   1.663
   35DPPC   C19 1719   1.619   3.755   1.800
   35DPPC   C20 1720   1.520   3.804   1.906
   35DPPC   C21 1721   1.599   3.817   2.036
   35DPPC   C22 1722   1.504   3.842   2.154
   35DPPC   C23 1723   1.587   3.870   2.280
   35DPPC   C24 1724   1.490   3.935   2.379
   35DPPC   C25 1725   1.567   4.033   2.468
   35DPPC   C26 1726   1.469   4.122   2.545
   35DPPC   C27 1727   1.409   4.035   2.656
   35DPPC   C28 1728   1.315   4.116   2.746
   35DPPC   C29 1729   1.277   4.028   2.865
   35DPPC   C30 1730   1.206   4.115   2.969
   35DPPC   C31 1731   1.294   4.236   3.000
   35DPPC   C32 1732   1.434   3.261   1.522
   35DPPC   O33 1733   1.514   3.161   1.586
   35DPPC   C34 1734   1.442   3.064   1.647
   35DPPC   O35 1735   1.330   3.034   1.604
   35DPPC   C36 1736   1.515   2.971   1.744
   35DPPC   C37 1737   1.619   3.042   1.831
   35DPPC   C38 1738   1.548   3.147   1.916
   35DPPC   C39 1739   1.651   3.200   2.016
   35DPPC   C40 1740   1.584   3.309   2.101
   35DPPC   C41 1741   1.621   3.315   2.249
   35DPPC   C42 1742   1.530   3.426   2.303
   35DPPC   C43 1743   1.524   3.423   2.455
   35DPPC   C44 1744   1.430   3.523   2.522
   35DPPC   C45 1745   1.431   3.515   2.675
   35DPPC   C46 1746   1.345   3.638   2.707
   35DPPC   C47 1747   1.200   3.595   2.684
   35DPPC   C48 1748   1.106   3.715   2.669
   35DPPC   C49 1749   0.964   3.658   2.664
   35DPPC   C50 1750   0.909   3.609   2.798
   36DPPC    C1 1751   6.076   6.420   1.582
   36DPPC    C2 1752   6.237   6.421   1.742
   36DPPC    C3 1753   6.253   6.583   1.558
   36DPPC    N4 1754   6.165   6.513   1.653
   36DPPC    C5 1755   6.088   6.605   1.739
   36DPPC    C6 1756   6.006   6.721   1.681
   36DPPC    O7 1757   6.079   6.828   1.621
   36DPPC    P8 1758   5.967   6.941   1.596
   36DPPC    O9 1759   5.841   6.869   1.566
   36DPPC   O10 1760   6.024   7.038   1.500
   36DPPC   O11 1761   5.957   6.999   1.746
   36DPPC   C12 1762   6.088   7.020   1.800
   36DPPC   C13 1763   6.103   7.093   1.934
   36DPPC   O14 1764   6.233   7.066   1.988
   36DPPC   C15 1765   6.326   7.163   1.966
   36DPPC   O16 1766   6.323   7.243   1.872
   36DPPC   C17 1767   6.460   7.159   2.039
   36DPPC   C18 1768   6.420   7.153   2.187
   36DPPC   C19 1769   6.545   7.145   2.274
   36DPPC   C20 1770   6.518   7.158   2.424
   36DPPC   C21 1771   6.634   7.155   2.524
   36DPPC   C22 1772   6.582   7.171   2.667
   36DPPC   C23 1773   6.701   7.159   2.761
   36DPPC   C24 1774   6.674   7.216   2.900
   36DPPC   C25 1775   6.798   7.280   2.963
   36DPPC   C26 1776   6.759   7.343   3.097
   36DPPC   C27 1777   6.685   7.240   3.184
   36DPPC   C28 1778   6.617   7.291   3.311
   36DPPC   C29 1779   6.709   7.355   3.415
   36DPPC   C30 1780   6.637   7.400   3.542
   36DPPC   C31 1781   6.749   7.452   3.632
   36DPPC   C32 1782   5.984   7.038   2.012
   36DPPC   O33 1783   5.940   7.119   2.121
   36DPPC   C34 1784   5.861   7.068   2.219
   36DPPC   O35 1785   5.795   6.968   2.191
   36DPPC   C36 1786   5.840   7.146   2.349
   36DPPC   C37 1787   5.961   7.126   2.441
   36DPPC   C38 1788   5.944   7.174   2.585
   36DPPC   C39 1789   5.830   7.096   2.649
   36DPPC   C40 1790   5.881   7.075   2.792
   36DPPC   C41 1791   5.765   7.024   2.877
   36DPPC   C42 1792   5.785   7.022   3.029
   36DPPC   C43 1793   5.697   6.916   3.097
   36DPPC   C44 1794   5.732   6.908   3.246
   36DPPC   C45 1795   5.621   6.846   3.331
   36DPPC   C46 1796   5.679   6.809   3.467
   36DPPC   C47 1797   5.579   6.862   3.571
   36DPPC   C48 1798   5.591   6.780   3.700
   36DPPC   C49 1799   5.508   6.851   3.807
   36DPPC   C50 1800   5.548   6.781   3.936
   37DPPC    C1 1801   8.394   3.078   1.458
   37DPPC    C2 1802   8.473   3.066   1.239
   37DPPC    C3 1803   8.282   3.196   1.268
   37DPPC    N4 1804   8.407   3.156   1.334
   37DPPC    C5 1805   8.501   3.267   1.352
   37DPPC    C6 1806   8.450   3.376   1.446
   37DPPC    O7 1807   8.544   3.484   1.452
   37DPPC    P8 1808   8.471   3.610   1.520
   37DPPC    O9 1809   8.366   3.549   1.604
   37DPPC   O10 1810   8.438   3.676   1.391
   37DPPC   O11 1811   8.599   3.677   1.591
   37DPPC   C12 1812   8.621   3.600   1.709
   37DPPC   C13 1813   8.685   3.675   1.826
   37DPPC   O14 1814   8.742   3.593   1.929
   37DPPC   C15 1815   8.850   3.513   1.906
   37DPPC   O16 1816   8.906   3.517   1.796
   37DPPC   C17 1817   8.901   3.424   2.019
   37DPPC   C18 1818   9.002   3.316   1.980
   37DPPC   C19 1819   9.035   3.239   2.109
   37DPPC   C20 1820   9.113   3.116   2.064
   37DPPC   C21 1821   9.137   3.010   2.172
   37DPPC   C22 1822   9.242   2.913   2.119
   37DPPC   C23 1823   9.270   2.820   2.237
   37DPPC   C24 1824   9.337   2.880   2.361
   37DPPC   C25 1825   9.481   2.923   2.336
   37DPPC   C26 1826   9.553   2.957   2.466
   37DPPC   C27 1827   9.598   2.840   2.553
   37DPPC   C28 1828   9.629   2.890   2.694
   37DPPC   C29 1829   9.646   2.773   2.791
   37DPPC   C30 1830   9.709   2.792   2.930
   37DPPC   C31 1831   9.617   2.877   3.017
   37DPPC   C32 1832   8.578   3.777   1.866
   37DPPC   O33 1833   8.456   3.711   1.900
   37DPPC   C34 1834   8.349   3.765   1.837
   37DPPC   O35 1835   8.356   3.836   1.736
   37DPPC   C36 1836   8.208   3.723   1.879
   37DPPC   C37 1837   8.199   3.720   2.031
   37DPPC   C38 1838   8.250   3.847   2.101
   37DPPC   C39 1839   8.192   3.876   2.239
   37DPPC   C40 1840   8.236   3.766   2.335
   37DPPC   C41 1841   8.148   3.769   2.460
   37DPPC   C42 1842   8.237   3.698   2.564
   37DPPC   C43 1843   8.190   3.715   2.709
   37DPPC   C44 1844   8.308   3.661   2.790
   37DPPC   C45 1845   8.288   3.699   2.937
   37DPPC   C46 1846   8.405   3.642   3.017
   37DPPC   C47 1847   8.406   3.680   3.165
   37DPPC   C48 1848   8.516   3.607   3.242
   37DPPC   C49 1849   8.624   3.711   3.271
   37DPPC   C50 1850   8.748   3.635   3.319
   38DPPC    C1 1851   3.353   4.314   1.280
   38DPPC    C2 1852   3.349   4.548   1.220
   38DPPC    C3 1853   3.169   4.415   1.154
   38DPPC    N4 1854   3.268   4.432   1.261
   38DPPC    C5 1855   3.190   4.475   1.378
   38DPPC    C6 1856   3.097   4.379   1.453
   38DPPC    O7 1857   3.169   4.275   1.520
   38DPPC    P8 1858   3.066   4.161   1.567
   38DPPC    O9 1859   3.135   4.060   1.650
   38DPPC   O10 1860   2.999   4.124   1.440
   38DPPC   O11 1861   2.968   4.255   1.654
   38DPPC   C12 1862   3.007   4.263   1.792
   38DPPC   C13 1863   3.105   4.377   1.816
   38DPPC   O14 1864   3.182   4.350   1.934
   38DPPC   C15 1865   3.273   4.433   1.990
   38DPPC   O16 1866   3.332   4.520   1.925
   38DPPC   C17 1867   3.317   4.383   2.128
   38DPPC   C18 1868   3.314   4.499   2.228
   38DPPC   C19 1869   3.376   4.455   2.360
   38DPPC   C20 1870   3.371   4.576   2.454
   38DPPC   C21 1871   3.434   4.533   2.586
   38DPPC   C22 1872   3.356   4.429   2.667
   38DPPC   C23 1873   3.415   4.375   2.797
   38DPPC   C24 1874   3.460   4.493   2.884
   38DPPC   C25 1875   3.343   4.585   2.919
   38DPPC   C26 1876   3.406   4.691   3.011
   38DPPC   C27 1877   3.301   4.798   3.040
   38DPPC   C28 1878   3.356   4.911   3.128
   38DPPC   C29 1879   3.258   5.028   3.131
   38DPPC   C30 1880   3.307   5.129   3.235
   38DPPC   C31 1881   3.192   5.225   3.266
   38DPPC   C32 1882   3.031   4.511   1.806
   38DPPC   O33 1883   2.920   4.520   1.895
   38DPPC   C34 1884   2.860   4.642   1.904
   38DPPC   O35 1885   2.907   4.751   1.871
   38DPPC   C36 1886   2.736   4.633   1.994
   38DPPC   C37 1887   2.751   4.606   2.144
   38DPPC   C38 1888   2.655   4.496   2.188
   38DPPC   C39 1889   2.707   4.433   2.317
   38DPPC   C40 1890   2.600   4.335   2.368
   38DPPC   C41 1891   2.649   4.242   2.479
   38DPPC   C42 1892   2.712   4.311   2.600
   38DPPC   C43 1893   2.728   4.219   2.721
   38DPPC   C44 1894   2.792   4.309   2.827
   38DPPC   C45 1895   2.945   4.317   2.818
   38DPPC   C46 1896   2.996   4.411   2.927
   38DPPC   C47 1897   2.962   4.358   3.067
   38DPPC   C48 1898   3.028   4.448   3.172
   38DPPC   C49 1899   2.962   4.586   3.162
   38DPPC   C50 1900   2.994   4.679   3.279
   39DPPC    C1 1901   4.153   8.049   1.793
   39DPPC    C2 1902   4.234   8.067   1.561
   39DPPC    C3 1903   4.190   7.855   1.677
   39DPPC    N4 1904   4.148   7.994   1.656
   39DPPC    C5 1905   4.015   7.996   1.596
   39DPPC    C6 1906   3.923   8.117   1.613
   39DPPC    O7 1907   3.794   8.097   1.554
   39DPPC    P8 1908   3.675   8.175   1.629
   39DPPC    O9 1909   3.562   8.190   1.535
   39DPPC   O10 1910   3.722   8.304   1.686
   39DPPC   O11 1911   3.635   8.062   1.737
   39DPPC   C12 1912   3.493   8.057   1.750
   39DPPC   C13 1913   3.438   8.001   1.882
   39DPPC   O14 1914   3.296   8.010   1.898
   39DPPC   C15 1915   3.233   7.891   1.911
   39DPPC   O16 1916   3.276   7.799   1.841
   39DPPC   C17 1917   3.090   7.903   1.963
   39DPPC   C18 1918   3.045   7.768   2.020
   39DPPC   C19 1919   2.894   7.768   2.047
   39DPPC   C20 1920   2.833   7.638   2.100
   39DPPC   C21 1921   2.700   7.665   2.171
   39DPPC   C22 1922   2.659   7.535   2.240
   39DPPC   C23 1923   2.516   7.555   2.292
   39DPPC   C24 1924   2.423   7.595   2.177
   39DPPC   C25 1925   2.287   7.635   2.234
   39DPPC   C26 1926   2.224   7.524   2.318
   39DPPC   C27 1927   2.078   7.507   2.275
   39DPPC   C28 1928   1.997   7.386   2.323
   39DPPC   C29 1929   1.851   7.401   2.278
   39DPPC   C30 1930   1.831   7.412   2.127
   39DPPC   C31 1931   1.684   7.400   2.086
   39DPPC   C32 1932   3.533   8.067   1.983
   39DPPC   O33 1933   3.524   8.209   1.995
   39DPPC   C34 1934   3.585   8.255   2.107
   39DPPC   O35 1935   3.673   8.192   2.165
   39DPPC   C36 1936   3.553   8.393   2.165
   39DPPC   C37 1937   3.426   8.399   2.250
   39DPPC   C38 1938   3.452   8.323   2.381
   39DPPC   C39 1939   3.325   8.316   2.466
   39DPPC   C40 1940   3.330   8.273   2.613
   39DPPC   C41 1941   3.203   8.303   2.693
   39DPPC   C42 1942   3.184   8.227   2.825
   39DPPC   C43 1943   3.048   8.267   2.883
   39DPPC   C44 1944   3.053   8.235   3.032
   39DPPC   C45 1945   2.930   8.299   3.097
   39DPPC   C46 1946   2.884   8.225   3.223
   39DPPC   C47 1947   2.759   8.292   3.281
   39DPPC   C48 1948   2.701   8.210   3.397
   39DPPC   C49 1949   2.776   8.235   3.528
   39DPPC   C50 1950   2.733   8.143   3.643
   40DPPC    C1 1951   3.084   7.210   1.978
   40DPPC    C2 1952   3.203   7.116   1.810
   40DPPC    C3 1953   3.175   6.996   2.021
   40DPPC    N4 1954   3.110   7.079   1.919
   40DPPC    C5 1955   2.987   7.018   1.868
   40DPPC    C6 1956   2.978   6.920   1.750
   40DPPC    O7 1957   3.062   6.806   1.770
   40DPPC    P8 1958   3.036   6.688   1.664
   40DPPC    O9 1959   3.150   6.595   1.678
   40DPPC   O10 1960   2.977   6.717   1.532
   40DPPC   O11 1961   2.918   6.637   1.762
   40DPPC   C12 1962   2.983   6.548   1.854
   40DPPC   C13 1963   2.898   6.516   1.977
   40DPPC   O14 1964   2.792   6.428   1.937
   40DPPC   C15 1965   2.817   6.295   1.919
   40DPPC   O16 1966   2.926   6.238   1.909
   40DPPC   C17 1967   2.685   6.219   1.914
   40DPPC   C18 1968   2.621   6.218   2.053
   40DPPC   C19 1969   2.486   6.147   2.050
   40DPPC   C20 1970   2.439   6.128   2.194
   40DPPC   C21 1971   2.428   6.253   2.282
   40DPPC   C22 1972   2.381   6.212   2.422
   40DPPC   C23 1973   2.380   6.326   2.524
   40DPPC   C24 1974   2.321   6.277   2.656
   40DPPC   C25 1975   2.313   6.397   2.751
   40DPPC   C26 1976   2.206   6.491   2.695
   40DPPC   C27 1977   2.163   6.570   2.819
   40DPPC   C28 1978   2.090   6.484   2.921
   40DPPC   C29 1979   2.142   6.478   3.065
   40DPPC   C30 1980   2.085   6.379   3.166
   40DPPC   C31 1981   2.109   6.418   3.312
   40DPPC   C32 1982   2.850   6.647   2.039
   40DPPC   O33 1983   2.923   6.676   2.159
   40DPPC   C34 1984   2.909   6.806   2.197
   40DPPC   O35 1985   2.877   6.900   2.125
   40DPPC   C36 1986   2.954   6.837   2.340
   40DPPC   C37 1987   2.914   6.977   2.388
   40DPPC   C38 1988   2.948   6.989   2.537
   40DPPC   C39 1989   2.817   7.015   2.612
   40DPPC   C40 1990   2.840   7.030   2.763
   40DPPC   C41 1991   2.694   7.060   2.798
   40DPPC   C42 1992   2.681   7.117   2.940
   40DPPC   C43 1993   2.753   7.021   3.035
   40DPPC   C44 1994   2.747   7.084   3.174
   40DPPC   C45 1995   2.603   7.125   3.208
   40DPPC   C46 1996   2.587   7.175   3.352
   40DPPC   C47 1997   2.451   7.242   3.369
   40DPPC   C48 1998   2.443   7.315   3.504
   40DPPC   C49 1999   2.307   7.379   3.532
   40DPPC   C50 2000   2.267   7.495   3.441
   41DPPC    C1 2001   3.040   5.775   1.651
   41DPPC    C2 2002   2.931   5.968   1.680
   41DPPC    C3 2003   3.159   5.968   1.604
   41DPPC    N4 2004   3.027   5.907   1.587
   41DPPC    C5 2005   2.996   5.895   1.443
   41DPPC    C6 2006   2.894   5.800   1.381
   41DPPC    O7 2007   2.756   5.823   1.412
   41DPPC    P8 2008   2.661   5.750   1.304
   41DPPC    O9 2009   2.743   5.728   1.183
   41DPPC   O10 2010   2.538   5.831   1.301
   41DPPC   O11 2011   2.635   5.607   1.374
   41DPPC   C12 2012   2.542   5.606   1.483
   41DPPC   C13 2013   2.472   5.473   1.510
   41DPPC   O14 2014   2.346   5.472   1.579
   41DPPC   C15 2015   2.227   5.525   1.539
   41DPPC   O16 2016   2.233   5.595   1.438
   41DPPC   C17 2017   2.122   5.535   1.650
   41DPPC   C18 2018   2.115   5.395   1.711
   41DPPC   C19 2019   2.005   5.386   1.816
   41DPPC   C20 2020   1.992   5.257   1.897
   41DPPC   C21 2021   1.857   5.271   1.967
   41DPPC   C22 2022   1.811   5.137   2.025
   41DPPC   C23 2023   1.686   5.169   2.108
   41DPPC   C24 2024   1.616   5.048   2.170
   41DPPC   C25 2025   1.504   5.084   2.268
   41DPPC   C26 2026   1.453   4.951   2.325
   41DPPC   C27 2027   1.362   4.993   2.440
   41DPPC   C28 2028   1.457   5.066   2.535
   41DPPC   C29 2029   1.385   5.101   2.665
   41DPPC   C30 2030   1.484   5.126   2.778
   41DPPC   C31 2031   1.414   5.129   2.914
   41DPPC   C32 2032   2.579   5.390   1.582
   41DPPC   O33 2033   2.657   5.471   1.671
   41DPPC   C34 2034   2.762   5.405   1.725
   41DPPC   O35 2035   2.805   5.293   1.698
   41DPPC   C36 2036   2.833   5.478   1.839
   41DPPC   C37 2037   2.815   5.382   1.957
   41DPPC   C38 2038   2.883   5.435   2.084
   41DPPC   C39 2039   2.862   5.350   2.210
   41DPPC   C40 2040   2.965   5.381   2.319
   41DPPC   C41 2041   2.917   5.285   2.429
   41DPPC   C42 2042   3.005   5.289   2.554
   41DPPC   C43 2043   3.129   5.201   2.542
   41DPPC   C44 2044   3.212   5.225   2.669
   41DPPC   C45 2045   3.324   5.121   2.667
   41DPPC   C46 2046   3.411   5.131   2.541
   41DPPC   C47 2047   3.512   5.016   2.546
   41DPPC   C48 2048   3.634   5.059   2.465
   41DPPC   C49 2049   3.715   5.173   2.528
   41DPPC   C50 2050   3.836   5.195   2.436
   42DPPC    C1 2051   1.883   4.514   1.674
   42DPPC    C2 2052   2.024   4.543   1.472
   42DPPC    C3 2053   2.025   4.346   1.592
   42DPPC    N4 2054   1.936   4.455   1.550
   42DPPC    C5 2055   1.831   4.399   1.463
   42DPPC    C6 2056   1.716   4.493   1.427
   42DPPC    O7 2057   1.744   4.594   1.329
   42DPPC    P8 2058   1.609   4.679   1.311
   42DPPC    O9 2059   1.492   4.590   1.295
   42DPPC   O10 2060   1.643   4.778   1.207
   42DPPC   O11 2061   1.622   4.745   1.458
   42DPPC   C12 2062   1.693   4.869   1.450
   42DPPC   C13 2063   1.732   4.920   1.588
   42DPPC   O14 2064   1.843   4.860   1.657
   42DPPC   C15 2065   1.970   4.891   1.622
   42DPPC   O16 2066   1.999   4.939   1.512
   42DPPC   C17 2067   2.074   4.854   1.728
   42DPPC   C18 2068   2.035   4.884   1.873
   42DPPC   C19 2069   1.948   4.770   1.925
   42DPPC   C20 2070   1.948   4.755   2.078
   42DPPC   C21 2071   1.876   4.623   2.106
   42DPPC   C22 2072   1.878   4.620   2.258
   42DPPC   C23 2073   1.827   4.492   2.323
   42DPPC   C24 2074   1.807   4.527   2.471
   42DPPC   C25 2075   1.763   4.403   2.548
   42DPPC   C26 2076   1.760   4.434   2.698
   42DPPC   C27 2077   1.718   4.321   2.793
   42DPPC   C28 2078   1.709   4.367   2.938
   42DPPC   C29 2079   1.846   4.417   2.985
   42DPPC   C30 2080   1.845   4.462   3.131
   42DPPC   C31 2081   1.789   4.604   3.131
   42DPPC   C32 2082   1.605   4.937   1.672
   42DPPC   O33 2083   1.538   5.061   1.647
   42DPPC   C34 2084   1.438   5.073   1.738
   42DPPC   O35 2085   1.389   4.974   1.792
   42DPPC   C36 2086   1.378   5.211   1.765
   42DPPC   C37 2087   1.318   5.225   1.905
   42DPPC   C38 2088   1.293   5.370   1.947
   42DPPC   C39 2089   1.166   5.423   1.879
   42DPPC   C40 2090   1.118   5.541   1.963
   42DPPC   C41 2091   0.982   5.506   2.025
   42DPPC   C42 2092   0.968   5.597   2.147
   42DPPC   C43 2093   0.856   5.557   2.244
   42DPPC   C44 2094   0.866   5.644   2.370
   42DPPC   C45 2095   0.783   5.576   2.480
   42DPPC   C46 2096   0.773   5.651   2.613
   42DPPC   C47 2097   0.663   5.592   2.701
   42DPPC   C48 2098   0.666   5.673   2.831
   42DPPC   C49 2099   0.550   5.657   2.929
   42DPPC   C50 2100   0.573   5.737   3.057
   43DPPC    C1 2101   1.620   6.525   1.473
   43DPPC    C2 2102   1.397   6.602   1.464
   43DPPC    C3 2103   1.580   6.726   1.566
   43DPPC    N4 2104   1.537   6.644   1.452
   43DPPC    C5 2105   1.591   6.702   1.328
   43DPPC    C6 2106   1.504   6.810   1.263
   43DPPC    O7 2107   1.474   6.914   1.356
   43DPPC    P8 2108   1.341   6.990   1.308
   43DPPC    O9 2109   1.280   6.932   1.186
   43DPPC   O10 2110   1.365   7.136   1.313
   43DPPC   O11 2111   1.260   6.939   1.437
   43DPPC   C12 2112   1.156   7.026   1.483
   43DPPC   C13 2113   1.085   6.968   1.605
   43DPPC   O14 2114   1.029   7.067   1.695
   43DPPC   C15 2115   0.895   7.064   1.714
   43DPPC   O16 2116   0.823   7.027   1.622
   43DPPC   C17 2117   0.852   7.150   1.833
   43DPPC   C18 2118   0.903   7.294   1.823
   43DPPC   C19 2119   0.847   7.373   1.941
   43DPPC   C20 2120   0.927   7.502   1.953
   43DPPC   C21 2121   0.855   7.592   2.053
   43DPPC   C22 2122   0.836   7.515   2.184
   43DPPC   C23 2123   0.755   7.593   2.287
   43DPPC   C24 2124   0.772   7.517   2.418
   43DPPC   C25 2125   0.918   7.511   2.463
   43DPPC   C26 2126   0.906   7.459   2.607
   43DPPC   C27 2127   1.034   7.400   2.666
   43DPPC   C28 2128   1.140   7.497   2.720
   43DPPC   C29 2129   1.251   7.427   2.799
   43DPPC   C30 2130   1.359   7.526   2.843
   43DPPC   C31 2131   1.461   7.463   2.938
   43DPPC   C32 2132   1.188   6.880   1.675
   43DPPC   O33 2133   1.159   6.787   1.780
   43DPPC   C34 2134   1.253   6.719   1.850
   43DPPC   O35 2135   1.356   6.676   1.797
   43DPPC   C36 2136   1.205   6.639   1.971
   43DPPC   C37 2137   1.207   6.720   2.101
   43DPPC   C38 2138   1.124   6.633   2.196
   43DPPC   C39 2139   1.073   6.720   2.311
   43DPPC   C40 2140   0.990   6.834   2.251
   43DPPC   C41 2141   0.919   6.921   2.354
   43DPPC   C42 2142   0.802   6.995   2.289
   43DPPC   C43 2143   0.706   7.058   2.390
   43DPPC   C44 2144   0.660   6.973   2.508
   43DPPC   C45 2145   0.575   7.071   2.589
   43DPPC   C46 2146   0.643   7.144   2.705
   43DPPC   C47 2147   0.540   7.215   2.793
   43DPPC   C48 2148   0.625   7.299   2.889
   43DPPC   C49 2149   0.542   7.417   2.937
   43DPPC   C50 2150   0.512   7.512   2.820
   44DPPC    C1 2151   4.828   1.715   1.284
   44DPPC    C2 2152   4.615   1.798   1.251
   44DPPC    C3 2153   4.702   1.800   1.465
   44DPPC    N4 2154   4.739   1.824   1.325
   44DPPC    C5 2155   4.808   1.953   1.309
   44DPPC    C6 2156   4.728   2.083   1.328
   44DPPC    O7 2157   4.677   2.109   1.459
   44DPPC    P8 2158   4.657   2.269   1.463
   44DPPC    O9 2159   4.548   2.289   1.562
   44DPPC   O10 2160   4.630   2.321   1.327
   44DPPC   O11 2161   4.804   2.307   1.517
   44DPPC   C12 2162   4.816   2.277   1.656
   44DPPC   C13 2163   4.964   2.248   1.679
   44DPPC   O14 2164   4.993   2.167   1.794
   44DPPC   C15 2165   5.114   2.105   1.797
   44DPPC   O16 2166   5.168   2.098   1.687
   44DPPC   C17 2167   5.154   2.021   1.919
   44DPPC   C18 2168   5.306   2.027   1.936
   44DPPC   C19 2169   5.333   1.990   2.082
   44DPPC   C20 2170   5.485   1.991   2.105
   44DPPC   C21 2171   5.527   1.973   2.251
   44DPPC   C22 2172   5.678   1.970   2.279
   44DPPC   C23 2173   5.708   1.951   2.428
   44DPPC   C24 2174   5.649   1.826   2.493
   44DPPC   C25 2175   5.664   1.826   2.645
   44DPPC   C26 2176   5.789   1.756   2.698
   44DPPC   C27 2177   5.773   1.723   2.846
   44DPPC   C28 2178   5.873   1.612   2.882
   44DPPC   C29 2179   5.874   1.571   3.029
   44DPPC   C30 2180   5.991   1.474   3.046
   44DPPC   C31 2181   6.004   1.425   3.190
   44DPPC   C32 2182   5.024   2.389   1.682
   44DPPC   O33 2183   4.959   2.480   1.771
   44DPPC   C34 2184   5.009   2.606   1.778
   44DPPC   O35 2185   5.100   2.647   1.706
   44DPPC   C36 2186   4.939   2.694   1.882
   44DPPC   C37 2187   5.018   2.819   1.920
   44DPPC   C38 2188   5.118   2.771   2.025
   44DPPC   C39 2189   5.046   2.753   2.159
   44DPPC   C40 2190   5.156   2.706   2.254
   44DPPC   C41 2191   5.090   2.672   2.388
   44DPPC   C42 2192   5.204   2.642   2.486
   44DPPC   C43 2193   5.146   2.570   2.608
   44DPPC   C44 2194   5.259   2.544   2.707
   44DPPC   C45 2195   5.206   2.488   2.839
   44DPPC   C46 2196   5.315   2.500   2.946
   44DPPC   C47 2197   5.270   2.414   3.065
   44DPPC   C48 2198   5.381   2.444   3.166
   44DPPC   C49 2199   5.510   2.409   3.092
   44DPPC   C50 2200   5.626   2.395   3.191
   45DPPC    C1 2201   0.159   4.342   1.168
   45DPPC    C2 2202   0.199   4.403   0.943
   45DPPC    C3 2203   0.378   4.377   1.097
   45DPPC    N4 2204   0.249   4.320   1.054
   45DPPC    C5 2205   0.266   4.177   1.023
   45DPPC    C6 2206   0.290   4.084   1.142
   45DPPC    O7 2207   0.427   4.048   1.165
   45DPPC    P8 2208   0.435   3.946   1.289
   45DPPC    O9 2209   0.581   3.923   1.287
   45DPPC   O10 2210   0.333   3.846   1.248
   45DPPC   O11 2211   0.384   4.019   1.422
   45DPPC   C12 2212   0.496   4.039   1.508
   45DPPC   C13 2213   0.473   4.139   1.622
   45DPPC   O14 2214   0.568   4.134   1.729
   45DPPC   C15 2215   0.665   4.230   1.726
   45DPPC   O16 2216   0.729   4.248   1.623
   45DPPC   C17 2217   0.717   4.252   1.868
   45DPPC   C18 2218   0.618   4.345   1.939
   45DPPC   C19 2219   0.647   4.366   2.088
   45DPPC   C20 2220   0.541   4.463   2.140
   45DPPC   C21 2221   0.577   4.558   2.254
   45DPPC   C22 2222   0.462   4.659   2.264
   45DPPC   C23 2223   0.327   4.595   2.294
   45DPPC   C24 2224   0.214   4.698   2.288
   45DPPC   C25 2225   0.108   4.623   2.369
   45DPPC   C26 2226  -0.010   4.720   2.376
   45DPPC   C27 2227  -0.107   4.667   2.482
   45DPPC   C28 2228  -0.031   4.622   2.607
   45DPPC   C29 2229  -0.117   4.578   2.726
   45DPPC   C30 2230  -0.035   4.543   2.850
   45DPPC   C31 2231  -0.109   4.451   2.947
   45DPPC   C32 2232   0.329   4.118   1.668
   45DPPC   O33 2233   0.291   4.227   1.753
   45DPPC   C34 2234   0.163   4.222   1.799
   45DPPC   O35 2235   0.082   4.145   1.748
   45DPPC   C36 2236   0.133   4.321   1.912
   45DPPC   C37 2237   0.036   4.258   2.012
   45DPPC   C38 2238   0.051   4.336   2.142
   45DPPC   C39 2239  -0.043   4.277   2.248
   45DPPC   C40 2240  -0.008   4.136   2.296
   45DPPC   C41 2241  -0.110   4.090   2.400
   45DPPC   C42 2242  -0.135   4.164   2.532
   45DPPC   C43 2243  -0.234   4.074   2.606
   45DPPC   C44 2244  -0.171   3.934   2.605
   45DPPC   C45 2245  -0.280   3.836   2.651
   45DPPC   C46 2246  -0.328   3.875   2.791
   45DPPC   C47 2247  -0.425   3.777   2.858
   45DPPC   C48 2248  -0.566   3.778   2.798
   45DPPC   C49 2249  -0.639   3.647   2.826
   45DPPC   C50 2250  -0.770   3.630   2.748
   46DPPC    C1 2251   9.277   1.765   1.064
   46DPPC    C2 2252   9.282   1.821   1.280
   46DPPC    C3 2253   9.489   1.811   1.142
   46DPPC    N4 2254   9.350   1.855   1.154
   46DPPC    C5 2255   9.336   1.995   1.112
   46DPPC    C6 2256   9.318   2.117   1.203
   46DPPC    O7 2257   9.201   2.125   1.285
   46DPPC    P8 2258   9.194   2.270   1.355
   46DPPC    O9 2259   9.058   2.298   1.408
   46DPPC   O10 2260   9.275   2.366   1.278
   46DPPC   O11 2261   9.289   2.242   1.482
   46DPPC   C12 2262   9.223   2.171   1.587
   46DPPC   C13 2263   9.328   2.153   1.696
   46DPPC   O14 2264   9.314   2.033   1.774
   46DPPC   C15 2265   9.367   1.920   1.720
   46DPPC   O16 2266   9.403   1.911   1.603
   46DPPC   C17 2267   9.367   1.800   1.815
   46DPPC   C18 2268   9.300   1.817   1.952
   46DPPC   C19 2269   9.249   1.686   2.012
   46DPPC   C20 2270   9.197   1.714   2.153
   46DPPC   C21 2271   9.152   1.583   2.219
   46DPPC   C22 2272   9.071   1.599   2.348
   46DPPC   C23 2273   9.031   1.459   2.394
   46DPPC   C24 2274   8.933   1.436   2.509
   46DPPC   C25 2275   8.980   1.494   2.643
   46DPPC   C26 2276   8.890   1.437   2.753
   46DPPC   C27 2277   8.869   1.546   2.857
   46DPPC   C28 2278   9.007   1.566   2.919
   46DPPC   C29 2279   8.991   1.644   3.050
   46DPPC   C30 2280   8.888   1.580   3.143
   46DPPC   C31 2281   8.883   1.652   3.279
   46DPPC   C32 2282   9.335   2.286   1.769
   46DPPC   O33 2283   9.217   2.324   1.840
   46DPPC   C34 2284   9.217   2.448   1.895
   46DPPC   O35 2285   9.316   2.517   1.868
   46DPPC   C36 2286   9.088   2.500   1.959
   46DPPC   C37 2287   9.075   2.444   2.100
   46DPPC   C38 2288   8.999   2.561   2.164
   46DPPC   C39 2289   8.976   2.529   2.311
   46DPPC   C40 2290   8.839   2.465   2.338
   46DPPC   C41 2291   8.818   2.415   2.481
   46DPPC   C42 2292   8.692   2.329   2.493
   46DPPC   C43 2293   8.659   2.284   2.635
   46DPPC   C44 2294   8.532   2.200   2.656
   46DPPC   C45 2295   8.501   2.184   2.805
   46DPPC   C46 2296   8.359   2.192   2.862
   46DPPC   C47 2297   8.346   2.176   3.014
   46DPPC   C48 2298   8.434   2.288   3.071
   46DPPC   C49 2299   8.421   2.281   3.223
   46DPPC   C50 2300   8.535   2.361   3.286
   47DPPC    C1 2301   7.602   2.065   1.097
   47DPPC    C2 2302   7.617   1.896   0.933
   47DPPC    C3 2303   7.668   1.849   1.161
   47DPPC    N4 2304   7.577   1.923   1.072
   47DPPC    C5 2305   7.435   1.885   1.072
   47DPPC    C6 2306   7.376   1.824   1.200
   47DPPC    O7 2307   7.367   1.900   1.321
   47DPPC    P8 2308   7.349   1.816   1.457
   47DPPC    O9 2309   7.301   1.686   1.405
   47DPPC   O10 2310   7.268   1.896   1.551
   47DPPC   O11 2311   7.506   1.813   1.488
   47DPPC   C12 2312   7.546   1.757   1.614
   47DPPC   C13 2313   7.677   1.811   1.672
   47DPPC   O14 2314   7.744   1.722   1.762
   47DPPC   C15 2315   7.805   1.612   1.710
   47DPPC   O16 2316   7.829   1.597   1.591
   47DPPC   C17 2317   7.831   1.499   1.810
   47DPPC   C18 2318   7.737   1.381   1.785
   47DPPC   C19 2319   7.734   1.300   1.915
   47DPPC   C20 2320   7.684   1.381   2.035
   47DPPC   C21 2321   7.546   1.440   2.005
   47DPPC   C22 2322   7.499   1.511   2.131
   47DPPC   C23 2323   7.571   1.643   2.157
   47DPPC   C24 2324   7.481   1.718   2.255
   47DPPC   C25 2325   7.343   1.755   2.199
   47DPPC   C26 2326   7.268   1.829   2.310
   47DPPC   C27 2327   7.272   1.766   2.450
   47DPPC   C28 2328   7.207   1.864   2.548
   47DPPC   C29 2329   7.190   1.790   2.681
   47DPPC   C30 2330   7.099   1.861   2.781
   47DPPC   C31 2331   7.083   1.794   2.918
   47DPPC   C32 2332   7.638   1.948   1.730
   47DPPC   O33 2333   7.509   1.953   1.792
   47DPPC   C34 2334   7.453   2.069   1.834
   47DPPC   O35 2335   7.505   2.181   1.826
   47DPPC   C36 2336   7.327   2.040   1.916
   47DPPC   C37 2337   7.310   2.107   2.052
   47DPPC   C38 2338   7.162   2.118   2.086
   47DPPC   C39 2339   7.134   2.192   2.217
   47DPPC   C40 2340   6.995   2.158   2.270
   47DPPC   C41 2341   6.964   2.011   2.298
   47DPPC   C42 2342   6.832   1.994   2.373
   47DPPC   C43 2343   6.843   1.853   2.433
   47DPPC   C44 2344   6.719   1.849   2.522
   47DPPC   C45 2345   6.711   1.738   2.627
   47DPPC   C46 2346   6.648   1.795   2.753
   47DPPC   C47 2347   6.684   1.704   2.871
   47DPPC   C48 2348   6.641   1.751   3.010
   47DPPC   C49 2349   6.723   1.875   3.044
   47DPPC   C50 2350   6.711   1.897   3.195
   48DPPC    C1 2351   8.523   0.540   0.667
   48DPPC    C2 2352   8.347   0.572   0.517
   48DPPC    C3 2353   8.432   0.350   0.546
   48DPPC    N4 2354   8.401   0.476   0.614
   48DPPC    C5 2355   8.317   0.461   0.733
   48DPPC    C6 2356   8.243   0.334   0.775
   48DPPC    O7 2357   8.209   0.353   0.913
   48DPPC    P8 2358   8.129   0.219   0.953
   48DPPC    O9 2359   8.191   0.102   0.886
   48DPPC   O10 2360   7.987   0.250   0.924
   48DPPC   O11 2361   8.159   0.230   1.111
   48DPPC   C12 2362   8.297   0.228   1.150
   48DPPC   C13 2363   8.299   0.272   1.297
   48DPPC   O14 2364   8.422   0.275   1.371
   48DPPC   C15 2365   8.508   0.380   1.360
   48DPPC   O16 2366   8.485   0.457   1.268
   48DPPC   C17 2367   8.643   0.388   1.432
   48DPPC   C18 2368   8.634   0.309   1.563
   48DPPC   C19 2369   8.773   0.316   1.626
   48DPPC   C20 2370   8.787   0.257   1.766
   48DPPC   C21 2371   8.700   0.330   1.869
   48DPPC   C22 2372   8.725   0.256   2.001
   48DPPC   C23 2373   8.625   0.141   1.985
   48DPPC   C24 2374   8.616   0.047   2.104
   48DPPC   C25 2375   8.599   0.127   2.233
   48DPPC   C26 2376   8.583   0.036   2.355
   48DPPC   C27 2377   8.437  -0.009   2.365
   48DPPC   C28 2378   8.389  -0.077   2.493
   48DPPC   C29 2379   8.262  -0.161   2.475
   48DPPC   C30 2380   8.201  -0.217   2.604
   48DPPC   C31 2381   8.100  -0.323   2.558
   48DPPC   C32 2382   8.189   0.191   1.364
   48DPPC   O33 2383   8.165   0.197   1.505
   48DPPC   C34 2384   8.098   0.305   1.550
   48DPPC   O35 2385   8.082   0.398   1.471
   48DPPC   C36 2386   8.053   0.311   1.696
   48DPPC   C37 2387   8.162   0.335   1.801
   48DPPC   C38 2388   8.094   0.348   1.937
   48DPPC   C39 2389   8.207   0.369   2.037
   48DPPC   C40 2390   8.157   0.362   2.182
   48DPPC   C41 2391   8.092   0.492   2.227
   48DPPC   C42 2392   8.058   0.477   2.375
   48DPPC   C43 2393   8.035   0.615   2.437
   48DPPC   C44 2394   7.983   0.618   2.581
   48DPPC   C45 2395   7.978   0.765   2.623
   48DPPC   C46 2396   7.955   0.792   2.772
   48DPPC   C47 2397   8.063   0.720   2.853
   48DPPC   C48 2398   8.069   0.749   3.004
   48DPPC   C49 2399   8.107   0.894   3.031
   48DPPC   C50 2400   8.115   0.911   3.183
   49DPPC    C1 2401   4.212   7.372   2.062
   49DPPC    C2 2402   4.145   7.383   2.300
   49DPPC    C3 2403   4.172   7.572   2.168
   49DPPC    N4 2404   4.125   7.433   2.163
   49DPPC    C5 2405   3.987   7.437   2.111
   49DPPC    C6 2406   3.917   7.304   2.081
   49DPPC    O7 2407   3.788   7.327   2.025
   49DPPC    P8 2408   3.741   7.233   1.903
   49DPPC    O9 2409   3.860   7.239   1.815
   49DPPC   O10 2410   3.616   7.303   1.865
   49DPPC   O11 2411   3.742   7.106   2.001
   49DPPC   C12 2412   3.616   7.038   1.998
   49DPPC   C13 2413   3.612   6.910   2.083
   49DPPC   O14 2414   3.496   6.827   2.072
   49DPPC   C15 2415   3.479   6.752   1.960
   49DPPC   O16 2416   3.557   6.753   1.865
   49DPPC   C17 2417   3.366   6.649   1.971
   49DPPC   C18 2418   3.425   6.527   2.042
   49DPPC   C19 2419   3.319   6.420   2.070
   49DPPC   C20 2420   3.217   6.462   2.176
   49DPPC   C21 2421   3.107   6.356   2.186
   49DPPC   C22 2422   3.012   6.383   2.303
   49DPPC   C23 2423   2.886   6.296   2.294
   49DPPC   C24 2424   2.906   6.144   2.296
   49DPPC   C25 2425   2.777   6.075   2.342
   49DPPC   C26 2426   2.789   5.924   2.322
   49DPPC   C27 2427   2.691   5.836   2.400
   49DPPC   C28 2428   2.721   5.687   2.380
   49DPPC   C29 2429   2.623   5.604   2.464
   49DPPC   C30 2430   2.636   5.603   2.616
   49DPPC   C31 2431   2.646   5.459   2.666
   49DPPC   C32 2432   3.655   6.962   2.220
   49DPPC   O33 2433   3.555   7.048   2.276
   49DPPC   C34 2434   3.582   7.097   2.400
   49DPPC   O35 2435   3.682   7.069   2.466
   49DPPC   C36 2436   3.456   7.156   2.464
   49DPPC   C37 2437   3.453   7.306   2.436
   49DPPC   C38 2438   3.341   7.370   2.519
   49DPPC   C39 2439   3.297   7.503   2.458
   49DPPC   C40 2440   3.189   7.569   2.545
   49DPPC   C41 2441   3.058   7.491   2.538
   49DPPC   C42 2442   2.944   7.542   2.627
   49DPPC   C43 2443   2.823   7.450   2.607
   49DPPC   C44 2444   2.695   7.523   2.648
   49DPPC   C45 2445   2.699   7.563   2.796
   49DPPC   C46 2446   2.563   7.620   2.837
   49DPPC   C47 2447   2.452   7.518   2.812
   49DPPC   C48 2448   2.316   7.574   2.856
   49DPPC   C49 2449   2.190   7.501   2.810
   49DPPC   C50 2450   2.193   7.483   2.659
   50DPPC    C1 2451   5.490   1.959   1.254
   50DPPC    C2 2452   5.539   1.773   1.093
   50DPPC    C3 2453   5.700   1.913   1.176
   50DPPC    N4 2454   5.575   1.846   1.216
   50DPPC    C5 2455   5.607   1.740   1.311
   50DPPC    C6 2456   5.500   1.682   1.404
   50DPPC    O7 2457   5.553   1.576   1.483
   50DPPC    P8 2458   5.430   1.475   1.506
   50DPPC    O9 2459   5.516   1.365   1.553
   50DPPC   O10 2460   5.362   1.464   1.374
   50DPPC   O11 2461   5.359   1.564   1.620
   50DPPC   C12 2462   5.416   1.528   1.746
   50DPPC   C13 2463   5.340   1.587   1.865
   50DPPC   O14 2464   5.389   1.545   1.993
   50DPPC   C15 2465   5.486   1.613   2.060
   50DPPC   O16 2466   5.561   1.691   2.001
   50DPPC   C17 2467   5.544   1.541   2.182
   50DPPC   C18 2468   5.451   1.563   2.301
   50DPPC   C19 2469   5.505   1.477   2.415
   50DPPC   C20 2470   5.421   1.485   2.542
   50DPPC   C21 2471   5.500   1.436   2.663
   50DPPC   C22 2472   5.441   1.465   2.801
   50DPPC   C23 2473   5.527   1.405   2.912
   50DPPC   C24 2474   5.461   1.443   3.045
   50DPPC   C25 2475   5.322   1.378   3.053
   50DPPC   C26 2476   5.238   1.445   3.161
   50DPPC   C27 2477   5.180   1.580   3.120
   50DPPC   C28 2478   5.090   1.657   3.217
   50DPPC   C29 2479   5.090   1.804   3.177
   50DPPC   C30 2480   5.017   1.881   3.287
   50DPPC   C31 2481   5.037   2.031   3.270
   50DPPC   C32 2482   5.190   1.574   1.839
   50DPPC   O33 2483   5.105   1.654   1.923
   50DPPC   C34 2484   5.078   1.612   2.049
   50DPPC   O35 2485   5.049   1.492   2.059
   50DPPC   C36 2486   4.996   1.720   2.120
   50DPPC   C37 2487   5.060   1.770   2.249
   50DPPC   C38 2488   4.993   1.892   2.312
   50DPPC   C39 2489   4.850   1.857   2.354
   50DPPC   C40 2490   4.800   1.996   2.395
   50DPPC   C41 2491   4.651   2.005   2.431
   50DPPC   C42 2492   4.619   1.899   2.537
   50DPPC   C43 2493   4.526   1.935   2.653
   50DPPC   C44 2494   4.509   1.812   2.741
   50DPPC   C45 2495   4.436   1.832   2.874
   50DPPC   C46 2496   4.417   1.695   2.940
   50DPPC   C47 2497   4.315   1.697   3.054
   50DPPC   C48 2498   4.382   1.771   3.170
   50DPPC   C49 2499   4.283   1.795   3.284
   50DPPC   C50 2500   4.337   1.866   3.408
   51DPPC    C1 2501   4.001   5.667   1.709
   51DPPC    C2 2502   4.200   5.783   1.703
   51DPPC    C3 2503   4.036   5.837   1.544
   51DPPC    N4 2504   4.055   5.801   1.686
   51DPPC    C5 2505   4.010   5.898   1.787
   51DPPC    C6 2506   3.864   5.941   1.772
   51DPPC    O7 2507   3.768   5.845   1.817
   51DPPC    P8 2508   3.622   5.893   1.768
   51DPPC    O9 2509   3.535   5.777   1.739
   51DPPC   O10 2510   3.624   5.992   1.658
   51DPPC   O11 2511   3.570   5.970   1.900
   51DPPC   C12 2512   3.580   5.881   2.011
   51DPPC   C13 2513   3.691   5.921   2.109
   51DPPC   O14 2514   3.725   5.814   2.198
   51DPPC   C15 2515   3.846   5.752   2.203
   51DPPC   O16 2516   3.935   5.760   2.119
   51DPPC   C17 2517   3.846   5.637   2.304
   51DPPC   C18 2518   3.887   5.692   2.441
   51DPPC   C19 2519   3.925   5.568   2.522
   51DPPC   C20 2520   3.959   5.632   2.657
   51DPPC   C21 2521   3.938   5.545   2.781
   51DPPC   C22 2522   4.017   5.415   2.761
   51DPPC   C23 2523   4.014   5.326   2.885
   51DPPC   C24 2524   4.075   5.187   2.861
   51DPPC   C25 2525   4.140   5.132   2.988
   51DPPC   C26 2526   4.198   4.991   2.980
   51DPPC   C27 2527   4.296   4.975   3.097
   51DPPC   C28 2528   4.375   4.846   3.073
   51DPPC   C29 2529   4.282   4.725   3.079
   51DPPC   C30 2530   4.363   4.597   3.060
   51DPPC   C31 2531   4.422   4.586   2.919
   51DPPC   C32 2532   3.664   6.060   2.167
   51DPPC   O33 2533   3.536   6.065   2.233
   51DPPC   C34 2534   3.499   6.178   2.298
   51DPPC   O35 2535   3.575   6.273   2.315
   51DPPC   C36 2536   3.360   6.183   2.363
   51DPPC   C37 2537   3.393   6.159   2.511
   51DPPC   C38 2538   3.271   6.136   2.600
   51DPPC   C39 2539   3.167   6.248   2.604
   51DPPC   C40 2540   3.057   6.236   2.710
   51DPPC   C41 2541   3.125   6.206   2.844
   51DPPC   C42 2542   3.027   6.220   2.960
   51DPPC   C43 2543   3.082   6.143   3.080
   51DPPC   C44 2544   3.040   6.202   3.215
   51DPPC   C45 2545   3.094   6.111   3.325
   51DPPC   C46 2546   3.031   6.161   3.455
   51DPPC   C47 2547   2.887   6.114   3.435
   51DPPC   C48 2548   2.801   6.172   3.548
   51DPPC   C49 2549   2.660   6.113   3.546
   51DPPC   C50 2550   2.597   6.172   3.672
   52DPPC    C1 2551   0.736   6.091   1.241
   52DPPC    C2 2552   0.790   6.165   1.451
   52DPPC    C3 2553   0.966   6.123   1.303
   52DPPC    N4 2554   0.831   6.180   1.311
   52DPPC    C5 2555   0.794   6.317   1.271
   52DPPC    C6 2556   0.882   6.429   1.325
   52DPPC    O7 2557   0.852   6.467   1.460
   52DPPC    P8 2558   0.960   6.555   1.540
   52DPPC    O9 2559   0.887   6.588   1.665
   52DPPC   O10 2560   1.010   6.660   1.448
   52DPPC   O11 2561   1.065   6.434   1.543
   52DPPC   C12 2562   1.040   6.356   1.661
   52DPPC   C13 2563   1.113   6.224   1.635
   52DPPC   O14 2564   1.056   6.125   1.721
   52DPPC   C15 2565   1.051   5.991   1.695
   52DPPC   O16 2566   1.102   5.944   1.593
   52DPPC   C17 2567   0.977   5.917   1.806
   52DPPC   C18 2568   0.832   5.879   1.773
   52DPPC   C19 2569   0.778   5.791   1.885
   52DPPC   C20 2570   0.629   5.771   1.861
   52DPPC   C21 2571   0.581   5.634   1.911
   52DPPC   C22 2572   0.573   5.628   2.064
   52DPPC   C23 2573   0.534   5.487   2.107
   52DPPC   C24 2574   0.505   5.471   2.256
   52DPPC   C25 2575   0.390   5.556   2.311
   52DPPC   C26 2576   0.360   5.538   2.459
   52DPPC   C27 2577   0.235   5.622   2.487
   52DPPC   C28 2578   0.189   5.609   2.632
   52DPPC   C29 2579   0.080   5.714   2.657
   52DPPC   C30 2580   0.053   5.706   2.807
   52DPPC   C31 2581  -0.062   5.802   2.839
   52DPPC   C32 2582   1.263   6.248   1.650
   52DPPC   O33 2583   1.307   6.292   1.779
   52DPPC   C34 2584   1.437   6.309   1.813
   52DPPC   O35 2585   1.525   6.304   1.727
   52DPPC   C36 2586   1.458   6.372   1.951
   52DPPC   C37 2587   1.575   6.314   2.031
   52DPPC   C38 2588   1.568   6.162   2.015
   52DPPC   C39 2589   1.700   6.097   2.056
   52DPPC   C40 2590   1.719   6.125   2.205
   52DPPC   C41 2591   1.840   6.053   2.264
   52DPPC   C42 2592   1.910   6.142   2.367
   52DPPC   C43 2593   1.832   6.166   2.496
   52DPPC   C44 2594   1.791   6.031   2.555
   52DPPC   C45 2595   1.698   6.049   2.675
   52DPPC   C46 2596   1.661   5.910   2.726
   52DPPC   C47 2597   1.663   5.909   2.879
   52DPPC   C48 2598   1.795   5.968   2.928
   52DPPC   C49 2599   1.814   6.007   3.075
   52DPPC   C50 2600   1.962   6.045   3.079
   53DPPC    C1 2601   4.626   3.308   1.135
   53DPPC    C2 2602   4.409   3.218   1.206
   53DPPC    C3 2603   4.493   3.177   0.991
   53DPPC    N4 2604   4.533   3.194   1.131
   53DPPC    C5 2605   4.599   3.071   1.179
   53DPPC    C6 2606   4.648   3.069   1.324
   53DPPC    O7 2607   4.723   2.949   1.345
   53DPPC    P8 2608   4.680   2.905   1.494
   53DPPC    O9 2609   4.747   2.775   1.519
   53DPPC   O10 2610   4.535   2.928   1.510
   53DPPC   O11 2611   4.753   3.039   1.546
   53DPPC   C12 2612   4.851   3.023   1.649
   53DPPC   C13 2613   4.933   3.147   1.683
   53DPPC   O14 2614   5.050   3.121   1.761
   53DPPC   C15 2615   5.151   3.212   1.764
   53DPPC   O16 2616   5.147   3.314   1.695
   53DPPC   C17 2617   5.245   3.209   1.885
   53DPPC   C18 2618   5.164   3.185   2.012
   53DPPC   C19 2619   5.065   3.298   2.040
   53DPPC   C20 2620   4.973   3.270   2.159
   53DPPC   C21 2621   4.907   3.132   2.147
   53DPPC   C22 2622   4.855   3.083   2.282
   53DPPC   C23 2623   4.775   3.192   2.355
   53DPPC   C24 2624   4.761   3.159   2.504
   53DPPC   C25 2625   4.670   3.258   2.576
   53DPPC   C26 2626   4.675   3.220   2.725
   53DPPC   C27 2627   4.570   3.301   2.801
   53DPPC   C28 2628   4.578   3.262   2.949
   53DPPC   C29 2629   4.568   3.117   2.999
   53DPPC   C30 2630   4.564   3.115   3.152
   53DPPC   C31 2631   4.527   2.977   3.208
   53DPPC   C32 2632   4.838   3.260   1.724
   53DPPC   O33 2633   4.735   3.239   1.821
   53DPPC   C34 2634   4.653   3.346   1.840
   53DPPC   O35 2635   4.685   3.457   1.798
   53DPPC   C36 2636   4.524   3.311   1.914
   53DPPC   C37 2637   4.545   3.287   2.064
   53DPPC   C38 2638   4.405   3.262   2.120
   53DPPC   C39 2639   4.415   3.271   2.272
   53DPPC   C40 2640   4.292   3.223   2.349
   53DPPC   C41 2641   4.314   3.225   2.500
   53DPPC   C42 2642   4.180   3.200   2.568
   53DPPC   C43 2643   4.205   3.223   2.717
   53DPPC   C44 2644   4.082   3.169   2.790
   53DPPC   C45 2645   4.131   3.191   2.934
   53DPPC   C46 2646   4.025   3.158   3.039
   53DPPC   C47 2647   4.102   3.192   3.166
   53DPPC   C48 2648   4.041   3.138   3.296
   53DPPC   C49 2649   4.144   3.152   3.408
   53DPPC   C50 2650   4.092   3.080   3.533
   54DPPC    C1 2651   6.171   0.301   1.613
   54DPPC    C2 2652   6.106   0.231   1.395
   54DPPC    C3 2653   6.276   0.405   1.417
   54DPPC    N4 2654   6.219   0.282   1.475
   54DPPC    C5 2655   6.312   0.169   1.476
   54DPPC    C6 2656   6.451   0.187   1.537
   54DPPC    O7 2657   6.458   0.202   1.679
   54DPPC    P8 2658   6.588   0.283   1.729
   54DPPC    O9 2659   6.557   0.415   1.669
   54DPPC   O10 2660   6.697   0.192   1.689
   54DPPC   O11 2661   6.552   0.272   1.885
   54DPPC   C12 2662   6.429   0.343   1.904
   54DPPC   C13 2663   6.407   0.380   2.051
   54DPPC   O14 2664   6.483   0.499   2.081
   54DPPC   C15 2665   6.440   0.622   2.041
   54DPPC   O16 2666   6.335   0.636   1.979
   54DPPC   C17 2667   6.540   0.731   2.080
   54DPPC   C18 2668   6.601   0.711   2.218
   54DPPC   C19 2669   6.502   0.706   2.335
   54DPPC   C20 2670   6.552   0.679   2.477
   54DPPC   C21 2671   6.444   0.662   2.584
   54DPPC   C22 2672   6.498   0.637   2.724
   54DPPC   C23 2673   6.383   0.635   2.825
   54DPPC   C24 2674   6.417   0.613   2.972
   54DPPC   C25 2675   6.288   0.587   3.049
   54DPPC   C26 2676   6.192   0.706   3.037
   54DPPC   C27 2677   6.245   0.826   3.116
   54DPPC   C28 2678   6.126   0.914   3.155
   54DPPC   C29 2679   6.161   1.017   3.263
   54DPPC   C30 2680   6.060   1.022   3.378
   54DPPC   C31 2681   6.115   1.099   3.498
   54DPPC   C32 2682   6.441   0.250   2.124
   54DPPC   O33 2683   6.425   0.249   2.266
   54DPPC   C34 2684   6.449   0.127   2.321
   54DPPC   O35 2685   6.524   0.056   2.255
   54DPPC   C36 2686   6.408   0.085   2.463
   54DPPC   C37 2687   6.425   0.193   2.570
   54DPPC   C38 2688   6.470   0.122   2.698
   54DPPC   C39 2689   6.475   0.232   2.805
   54DPPC   C40 2690   6.536   0.178   2.934
   54DPPC   C41 2691   6.547   0.286   3.041
   54DPPC   C42 2692   6.589   0.220   3.173
   54DPPC   C43 2693   6.598   0.321   3.288
   54DPPC   C44 2694   6.620   0.249   3.421
   54DPPC   C45 2695   6.632   0.344   3.541
   54DPPC   C46 2696   6.662   0.266   3.669
   54DPPC   C47 2697   6.645   0.354   3.793
   54DPPC   C48 2698   6.691   0.296   3.926
   54DPPC   C49 2699   6.840   0.262   3.934
   54DPPC   C50 2700   6.902   0.269   4.074
   55DPPC    C1 2701   0.198   7.180   1.560
   55DPPC    C2 2702   0.310   7.376   1.635
   55DPPC    C3 2703   0.343   7.284   1.410
   55DPPC    N4 2704   0.248   7.311   1.519
   55DPPC    C5 2705   0.134   7.397   1.481
   55DPPC    C6 2706   0.054   7.388   1.351
   55DPPC    O7 2707  -0.043   7.492   1.339
   55DPPC    P8 2708  -0.120   7.485   1.198
   55DPPC    O9 2709  -0.037   7.395   1.115
   55DPPC   O10 2710  -0.171   7.618   1.157
   55DPPC   O11 2711  -0.242   7.404   1.265
   55DPPC   C12 2712  -0.301   7.487   1.366
   55DPPC   C13 2713  -0.384   7.395   1.456
   55DPPC   O14 2714  -0.467   7.457   1.555
   55DPPC   C15 2715  -0.599   7.425   1.546
   55DPPC   O16 2716  -0.652   7.375   1.447
   55DPPC   C17 2717  -0.692   7.461   1.662
   55DPPC   C18 2718  -0.706   7.359   1.775
   55DPPC   C19 2719  -0.736   7.216   1.730
   55DPPC   C20 2720  -0.717   7.129   1.855
   55DPPC   C21 2721  -0.723   6.980   1.821
   55DPPC   C22 2722  -0.698   6.898   1.948
   55DPPC   C23 2723  -0.811   6.931   2.046
   55DPPC   C24 2724  -0.765   6.890   2.186
   55DPPC   C25 2725  -0.648   6.965   2.251
   55DPPC   C26 2726  -0.620   6.915   2.393
   55DPPC   C27 2727  -0.494   6.972   2.458
   55DPPC   C28 2728  -0.505   6.926   2.604
   55DPPC   C29 2729  -0.380   6.937   2.691
   55DPPC   C30 2730  -0.402   6.885   2.834
   55DPPC   C31 2731  -0.502   6.985   2.892
   55DPPC   C32 2732  -0.274   7.307   1.517
   55DPPC   O33 2733  -0.303   7.213   1.621
   55DPPC   C34 2734  -0.195   7.148   1.672
   55DPPC   O35 2735  -0.085   7.147   1.618
   55DPPC   C36 2736  -0.224   7.041   1.778
   55DPPC   C37 2737  -0.277   7.103   1.907
   55DPPC   C38 2738  -0.190   7.211   1.972
   55DPPC   C39 2739  -0.251   7.234   2.111
   55DPPC   C40 2740  -0.398   7.277   2.104
   55DPPC   C41 2741  -0.439   7.289   2.251
   55DPPC   C42 2742  -0.334   7.360   2.336
   55DPPC   C43 2743  -0.370   7.378   2.484
   55DPPC   C44 2744  -0.258   7.455   2.553
   55DPPC   C45 2745  -0.264   7.442   2.705
   55DPPC   C46 2746  -0.247   7.295   2.745
   55DPPC   C47 2747  -0.232   7.280   2.896
   55DPPC   C48 2748  -0.361   7.338   2.955
   55DPPC   C49 2749  -0.364   7.296   3.102
   55DPPC   C50 2750  -0.263   7.371   3.189
   56DPPC    C1 2751   4.152   1.913   2.152
   56DPPC    C2 2752   4.203   1.859   2.375
   56DPPC    C3 2753   4.233   1.698   2.197
   56DPPC    N4 2754   4.247   1.839   2.236
   56DPPC    C5 2755   4.383   1.892   2.217
   56DPPC    C6 2756   4.460   1.859   2.089
   56DPPC    O7 2757   4.574   1.945   2.083
   56DPPC    P8 2758   4.628   1.956   1.932
   56DPPC    O9 2759   4.506   1.966   1.849
   56DPPC   O10 2760   4.734   1.856   1.908
   56DPPC   O11 2761   4.700   2.100   1.938
   56DPPC   C12 2762   4.770   2.116   2.061
   56DPPC   C13 2763   4.860   2.239   2.068
   56DPPC   O14 2764   4.955   2.230   2.175
   56DPPC   C15 2765   5.049   2.326   2.197
   56DPPC   O16 2766   5.064   2.418   2.117
   56DPPC   C17 2767   5.113   2.319   2.336
   56DPPC   C18 2768   5.263   2.295   2.314
   56DPPC   C19 2769   5.332   2.286   2.450
   56DPPC   C20 2770   5.310   2.162   2.536
   56DPPC   C21 2771   5.386   2.182   2.667
   56DPPC   C22 2772   5.376   2.069   2.769
   56DPPC   C23 2773   5.459   2.092   2.896
   56DPPC   C24 2774   5.485   1.965   2.976
   56DPPC   C25 2775   5.584   2.007   3.085
   56DPPC   C26 2776   5.601   1.877   3.164
   56DPPC   C27 2777   5.680   1.895   3.294
   56DPPC   C28 2778   5.596   1.980   3.389
   56DPPC   C29 2779   5.660   2.013   3.523
   56DPPC   C30 2780   5.550   2.041   3.626
   56DPPC   C31 2781   5.459   2.137   3.549
   56DPPC   C32 2782   4.770   2.363   2.056
   56DPPC   O33 2783   4.655   2.349   2.139
   56DPPC   C34 2784   4.554   2.438   2.118
   56DPPC   O35 2785   4.572   2.534   2.043
   56DPPC   C36 2786   4.411   2.400   2.158
   56DPPC   C37 2787   4.419   2.327   2.293
   56DPPC   C38 2788   4.286   2.273   2.344
   56DPPC   C39 2789   4.298   2.275   2.496
   56DPPC   C40 2790   4.339   2.417   2.537
   56DPPC   C41 2791   4.320   2.415   2.689
   56DPPC   C42 2792   4.427   2.327   2.753
   56DPPC   C43 2793   4.398   2.327   2.903
   56DPPC   C44 2794   4.479   2.229   2.988
   56DPPC   C45 2795   4.432   2.224   3.133
   56DPPC   C46 2796   4.436   2.366   3.191
   56DPPC   C47 2797   4.412   2.377   3.342
   56DPPC   C48 2798   4.395   2.521   3.390
   56DPPC   C49 2799   4.388   2.499   3.541
   56DPPC   C50 2800   4.510   2.430   3.602
   57DPPC    C1 2801   5.659   7.064   1.841
   57DPPC    C2 2802   5.468   6.946   1.896
   57DPPC    C3 2803   5.553   6.928   1.666
   57DPPC    N4 2804   5.586   6.940   1.809
   57DPPC    C5 2805   5.679   6.832   1.847
   57DPPC    C6 2806   5.630   6.687   1.835
   57DPPC    O7 2807   5.737   6.592   1.824
   57DPPC    P8 2808   5.678   6.451   1.775
   57DPPC    O9 2809   5.794   6.381   1.716
   57DPPC   O10 2810   5.557   6.479   1.696
   57DPPC   O11 2811   5.635   6.392   1.919
   57DPPC   C12 2812   5.759   6.364   1.985
   57DPPC   C13 2813   5.766   6.413   2.129
   57DPPC   O14 2814   5.893   6.367   2.180
   57DPPC   C15 2815   5.972   6.465   2.231
   57DPPC   O16 2816   5.915   6.574   2.226
   57DPPC   C17 2817   6.113   6.429   2.278
   57DPPC   C18 2818   6.118   6.382   2.423
   57DPPC   C19 2819   6.077   6.499   2.512
   57DPPC   C20 2820   6.056   6.461   2.659
   57DPPC   C21 2821   5.973   6.565   2.734
   57DPPC   C22 2822   5.959   6.518   2.879
   57DPPC   C23 2823   5.883   6.608   2.976
   57DPPC   C24 2824   5.912   6.571   3.122
   57DPPC   C25 2825   5.846   6.434   3.136
   57DPPC   C26 2826   5.863   6.367   3.273
   57DPPC   C27 2827   5.788   6.434   3.388
   57DPPC   C28 2828   5.800   6.354   3.517
   57DPPC   C29 2829   5.688   6.374   3.620
   57DPPC   C30 2830   5.708   6.323   3.763
   57DPPC   C31 2831   5.571   6.308   3.829
   57DPPC   C32 2832   5.648   6.356   2.208
   57DPPC   O33 2833   5.659   6.221   2.255
   57DPPC   C34 2834   5.541   6.159   2.280
   57DPPC   O35 2835   5.440   6.207   2.228
   57DPPC   C36 2836   5.547   6.022   2.347
   57DPPC   C37 2837   5.423   6.027   2.437
   57DPPC   C38 2838   5.437   5.931   2.555
   57DPPC   C39 2839   5.311   5.930   2.641
   57DPPC   C40 2840   5.331   5.852   2.770
   57DPPC   C41 2841   5.198   5.861   2.846
   57DPPC   C42 2842   5.209   5.805   2.988
   57DPPC   C43 2843   5.076   5.790   3.063
   57DPPC   C44 2844   5.095   5.707   3.190
   57DPPC   C45 2845   4.958   5.684   3.253
   57DPPC   C46 2846   4.982   5.602   3.380
   57DPPC   C47 2847   5.016   5.456   3.348
   57DPPC   C48 2848   5.119   5.407   3.450
   57DPPC   C49 2849   5.068   5.386   3.592
   57DPPC   C50 2850   5.182   5.385   3.695
   58DPPC    C1 2851   8.413   6.920   1.176
   58DPPC    C2 2852   8.436   7.133   1.070
   58DPPC    C3 2853   8.231   7.084   1.177
   58DPPC    N4 2854   8.376   7.063   1.184
   58DPPC    C5 2855   8.424   7.116   1.313
   58DPPC    C6 2856   8.362   7.244   1.368
   58DPPC    O7 2857   8.405   7.365   1.303
   58DPPC    P8 2858   8.282   7.468   1.304
   58DPPC    O9 2859   8.164   7.390   1.260
   58DPPC   O10 2860   8.319   7.593   1.235
   58DPPC   O11 2861   8.280   7.483   1.465
   58DPPC   C12 2862   8.366   7.590   1.505
   58DPPC   C13 2863   8.383   7.620   1.654
   58DPPC   O14 2864   8.485   7.720   1.661
   58DPPC   C15 2865   8.440   7.848   1.655
   58DPPC   O16 2866   8.324   7.883   1.633
   58DPPC   C17 2867   8.551   7.952   1.669
   58DPPC   C18 2868   8.515   8.038   1.790
   58DPPC   C19 2869   8.615   8.143   1.839
   58DPPC   C20 2870   8.580   8.202   1.975
   58DPPC   C21 2871   8.582   8.096   2.086
   58DPPC   C22 2872   8.559   8.155   2.225
   58DPPC   C23 2873   8.524   8.039   2.318
   58DPPC   C24 2874   8.540   8.071   2.467
   58DPPC   C25 2875   8.464   7.971   2.553
   58DPPC   C26 2876   8.451   8.018   2.698
   58DPPC   C27 2877   8.385   7.913   2.788
   58DPPC   C28 2878   8.407   7.931   2.938
   58DPPC   C29 2879   8.553   7.898   2.970
   58DPPC   C30 2880   8.575   7.891   3.121
   58DPPC   C31 2881   8.725   7.900   3.148
   58DPPC   C32 2882   8.418   7.485   1.716
   58DPPC   O33 2883   8.388   7.476   1.856
   58DPPC   C34 2884   8.387   7.348   1.899
   58DPPC   O35 2885   8.397   7.258   1.816
   58DPPC   C36 2886   8.390   7.330   2.051
   58DPPC   C37 2887   8.536   7.306   2.093
   58DPPC   C38 2888   8.533   7.298   2.246
   58DPPC   C39 2889   8.671   7.260   2.302
   58DPPC   C40 2890   8.695   7.317   2.442
   58DPPC   C41 2891   8.592   7.268   2.543
   58DPPC   C42 2892   8.666   7.280   2.676
   58DPPC   C43 2893   8.608   7.166   2.759
   58DPPC   C44 2894   8.652   7.029   2.707
   58DPPC   C45 2895   8.587   6.921   2.793
   58DPPC   C46 2896   8.600   6.930   2.945
   58DPPC   C47 2897   8.530   6.819   3.024
   58DPPC   C48 2898   8.586   6.797   3.165
   58DPPC   C49 2899   8.532   6.670   3.231
   58DPPC   C50 2900   8.591   6.649   3.371
   59DPPC    C1 2901   0.864   5.333   1.684
   59DPPC    C2 2902   0.690   5.165   1.697
   59DPPC    C3 2903   0.665   5.365   1.571
   59DPPC    N4 2904   0.761   5.260   1.609
   59DPPC    C5 2905   0.825   5.194   1.495
   59DPPC    C6 2906   0.748   5.085   1.421
   59DPPC    O7 2907   0.608   5.103   1.398
   59DPPC    P8 2908   0.548   4.965   1.341
   59DPPC    O9 2909   0.656   4.866   1.319
   59DPPC   O10 2910   0.439   4.990   1.243
   59DPPC   O11 2911   0.471   4.912   1.472
   59DPPC   C12 2912   0.352   4.990   1.483
   59DPPC   C13 2913   0.290   5.008   1.622
   59DPPC   O14 2914   0.354   5.084   1.725
   59DPPC   C15 2915   0.274   5.185   1.767
   59DPPC   O16 2916   0.233   5.276   1.696
   59DPPC   C17 2917   0.315   5.224   1.910
   59DPPC   C18 2918   0.208   5.248   2.016
   59DPPC   C19 2919   0.135   5.116   2.042
   59DPPC   C20 2920   0.064   5.099   2.177
   59DPPC   C21 2921   0.178   5.116   2.277
   59DPPC   C22 2922   0.135   5.107   2.424
   59DPPC   C23 2923   0.255   5.164   2.499
   59DPPC   C24 2924   0.388   5.089   2.490
   59DPPC   C25 2925   0.499   5.185   2.534
   59DPPC   C26 2926   0.635   5.115   2.531
   59DPPC   C27 2927   0.627   4.986   2.614
   59DPPC   C28 2928   0.757   4.909   2.640
   59DPPC   C29 2929   0.809   4.867   2.503
   59DPPC   C30 2930   0.943   4.794   2.506
   59DPPC   C31 2931   0.970   4.722   2.373
   59DPPC   C32 2932   0.283   4.861   1.664
   59DPPC   O33 2933   0.175   4.835   1.754
   59DPPC   C34 2934   0.144   4.703   1.767
   59DPPC   O35 2935   0.188   4.626   1.681
   59DPPC   C36 2936   0.037   4.660   1.867
   59DPPC   C37 2937  -0.023   4.785   1.931
   59DPPC   C38 2938  -0.161   4.751   1.988
   59DPPC   C39 2939  -0.235   4.880   2.023
   59DPPC   C40 2940  -0.361   4.866   2.109
   59DPPC   C41 2941  -0.418   5.005   2.134
   59DPPC   C42 2942  -0.539   5.002   2.227
   59DPPC   C43 2943  -0.492   4.944   2.360
   59DPPC   C44 2944  -0.606   4.926   2.460
   59DPPC   C45 2945  -0.551   4.836   2.571
   59DPPC   C46 2946  -0.442   4.906   2.652
   59DPPC   C47 2947  -0.360   4.805   2.734
   59DPPC   C48 2948  -0.461   4.772   2.844
   59DPPC   C49 2949  -0.509   4.892   2.927
   59DPPC   C50 2950  -0.598   4.831   3.035
   60DPPC    C1 2951   6.818   4.832   1.091
   60DPPC    C2 2952   6.608   4.739   1.178
   60DPPC    C3 2953   6.736   4.877   1.306
   60DPPC    N4 2954   6.695   4.857   1.166
   60DPPC    C5 2955   6.640   4.976   1.099
   60DPPC    C6 2956   6.517   5.040   1.164
   60DPPC    O7 2957   6.498   5.176   1.123
   60DPPC    P8 2958   6.442   5.268   1.243
   60DPPC    O9 2959   6.356   5.173   1.316
   60DPPC   O10 2960   6.402   5.389   1.168
   60DPPC   O11 2961   6.582   5.296   1.318
   60DPPC   C12 2962   6.596   5.232   1.445
   60DPPC   C13 2963   6.717   5.267   1.533
   60DPPC   O14 2964   6.729   5.176   1.643
   60DPPC   C15 2965   6.821   5.076   1.630
   60DPPC   O16 2966   6.885   5.064   1.526
   60DPPC   C17 2967   6.831   4.990   1.755
   60DPPC   C18 2968   6.744   4.866   1.734
   60DPPC   C19 2969   6.751   4.768   1.851
   60DPPC   C20 2970   6.645   4.660   1.830
   60DPPC   C21 2971   6.625   4.561   1.945
   60DPPC   C22 2972   6.564   4.636   2.063
   60DPPC   C23 2973   6.559   4.534   2.177
   60DPPC   C24 2974   6.518   4.599   2.309
   60DPPC   C25 2975   6.470   4.495   2.411
   60DPPC   C26 2976   6.457   4.550   2.554
   60DPPC   C27 2977   6.387   4.451   2.648
   60DPPC   C28 2978   6.456   4.315   2.631
   60DPPC   C29 2979   6.409   4.221   2.742
   60DPPC   C30 2980   6.438   4.072   2.724
   60DPPC   C31 2981   6.434   3.997   2.858
   60DPPC   C32 2982   6.707   5.415   1.574
   60DPPC   O33 2983   6.575   5.448   1.619
   60DPPC   C34 2984   6.562   5.579   1.652
   60DPPC   O35 2985   6.642   5.664   1.613
   60DPPC   C36 2986   6.440   5.618   1.736
   60DPPC   C37 2987   6.449   5.601   1.888
   60DPPC   C38 2988   6.316   5.655   1.941
   60DPPC   C39 2989   6.341   5.739   2.067
   60DPPC   C40 2990   6.205   5.788   2.115
   60DPPC   C41 2991   6.208   5.879   2.238
   60DPPC   C42 2992   6.063   5.896   2.281
   60DPPC   C43 2993   6.053   5.988   2.403
   60DPPC   C44 2994   5.908   5.995   2.452
   60DPPC   C45 2995   5.915   6.092   2.571
   60DPPC   C46 2996   6.006   6.042   2.683
   60DPPC   C47 2997   6.007   6.119   2.816
   60DPPC   C48 2998   6.089   6.040   2.918
   60DPPC   C49 2999   6.090   6.145   3.028
   60DPPC   C50 3000   6.151   6.092   3.158
   61DPPC    C1 3001   3.940   0.319   2.010
   61DPPC    C2 3002   3.973   0.212   1.818
   61DPPC    C3 3003   3.745   0.242   1.875
   61DPPC    N4 3004   3.877   0.307   1.878
   61DPPC    C5 3005   3.873   0.434   1.805
   61DPPC    C6 3006   3.782   0.546   1.855
   61DPPC    O7 3007   3.844   0.643   1.941
   61DPPC    P8 3008   3.732   0.754   1.969
   61DPPC    O9 3009   3.606   0.699   2.023
   61DPPC   O10 3010   3.747   0.865   1.873
   61DPPC   O11 3011   3.811   0.814   2.096
   61DPPC   C12 3012   3.831   0.705   2.187
   61DPPC   C13 3013   3.869   0.751   2.327
   61DPPC   O14 3014   3.907   0.642   2.413
   61DPPC   C15 3015   4.040   0.632   2.437
   61DPPC   O16 3016   4.111   0.672   2.345
   61DPPC   C17 3017   4.086   0.523   2.534
   61DPPC   C18 3018   4.002   0.395   2.545
   61DPPC   C19 3019   4.071   0.291   2.633
   61DPPC   C20 3020   4.207   0.234   2.592
   61DPPC   C21 3021   4.216   0.097   2.659
   61DPPC   C22 3022   4.342   0.020   2.618
   61DPPC   C23 3023   4.469   0.100   2.647
   61DPPC   C24 3024   4.595   0.027   2.599
   61DPPC   C25 3025   4.717   0.117   2.578
   61DPPC   C26 3026   4.856   0.062   2.610
   61DPPC   C27 3027   4.962   0.096   2.505
   61DPPC   C28 3028   5.093   0.022   2.530
   61DPPC   C29 3029   5.079  -0.128   2.557
   61DPPC   C30 3030   4.994  -0.211   2.461
   61DPPC   C31 3031   5.005  -0.356   2.510
   61DPPC   C32 3032   3.755   0.845   2.367
   61DPPC   O33 3033   3.785   0.929   2.479
   61DPPC   C34 3034   3.687   1.012   2.524
   61DPPC   O35 3035   3.587   1.027   2.453
   61DPPC   C36 3036   3.722   1.109   2.637
   61DPPC   C37 3037   3.686   1.050   2.773
   61DPPC   C38 3038   3.713   1.157   2.878
   61DPPC   C39 3039   3.685   1.106   3.020
   61DPPC   C40 3040   3.540   1.059   3.031
   61DPPC   C41 3041   3.534   0.934   3.120
   61DPPC   C42 3042   3.386   0.895   3.125
   61DPPC   C43 3043   3.383   0.781   3.227
   61DPPC   C44 3044   3.250   0.705   3.233
   61DPPC   C45 3045   3.269   0.598   3.340
   61DPPC   C46 3046   3.307   0.652   3.478
   61DPPC   C47 3047   3.208   0.748   3.545
   61DPPC   C48 3048   3.265   0.767   3.686
   61DPPC   C49 3049   3.157   0.835   3.770
   61DPPC   C50 3050   3.187   0.827   3.919
   62DPPC    C1 3051   7.740   4.445   0.898
   62DPPC    C2 3052   7.553   4.291   0.962
   62DPPC    C3 3053   7.679   4.410   1.119
   62DPPC    N4 3054   7.624   4.418   0.983
   62DPPC    C5 3055   7.542   4.538   0.959
   62DPPC    C6 3056   7.396   4.539   1.004
   62DPPC    O7 3057   7.390   4.561   1.145
   62DPPC    P8 3058   7.243   4.544   1.208
   62DPPC    O9 3059   7.254   4.438   1.311
   62DPPC   O10 3060   7.157   4.544   1.087
   62DPPC   O11 3061   7.237   4.693   1.269
   62DPPC   C12 3062   7.329   4.702   1.377
   62DPPC   C13 3063   7.289   4.818   1.470
   62DPPC   O14 3064   7.374   4.841   1.583
   62DPPC   C15 3065   7.366   4.966   1.636
   62DPPC   O16 3066   7.353   5.062   1.560
   62DPPC   C17 3067   7.420   4.977   1.779
   62DPPC   C18 3068   7.323   5.015   1.891
   62DPPC   C19 3069   7.206   4.916   1.897
   62DPPC   C20 3070   7.154   4.941   2.039
   62DPPC   C21 3071   7.008   4.901   2.063
   62DPPC   C22 3072   6.967   4.939   2.206
   62DPPC   C23 3073   6.830   4.887   2.248
   62DPPC   C24 3074   6.787   4.929   2.388
   62DPPC   C25 3075   6.643   4.901   2.429
   62DPPC   C26 3076   6.537   4.952   2.331
   62DPPC   C27 3077   6.393   4.925   2.377
   62DPPC   C28 3078   6.275   4.940   2.280
   62DPPC   C29 3079   6.142   4.917   2.351
   62DPPC   C30 3080   6.155   4.785   2.429
   62DPPC   C31 3081   6.018   4.753   2.489
   62DPPC   C32 3082   7.139   4.809   1.498
   62DPPC   O33 3083   7.117   4.683   1.563
   62DPPC   C34 3084   6.989   4.638   1.569
   62DPPC   O35 3085   6.908   4.673   1.483
   62DPPC   C36 3086   6.974   4.516   1.660
   62DPPC   C37 3087   7.069   4.519   1.780
   62DPPC   C38 3088   7.038   4.411   1.884
   62DPPC   C39 3089   7.124   4.430   2.009
   62DPPC   C40 3090   7.070   4.371   2.140
   62DPPC   C41 3091   6.930   4.425   2.169
   62DPPC   C42 3092   6.878   4.387   2.308
   62DPPC   C43 3093   6.978   4.425   2.418
   62DPPC   C44 3094   6.917   4.399   2.555
   62DPPC   C45 3095   6.881   4.250   2.552
   62DPPC   C46 3096   6.845   4.202   2.693
   62DPPC   C47 3097   6.817   4.054   2.720
   62DPPC   C48 3098   6.778   4.039   2.867
   62DPPC   C49 3099   6.862   4.113   2.971
   62DPPC   C50 3100   6.790   4.116   3.106
   63DPPC    C1 3101   7.756   8.486   0.817
   63DPPC    C2 3102   7.731   8.263   0.801
   63DPPC    C3 3103   7.925   8.337   0.910
   63DPPC    N4 3104   7.781   8.364   0.896
   63DPPC    C5 3105   7.697   8.352   1.016
   63DPPC    C6 3106   7.757   8.404   1.147
   63DPPC    O7 3107   7.767   8.544   1.175
   63DPPC    P8 3108   7.836   8.539   1.321
   63DPPC    O9 3109   7.871   8.680   1.344
   63DPPC   O10 3110   7.940   8.434   1.309
   63DPPC   O11 3111   7.713   8.482   1.408
   63DPPC   C12 3112   7.651   8.593   1.472
   63DPPC   C13 3113   7.527   8.559   1.555
   63DPPC   O14 3114   7.455   8.674   1.600
   63DPPC   C15 3115   7.343   8.702   1.528
   63DPPC   O16 3116   7.316   8.648   1.421
   63DPPC   C17 3117   7.254   8.812   1.586
   63DPPC   C18 3118   7.325   8.886   1.700
   63DPPC   C19 3119   7.221   8.958   1.785
   63DPPC   C20 3120   7.276   9.031   1.908
   63DPPC   C21 3121   7.181   9.073   2.020
   63DPPC   C22 3122   7.244   9.049   2.158
   63DPPC   C23 3123   7.147   9.113   2.257
   63DPPC   C24 3124   7.138   9.063   2.401
   63DPPC   C25 3125   7.032   9.147   2.473
   63DPPC   C26 3126   6.984   9.092   2.607
   63DPPC   C27 3127   7.091   9.097   2.716
   63DPPC   C28 3128   7.045   9.058   2.857
   63DPPC   C29 3129   7.006   8.912   2.879
   63DPPC   C30 3130   6.969   8.886   3.026
   63DPPC   C31 3131   7.084   8.800   3.079
   63DPPC   C32 3132   7.580   8.482   1.676
   63DPPC   O33 3133   7.696   8.540   1.737
   63DPPC   C34 3134   7.745   8.470   1.843
   63DPPC   O35 3135   7.676   8.386   1.901
   63DPPC   C36 3136   7.868   8.539   1.902
   63DPPC   C37 3137   7.850   8.589   2.046
   63DPPC   C38 3138   7.780   8.725   2.051
   63DPPC   C39 3139   7.756   8.764   2.197
   63DPPC   C40 3140   7.687   8.900   2.212
   63DPPC   C41 3141   7.672   8.942   2.358
   63DPPC   C42 3142   7.602   9.078   2.359
   63DPPC   C43 3143   7.564   9.126   2.499
   63DPPC   C44 3144   7.492   9.260   2.510
   63DPPC   C45 3145   7.514   9.332   2.643
   63DPPC   C46 3146   7.442   9.248   2.748
   63DPPC   C47 3147   7.450   9.317   2.885
   63DPPC   C48 3148   7.368   9.251   2.996
   63DPPC   C49 3149   7.379   9.330   3.126
   63DPPC   C50 3150   7.299   9.267   3.240
   64DPPC    C1 3151   3.365   0.047   1.752
   64DPPC    C2 3152   3.286  -0.020   1.539
   64DPPC    C3 3153   3.162   0.150   1.660
   64DPPC    N4 3154   3.295   0.094   1.632
   64DPPC    C5 3155   3.390   0.182   1.562
   64DPPC    C6 3156   3.457   0.301   1.630
   64DPPC    O7 3157   3.365   0.396   1.683
   64DPPC    P8 3158   3.430   0.515   1.769
   64DPPC    O9 3159   3.321   0.603   1.815
   64DPPC   O10 3160   3.542   0.561   1.683
   64DPPC   O11 3161   3.486   0.430   1.893
   64DPPC   C12 3162   3.368   0.416   1.973
   64DPPC   C13 3163   3.391   0.365   2.115
   64DPPC   O14 3164   3.262   0.348   2.175
   64DPPC   C15 3165   3.180   0.245   2.140
   64DPPC   O16 3166   3.212   0.170   2.048
   64DPPC   C17 3167   3.046   0.238   2.212
   64DPPC   C18 3168   3.070   0.220   2.362
   64DPPC   C19 3169   3.108   0.354   2.425
   64DPPC   C20 3170   3.116   0.340   2.577
   64DPPC   C21 3171   2.987   0.284   2.638
   64DPPC   C22 3172   3.001   0.271   2.790
   64DPPC   C23 3173   3.129   0.201   2.837
   64DPPC   C24 3174   3.179   0.266   2.966
   64DPPC   C25 3175   3.305   0.209   3.030
   64DPPC   C26 3176   3.264   0.090   3.117
   64DPPC   C27 3177   3.391   0.010   3.148
   64DPPC   C28 3178   3.342  -0.116   3.220
   64DPPC   C29 3179   3.459  -0.215   3.221
   64DPPC   C30 3180   3.488  -0.268   3.080
   64DPPC   C31 3181   3.570  -0.396   3.096
   64DPPC   C32 3182   3.481   0.472   2.178
   64DPPC   O33 3183   3.521   0.430   2.308
   64DPPC   C34 3184   3.614   0.330   2.308
   64DPPC   O35 3185   3.682   0.307   2.209
   64DPPC   C36 3186   3.648   0.266   2.443
   64DPPC   C37 3187   3.537   0.177   2.500
   64DPPC   C38 3188   3.547   0.192   2.652
   64DPPC   C39 3189   3.680   0.149   2.713
   64DPPC   C40 3190   3.685  -0.004   2.700
   64DPPC   C41 3191   3.827  -0.051   2.730
   64DPPC   C42 3192   3.868   0.004   2.866
   64DPPC   C43 3193   3.987  -0.071   2.927
   64DPPC   C44 3194   3.937  -0.215   2.946
   64DPPC   C45 3195   4.048  -0.305   3.001
   64DPPC   C46 3196   3.989  -0.431   3.066
   64DPPC   C47 3197   4.104  -0.526   3.101
   64DPPC   C48 3198   4.042  -0.658   3.148
   64DPPC   C49 3199   4.156  -0.758   3.168
   64DPPC   C50 3200   4.227  -0.783   3.034
   65DPPC    C1 3201   2.328   5.107   5.469
   65DPPC    C2 3202   2.507   5.078   5.317
   65DPPC    C3 3203   2.492   4.939   5.513
   65DPPC    N4 3204   2.415   5.006   5.407
   65DPPC    C5 3205   2.333   4.899   5.349
   65DPPC    C6 3206   2.385   4.779   5.271
   65DPPC    O7 3207   2.292   4.670   5.261
   65DPPC    P8 3208   2.372   4.537   5.219
   65DPPC    O9 3209   2.256   4.446   5.213
   65DPPC   O10 3210   2.486   4.525   5.313
   65DPPC   O11 3211   2.432   4.582   5.076
   65DPPC   C12 3212   2.355   4.534   4.966
   65DPPC   C13 3213   2.415   4.581   4.834
   65DPPC   O14 3214   2.325   4.577   4.722
   65DPPC   C15 3215   2.231   4.673   4.699
   65DPPC   O16 3216   2.221   4.764   4.781
   65DPPC   C17 3217   2.177   4.685   4.557
   65DPPC   C18 3218   2.215   4.815   4.485
   65DPPC   C19 3219   2.366   4.838   4.472
   65DPPC   C20 3220   2.388   4.959   4.380
   65DPPC   C21 3221   2.535   4.970   4.338
   65DPPC   C22 3222   2.555   5.096   4.254
   65DPPC   C23 3223   2.444   5.089   4.148
   65DPPC   C24 3224   2.484   5.203   4.054
   65DPPC   C25 3225   2.621   5.170   3.994
   65DPPC   C26 3226   2.685   5.285   3.917
   65DPPC   C27 3227   2.829   5.244   3.882
   65DPPC   C28 3228   2.898   5.349   3.795
   65DPPC   C29 3229   3.041   5.299   3.772
   65DPPC   C30 3230   3.125   5.397   3.691
   65DPPC   C31 3231   3.264   5.334   3.680
   65DPPC   C32 3232   2.544   4.499   4.828
   65DPPC   O33 3233   2.541   4.357   4.841
   65DPPC   C34 3234   2.667   4.305   4.833
   65DPPC   O35 3235   2.768   4.373   4.847
   65DPPC   C36 3236   2.662   4.153   4.852
   65DPPC   C37 3237   2.599   4.056   4.752
   65DPPC   C38 3238   2.669   4.080   4.618
   65DPPC   C39 3239   2.614   3.993   4.505
   65DPPC   C40 3240   2.708   3.996   4.384
   65DPPC   C41 3241   2.669   3.928   4.252
   65DPPC   C42 3242   2.765   3.939   4.133
   65DPPC   C43 3243   2.753   4.078   4.069
   65DPPC   C44 3244   2.813   4.064   3.929
   65DPPC   C45 3245   2.769   4.185   3.847
   65DPPC   C46 3246   2.844   4.171   3.714
   65DPPC   C47 3247   2.768   4.101   3.601
   65DPPC   C48 3248   2.851   4.082   3.475
   65DPPC   C49 3249   2.772   3.996   3.377
   65DPPC   C50 3250   2.645   4.074   3.340
   66DPPC    C1 3251   8.053   1.334   1.248
   66DPPC    C2 3252   8.018   1.566   1.254
   66DPPC    C3 3253   8.107   1.464   1.443
   66DPPC    N4 3254   8.111   1.460   1.296
   66DPPC    C5 3255   8.234   1.491   1.222
   66DPPC    C6 3256   8.344   1.385   1.227
   66DPPC    O7 3257   8.458   1.438   1.159
   66DPPC    P8 3258   8.585   1.340   1.143
   66DPPC    O9 3259   8.709   1.392   1.082
   66DPPC   O10 3260   8.529   1.213   1.090
   66DPPC   O11 3261   8.605   1.321   1.301
   66DPPC   C12 3262   8.642   1.435   1.379
   66DPPC   C13 3263   8.597   1.409   1.523
   66DPPC   O14 3264   8.584   1.526   1.606
   66DPPC   C15 3265   8.468   1.596   1.588
   66DPPC   O16 3266   8.405   1.587   1.483
   66DPPC   C17 3267   8.424   1.692   1.699
   66DPPC   C18 3268   8.339   1.624   1.807
   66DPPC   C19 3269   8.288   1.704   1.926
   66DPPC   C20 3270   8.187   1.813   1.890
   66DPPC   C21 3271   8.089   1.844   2.003
   66DPPC   C22 3272   7.999   1.964   1.972
   66DPPC   C23 3273   7.879   1.960   2.068
   66DPPC   C24 3274   7.806   2.093   2.051
   66DPPC   C25 3275   7.677   2.107   2.131
   66DPPC   C26 3276   7.695   2.086   2.281
   66DPPC   C27 3277   7.578   2.105   2.377
   66DPPC   C28 3278   7.616   2.059   2.517
   66DPPC   C29 3279   7.495   2.078   2.610
   66DPPC   C30 3280   7.539   2.069   2.756
   66DPPC   C31 3281   7.428   2.092   2.859
   66DPPC   C32 3282   8.685   1.292   1.568
   66DPPC   O33 3283   8.659   1.238   1.697
   66DPPC   C34 3284   8.540   1.180   1.728
   66DPPC   O35 3285   8.439   1.205   1.663
   66DPPC   C36 3286   8.538   1.095   1.856
   66DPPC   C37 3287   8.572   1.175   1.982
   66DPPC   C38 3288   8.612   1.078   2.093
   66DPPC   C39 3289   8.638   1.142   2.229
   66DPPC   C40 3290   8.658   1.049   2.349
   66DPPC   C41 3291   8.785   0.963   2.341
   66DPPC   C42 3292   8.808   0.893   2.475
   66DPPC   C43 3293   8.825   0.980   2.600
   66DPPC   C44 3294   8.861   0.889   2.718
   66DPPC   C45 3295   8.850   0.973   2.845
   66DPPC   C46 3296   8.826   0.886   2.969
   66DPPC   C47 3297   8.947   0.793   2.980
   66DPPC   C48 3298   8.935   0.711   3.109
   66DPPC   C49 3299   9.046   0.610   3.139
   66DPPC   C50 3300   9.030   0.526   3.266
   67DPPC    C1 3301   4.813   3.013   5.789
   67DPPC    C2 3302   4.618   2.900   5.794
   67DPPC    C3 3303   4.631   3.072   5.639
   67DPPC    N4 3304   4.710   2.962   5.698
   67DPPC    C5 3305   4.766   2.863   5.605
   67DPPC    C6 3306   4.850   2.749   5.665
   67DPPC    O7 3307   4.941   2.687   5.575
   67DPPC    P8 3308   5.005   2.562   5.654
   67DPPC    O9 3309   4.952   2.539   5.791
   67DPPC   O10 3310   5.150   2.563   5.623
   67DPPC   O11 3311   4.937   2.445   5.567
   67DPPC   C12 3312   4.976   2.463   5.431
   67DPPC   C13 3313   4.922   2.355   5.337
   67DPPC   O14 3314   4.994   2.344   5.214
   67DPPC   C15 3315   5.101   2.260   5.215
   67DPPC   O16 3316   5.136   2.206   5.320
   67DPPC   C17 3317   5.185   2.244   5.088
   67DPPC   C18 3318   5.184   2.095   5.053
   67DPPC   C19 3319   5.254   2.092   4.917
   67DPPC   C20 3320   5.385   2.167   4.939
   67DPPC   C21 3321   5.469   2.167   4.812
   67DPPC   C22 3322   5.614   2.213   4.826
   67DPPC   C23 3323   5.693   2.204   4.695
   67DPPC   C24 3324   5.627   2.281   4.580
   67DPPC   C25 3325   5.714   2.284   4.455
   67DPPC   C26 3326   5.645   2.363   4.343
   67DPPC   C27 3327   5.723   2.342   4.213
   67DPPC   C28 3328   5.640   2.379   4.089
   67DPPC   C29 3329   5.706   2.349   3.955
   67DPPC   C30 3330   5.640   2.425   3.840
   67DPPC   C31 3331   5.716   2.387   3.713
   67DPPC   C32 3332   4.772   2.375   5.317
   67DPPC   O33 3333   4.724   2.490   5.247
   67DPPC   C34 3334   4.589   2.503   5.252
   67DPPC   O35 3335   4.526   2.476   5.354
   67DPPC   C36 3336   4.533   2.568   5.126
   67DPPC   C37 3337   4.535   2.721   5.137
   67DPPC   C38 3338   4.468   2.770   5.008
   67DPPC   C39 3339   4.511   2.724   4.869
   67DPPC   C40 3340   4.435   2.792   4.754
   67DPPC   C41 3341   4.496   2.756   4.619
   67DPPC   C42 3342   4.455   2.853   4.508
   67DPPC   C43 3343   4.489   2.998   4.541
   67DPPC   C44 3344   4.431   3.075   4.421
   67DPPC   C45 3345   4.486   3.021   4.289
   67DPPC   C46 3346   4.445   3.105   4.167
   67DPPC   C47 3347   4.510   3.056   4.037
   67DPPC   C48 3348   4.477   3.142   3.915
   67DPPC   C49 3349   4.536   3.062   3.799
   67DPPC   C50 3350   4.559   3.156   3.681
   68DPPC    C1 3351   0.618   4.029   0.905
   68DPPC    C2 3352   0.815   3.931   0.811
   68DPPC    C3 3353   0.857   4.089   0.957
   68DPPC    N4 3354   0.755   3.985   0.934
   68DPPC    C5 3355   0.758   3.887   1.043
   68DPPC    C6 3356   0.697   3.749   1.013
   68DPPC    O7 3357   0.715   3.652   1.116
   68DPPC    P8 3358   0.647   3.509   1.088
   68DPPC    O9 3359   0.741   3.397   1.110
   68DPPC   O10 3360   0.575   3.515   0.958
   68DPPC   O11 3361   0.558   3.536   1.219
   68DPPC   C12 3362   0.646   3.516   1.330
   68DPPC   C13 3363   0.611   3.612   1.444
   68DPPC   O14 3364   0.685   3.572   1.560
   68DPPC   C15 3365   0.795   3.641   1.601
   68DPPC   O16 3366   0.850   3.724   1.529
   68DPPC   C17 3367   0.837   3.605   1.744
   68DPPC   C18 3368   0.757   3.668   1.858
   68DPPC   C19 3369   0.739   3.815   1.822
   68DPPC   C20 3370   0.646   3.875   1.928
   68DPPC   C21 3371   0.712   3.855   2.064
   68DPPC   C22 3372   0.610   3.927   2.152
   68DPPC   C23 3373   0.640   3.921   2.302
   68DPPC   C24 3374   0.531   4.000   2.374
   68DPPC   C25 3375   0.522   4.150   2.343
   68DPPC   C26 3376   0.395   4.213   2.400
   68DPPC   C27 3377   0.392   4.184   2.551
   68DPPC   C28 3378   0.266   4.228   2.626
   68DPPC   C29 3379   0.261   4.207   2.777
   68DPPC   C30 3380   0.260   4.058   2.810
   68DPPC   C31 3381   0.242   4.028   2.959
   68DPPC   C32 3382   0.460   3.598   1.468
   68DPPC   O33 3383   0.404   3.704   1.546
   68DPPC   C34 3384   0.294   3.664   1.615
   68DPPC   O35 3385   0.226   3.573   1.570
   68DPPC   C36 3386   0.223   3.772   1.698
   68DPPC   C37 3387   0.222   3.739   1.848
   68DPPC   C38 3388   0.195   3.850   1.949
   68DPPC   C39 3389   0.047   3.889   1.950
   68DPPC   C40 3390  -0.051   3.798   2.024
   68DPPC   C41 3391  -0.194   3.846   1.999
   68DPPC   C42 3392  -0.291   3.748   2.065
   68DPPC   C43 3393  -0.262   3.757   2.215
   68DPPC   C44 3394  -0.365   3.656   2.267
   68DPPC   C45 3395  -0.500   3.724   2.284
   68DPPC   C46 3396  -0.494   3.845   2.378
   68DPPC   C47 3397  -0.635   3.904   2.372
   68DPPC   C48 3398  -0.667   4.030   2.453
   68DPPC   C49 3399  -0.811   4.078   2.432
   68DPPC   C50 3400  -0.897   3.969   2.495
   69DPPC    C1 3401   5.424   2.600   6.152
   69DPPC    C2 3402   5.487   2.605   5.925
   69DPPC    C3 3403   5.430   2.396   6.030
   69DPPC    N4 3404   5.397   2.539   6.021
   69DPPC    C5 3405   5.258   2.572   5.986
   69DPPC    C6 3406   5.203   2.707   6.033
   69DPPC    O7 3407   5.252   2.827   5.971
   69DPPC    P8 3408   5.161   2.959   5.956
   69DPPC    O9 3409   5.246   3.066   6.014
   69DPPC   O10 3410   5.030   2.918   6.010
   69DPPC   O11 3411   5.168   2.940   5.797
   69DPPC   C12 3412   5.295   2.968   5.738
   69DPPC   C13 3413   5.275   2.935   5.590
   69DPPC   O14 3414   5.385   2.979   5.509
   69DPPC   C15 3415   5.413   3.104   5.462
   69DPPC   O16 3416   5.370   3.200   5.525
   69DPPC   C17 3417   5.531   3.119   5.367
   69DPPC   C18 3418   5.463   3.104   5.230
   69DPPC   C19 3419   5.570   3.108   5.120
   69DPPC   C20 3420   5.525   3.059   4.982
   69DPPC   C21 3421   5.641   3.074   4.883
   69DPPC   C22 3422   5.600   3.056   4.737
   69DPPC   C23 3423   5.722   3.104   4.659
   69DPPC   C24 3424   5.680   3.156   4.521
   69DPPC   C25 3425   5.809   3.217   4.468
   69DPPC   C26 3426   5.805   3.287   4.332
   69DPPC   C27 3427   5.760   3.191   4.222
   69DPPC   C28 3428   5.721   3.258   4.090
   69DPPC   C29 3429   5.686   3.148   3.991
   69DPPC   C30 3430   5.667   3.211   3.853
   69DPPC   C31 3431   5.632   3.108   3.745
   69DPPC   C32 3432   5.139   2.991   5.551
   69DPPC   O33 3433   5.108   2.950   5.417
   69DPPC   C34 3434   4.998   3.001   5.355
   69DPPC   O35 3435   4.920   3.077   5.411
   69DPPC   C36 3436   4.999   2.989   5.203
   69DPPC   C37 3437   4.939   2.855   5.160
   69DPPC   C38 3438   4.993   2.811   5.024
   69DPPC   C39 3439   4.936   2.676   4.979
   69DPPC   C40 3440   4.949   2.657   4.827
   69DPPC   C41 3441   4.961   2.509   4.791
   69DPPC   C42 3442   5.016   2.482   4.651
   69DPPC   C43 3443   5.069   2.340   4.628
   69DPPC   C44 3444   5.133   2.319   4.491
   69DPPC   C45 3445   5.192   2.178   4.495
   69DPPC   C46 3446   5.290   2.151   4.381
   69DPPC   C47 3447   5.219   2.179   4.248
   69DPPC   C48 3448   5.318   2.143   4.137
   69DPPC   C49 3449   5.254   2.166   4.000
   69DPPC   C50 3450   5.226   2.316   3.994
   70DPPC    C1 3451   2.636   0.088   5.059
   70DPPC    C2 3452   2.731  -0.023   4.865
   70DPPC    C3 3453   2.861   0.077   5.048
   70DPPC    N4 3454   2.743  -0.001   5.010
   70DPPC    C5 3455   2.721  -0.115   5.101
   70DPPC    C6 3456   2.829  -0.224   5.107
   70DPPC    O7 3457   2.875  -0.278   4.983
   70DPPC    P8 3458   2.930  -0.426   5.012
   70DPPC    O9 3459   2.815  -0.482   5.086
   70DPPC   O10 3460   3.054  -0.384   5.081
   70DPPC   O11 3461   2.935  -0.477   4.859
   70DPPC   C12 3462   2.806  -0.471   4.799
   70DPPC   C13 3463   2.825  -0.496   4.649
   70DPPC   O14 3464   2.846  -0.631   4.608
   70DPPC   C15 3465   2.753  -0.730   4.620
   70DPPC   O16 3466   2.640  -0.703   4.658
   70DPPC   C17 3467   2.789  -0.869   4.568
   70DPPC   C18 3468   2.814  -0.849   4.418
   70DPPC   C19 3469   2.816  -0.979   4.337
   70DPPC   C20 3470   2.872  -0.940   4.200
   70DPPC   C21 3471   3.014  -0.884   4.216
   70DPPC   C22 3472   3.061  -0.840   4.077
   70DPPC   C23 3473   3.212  -0.831   4.051
   70DPPC   C24 3474   3.247  -0.758   3.921
   70DPPC   C25 3475   3.390  -0.702   3.921
   70DPPC   C26 3476   3.403  -0.635   3.784
   70DPPC   C27 3477   3.550  -0.601   3.762
   70DPPC   C28 3478   3.583  -0.522   3.634
   70DPPC   C29 3479   3.731  -0.552   3.610
   70DPPC   C30 3480   3.816  -0.504   3.728
   70DPPC   C31 3481   3.963  -0.532   3.696
   70DPPC   C32 3482   2.937  -0.404   4.599
   70DPPC   O33 3483   2.893  -0.268   4.593
   70DPPC   C34 3484   2.988  -0.180   4.553
   70DPPC   O35 3485   3.100  -0.221   4.523
   70DPPC   C36 3486   2.943  -0.037   4.523
   70DPPC   C37 3487   3.014   0.026   4.403
   70DPPC   C38 3488   2.941   0.154   4.361
   70DPPC   C39 3489   2.985   0.196   4.220
   70DPPC   C40 3490   2.908   0.099   4.129
   70DPPC   C41 3491   2.951   0.102   3.982
   70DPPC   C42 3492   2.901  -0.024   3.910
   70DPPC   C43 3493   2.749  -0.034   3.919
   70DPPC   C44 3494   2.691   0.080   3.836
   70DPPC   C45 3495   2.636   0.037   3.700
   70DPPC   C46 3496   2.484   0.018   3.689
   70DPPC   C47 3497   2.441  -0.044   3.556
   70DPPC   C48 3498   2.292  -0.075   3.538
   70DPPC   C49 3499   2.262  -0.162   3.416
   70DPPC   C50 3500   2.111  -0.179   3.399
   71DPPC    C1 3501   3.928   3.729   5.315
   71DPPC    C2 3502   3.963   3.818   5.540
   71DPPC    C3 3503   3.979   3.584   5.479
   71DPPC    N4 3504   4.008   3.722   5.438
   71DPPC    C5 3505   4.151   3.753   5.421
   71DPPC    C6 3506   4.238   3.760   5.546
   71DPPC    O7 3507   4.253   3.633   5.609
   71DPPC    P8 3508   4.353   3.634   5.735
   71DPPC    O9 3509   4.334   3.515   5.821
   71DPPC   O10 3510   4.351   3.768   5.798
   71DPPC   O11 3511   4.483   3.631   5.640
   71DPPC   C12 3512   4.513   3.498   5.596
   71DPPC   C13 3513   4.589   3.498   5.463
   71DPPC   O14 3514   4.730   3.522   5.463
   71DPPC   C15 3515   4.800   3.410   5.495
   71DPPC   O16 3516   4.763   3.343   5.591
   71DPPC   C17 3517   4.949   3.412   5.459
   71DPPC   C18 3518   4.965   3.390   5.309
   71DPPC   C19 3519   5.105   3.427   5.261
   71DPPC   C20 3520   5.127   3.379   5.117
   71DPPC   C21 3521   5.250   3.439   5.049
   71DPPC   C22 3522   5.226   3.404   4.902
   71DPPC   C23 3523   5.255   3.256   4.873
   71DPPC   C24 3524   5.248   3.234   4.722
   71DPPC   C25 3525   5.322   3.325   4.623
   71DPPC   C26 3526   5.314   3.263   4.484
   71DPPC   C27 3527   5.361   3.354   4.370
   71DPPC   C28 3528   5.321   3.289   4.237
   71DPPC   C29 3529   5.366   3.378   4.121
   71DPPC   C30 3530   5.321   3.323   3.986
   71DPPC   C31 3531   5.360   3.415   3.870
   71DPPC   C32 3532   4.507   3.585   5.367
   71DPPC   O33 3533   4.530   3.557   5.229
   71DPPC   C34 3534   4.451   3.626   5.142
   71DPPC   O35 3535   4.379   3.718   5.179
   71DPPC   C36 3536   4.452   3.590   4.994
   71DPPC   C37 3537   4.359   3.474   4.958
   71DPPC   C38 3538   4.336   3.433   4.813
   71DPPC   C39 3539   4.228   3.324   4.818
   71DPPC   C40 3540   4.171   3.298   4.679
   71DPPC   C41 3541   4.118   3.428   4.618
   71DPPC   C42 3542   4.100   3.407   4.468
   71DPPC   C43 3543   4.049   3.529   4.392
   71DPPC   C44 3544   4.045   3.491   4.244
   71DPPC   C45 3545   4.192   3.467   4.212
   71DPPC   C46 3546   4.219   3.405   4.075
   71DPPC   C47 3547   4.165   3.492   3.960
   71DPPC   C48 3548   4.228   3.454   3.826
   71DPPC   C49 3549   4.216   3.565   3.722
   71DPPC   C50 3550   4.072   3.591   3.677
   72DPPC    C1 3551   0.881   8.461   4.555
   72DPPC    C2 3552   1.039   8.605   4.646
   72DPPC    C3 3553   0.809   8.618   4.711
   72DPPC    N4 3554   0.920   8.526   4.681
   72DPPC    C5 3555   0.938   8.429   4.791
   72DPPC    C6 3556   1.028   8.307   4.775
   72DPPC    O7 3557   1.158   8.342   4.727
   72DPPC    P8 3558   1.265   8.221   4.718
   72DPPC    O9 3559   1.205   8.127   4.815
   72DPPC   O10 3560   1.400   8.280   4.732
   72DPPC   O11 3561   1.239   8.145   4.578
   72DPPC   C12 3562   1.220   8.253   4.486
   72DPPC   C13 3563   1.202   8.222   4.337
   72DPPC   O14 3564   1.218   8.341   4.259
   72DPPC   C15 3565   1.303   8.354   4.154
   72DPPC   O16 3566   1.399   8.280   4.130
   72DPPC   C17 3567   1.269   8.481   4.075
   72DPPC   C18 3568   1.292   8.456   3.926
   72DPPC   C19 3569   1.285   8.574   3.829
   72DPPC   C20 3570   1.281   8.520   3.685
   72DPPC   C21 3571   1.214   8.629   3.600
   72DPPC   C22 3572   1.249   8.618   3.452
   72DPPC   C23 3573   1.204   8.737   3.368
   72DPPC   C24 3574   1.231   8.711   3.220
   72DPPC   C25 3575   1.211   8.833   3.130
   72DPPC   C26 3576   1.217   8.801   2.981
   72DPPC   C27 3577   1.102   8.710   2.937
   72DPPC   C28 3578   0.972   8.785   2.966
   72DPPC   C29 3579   0.851   8.691   2.970
   72DPPC   C30 3580   0.733   8.782   3.004
   72DPPC   C31 3581   0.750   8.817   3.152
   72DPPC   C32 3582   1.073   8.141   4.325
   72DPPC   O33 3583   0.950   8.213   4.328
   72DPPC   C34 3584   0.848   8.135   4.284
   72DPPC   O35 3585   0.828   8.015   4.307
   72DPPC   C36 3586   0.722   8.210   4.241
   72DPPC   C37 3587   0.684   8.184   4.095
   72DPPC   C38 3588   0.564   8.264   4.046
   72DPPC   C39 3589   0.553   8.260   3.894
   72DPPC   C40 3590   0.536   8.112   3.857
   72DPPC   C41 3591   0.510   8.086   3.708
   72DPPC   C42 3592   0.368   8.129   3.672
   72DPPC   C43 3593   0.370   8.111   3.520
   72DPPC   C44 3594   0.252   8.184   3.457
   72DPPC   C45 3595   0.124   8.144   3.530
   72DPPC   C46 3596   0.009   8.213   3.457
   72DPPC   C47 3597  -0.125   8.158   3.506
   72DPPC   C48 3598  -0.223   8.226   3.409
   72DPPC   C49 3599  -0.367   8.189   3.446
   72DPPC   C50 3600  -0.381   8.038   3.430
   73DPPC    C1 3601   8.410   8.269   4.741
   73DPPC    C2 3602   8.321   8.154   4.544
   73DPPC    C3 3603   8.522   8.083   4.644
   73DPPC    N4 3604   8.390   8.140   4.673
   73DPPC    C5 3605   8.325   8.043   4.763
   73DPPC    C6 3606   8.201   8.079   4.846
   73DPPC    O7 3607   8.154   7.957   4.905
   73DPPC    P8 3608   8.003   7.947   4.959
   73DPPC    O9 3609   7.980   8.076   5.028
   73DPPC   O10 3610   7.989   7.814   5.023
   73DPPC   O11 3611   7.937   7.944   4.812
   73DPPC   C12 3612   7.965   7.815   4.758
   73DPPC   C13 3613   7.895   7.775   4.628
   73DPPC   O14 3614   7.940   7.848   4.513
   73DPPC   C15 3615   8.061   7.825   4.457
   73DPPC   O16 3616   8.151   7.778   4.527
   73DPPC   C17 3617   8.099   7.900   4.329
   73DPPC   C18 3618   8.134   7.801   4.218
   73DPPC   C19 3619   8.021   7.716   4.159
   73DPPC   C20 3620   8.090   7.617   4.065
   73DPPC   C21 3621   8.097   7.479   4.130
   73DPPC   C22 3622   8.155   7.376   4.033
   73DPPC   C23 3623   8.288   7.429   3.980
   73DPPC   C24 3624   8.337   7.341   3.865
   73DPPC   C25 3625   8.252   7.350   3.737
   73DPPC   C26 3626   8.325   7.301   3.612
   73DPPC   C27 3627   8.390   7.166   3.646
   73DPPC   C28 3628   8.459   7.129   3.514
   73DPPC   C29 3629   8.574   7.220   3.471
   73DPPC   C30 3630   8.632   7.187   3.333
   73DPPC   C31 3631   8.763   7.258   3.296
   73DPPC   C32 3632   7.745   7.784   4.653
   73DPPC   O33 3633   7.664   7.756   4.539
   73DPPC   C34 3634   7.673   7.629   4.492
   73DPPC   O35 3635   7.732   7.544   4.557
   73DPPC   C36 3636   7.611   7.597   4.356
   73DPPC   C37 3637   7.657   7.462   4.298
   73DPPC   C38 3638   7.584   7.423   4.170
   73DPPC   C39 3639   7.604   7.526   4.059
   73DPPC   C40 3640   7.549   7.476   3.925
   73DPPC   C41 3641   7.590   7.581   3.821
   73DPPC   C42 3642   7.581   7.523   3.679
   73DPPC   C43 3643   7.658   7.624   3.593
   73DPPC   C44 3644   7.717   7.564   3.465
   73DPPC   C45 3645   7.789   7.664   3.375
   73DPPC   C46 3646   7.697   7.782   3.344
   73DPPC   C47 3647   7.762   7.885   3.251
   73DPPC   C48 3648   7.875   7.959   3.322
   73DPPC   C49 3649   7.833   8.102   3.355
   73DPPC   C50 3650   7.964   8.170   3.395
   74DPPC    C1 3651   5.808   4.822   5.580
   74DPPC    C2 3652   5.603   4.931   5.489
   74DPPC    C3 3653   5.812   5.022   5.455
   74DPPC    N4 3654   5.744   4.893   5.469
   74DPPC    C5 3655   5.738   4.808   5.349
   74DPPC    C6 3656   5.860   4.796   5.257
   74DPPC    O7 3657   5.859   4.677   5.177
   74DPPC    P8 3658   6.017   4.660   5.155
   74DPPC    O9 3659   6.047   4.545   5.067
   74DPPC   O10 3660   6.091   4.677   5.283
   74DPPC   O11 3661   6.051   4.792   5.069
   74DPPC   C12 3662   6.159   4.758   4.982
   74DPPC   C13 3663   6.181   4.850   4.862
   74DPPC   O14 3664   6.312   4.850   4.804
   74DPPC   C15 3665   6.345   4.748   4.720
   74DPPC   O16 3666   6.280   4.644   4.729
   74DPPC   C17 3667   6.468   4.778   4.635
   74DPPC   C18 3668   6.430   4.782   4.487
   74DPPC   C19 3669   6.550   4.836   4.409
   74DPPC   C20 3670   6.506   4.842   4.262
   74DPPC   C21 3671   6.389   4.939   4.241
   74DPPC   C22 3672   6.312   4.904   4.113
   74DPPC   C23 3673   6.405   4.913   3.992
   74DPPC   C24 3674   6.323   4.903   3.864
   74DPPC   C25 3675   6.414   4.929   3.743
   74DPPC   C26 3676   6.336   4.895   3.616
   74DPPC   C27 3677   6.437   4.841   3.515
   74DPPC   C28 3678   6.376   4.773   3.392
   74DPPC   C29 3679   6.311   4.644   3.442
   74DPPC   C30 3680   6.398   4.549   3.525
   74DPPC   C31 3681   6.312   4.432   3.572
   74DPPC   C32 3682   6.153   4.989   4.920
   74DPPC   O33 3683   6.113   5.073   4.811
   74DPPC   C34 3684   6.124   5.207   4.829
   74DPPC   O35 3685   6.135   5.253   4.942
   74DPPC   C36 3686   6.119   5.305   4.712
   74DPPC   C37 3687   6.098   5.225   4.583
   74DPPC   C38 3688   6.137   5.316   4.466
   74DPPC   C39 3689   6.284   5.356   4.483
   74DPPC   C40 3690   6.336   5.434   4.362
   74DPPC   C41 3691   6.353   5.339   4.243
   74DPPC   C42 3692   6.428   5.412   4.132
   74DPPC   C43 3693   6.414   5.335   4.001
   74DPPC   C44 3694   6.495   5.394   3.886
   74DPPC   C45 3695   6.448   5.331   3.755
   74DPPC   C46 3696   6.549   5.360   3.643
   74DPPC   C47 3697   6.502   5.290   3.516
   74DPPC   C48 3698   6.618   5.291   3.416
   74DPPC   C49 3699   6.566   5.244   3.280
   74DPPC   C50 3700   6.447   5.316   3.216
   75DPPC    C1 3701   3.692   1.463   5.538
   75DPPC    C2 3702   3.666   1.524   5.300
   75DPPC    C3 3703   3.583   1.329   5.394
   75DPPC    N4 3704   3.603   1.472   5.422
   75DPPC    C5 3705   3.489   1.554   5.464
   75DPPC    C6 3706   3.394   1.628   5.370
   75DPPC    O7 3707   3.458   1.748   5.324
   75DPPC    P8 3708   3.322   1.832   5.306
   75DPPC    O9 3709   3.288   1.864   5.446
   75DPPC   O10 3710   3.242   1.753   5.210
   75DPPC   O11 3711   3.376   1.964   5.231
   75DPPC   C12 3712   3.330   1.973   5.097
   75DPPC   C13 3713   3.388   2.098   5.030
   75DPPC   O14 3714   3.355   2.111   4.891
   75DPPC   C15 3715   3.376   2.229   4.828
   75DPPC   O16 3716   3.409   2.332   4.886
   75DPPC   C17 3717   3.355   2.239   4.677
   75DPPC   C18 3718   3.474   2.293   4.597
   75DPPC   C19 3719   3.593   2.197   4.604
   75DPPC   C20 3720   3.725   2.269   4.580
   75DPPC   C21 3721   3.845   2.175   4.572
   75DPPC   C22 3722   3.964   2.270   4.555
   75DPPC   C23 3723   4.094   2.194   4.529
   75DPPC   C24 3724   4.205   2.294   4.496
   75DPPC   C25 3725   4.170   2.388   4.381
   75DPPC   C26 3726   4.283   2.445   4.296
   75DPPC   C27 3727   4.232   2.540   4.187
   75DPPC   C28 3728   4.335   2.591   4.086
   75DPPC   C29 3729   4.264   2.647   3.962
   75DPPC   C30 3730   4.364   2.718   3.871
   75DPPC   C31 3731   4.285   2.790   3.761
   75DPPC   C32 3732   3.538   2.086   5.061
   75DPPC   O33 3733   3.592   1.957   5.031
   75DPPC   C34 3734   3.727   1.942   5.028
   75DPPC   O35 3735   3.793   2.024   5.091
   75DPPC   C36 3736   3.766   1.803   4.977
   75DPPC   C37 3737   3.797   1.819   4.828
   75DPPC   C38 3738   3.846   1.691   4.760
   75DPPC   C39 3739   3.885   1.707   4.612
   75DPPC   C40 3740   3.777   1.739   4.509
   75DPPC   C41 3741   3.829   1.767   4.368
   75DPPC   C42 3742   3.707   1.802   4.282
   75DPPC   C43 3743   3.773   1.857   4.156
   75DPPC   C44 3744   3.677   1.883   4.039
   75DPPC   C45 3745   3.610   1.751   4.002
   75DPPC   C46 3746   3.522   1.762   3.877
   75DPPC   C47 3747   3.617   1.798   3.763
   75DPPC   C48 3748   3.537   1.829   3.637
   75DPPC   C49 3749   3.641   1.849   3.526
   75DPPC   C50 3750   3.570   1.915   3.408
   76DPPC    C1 3751   5.830   0.012   5.085
   76DPPC    C2 3752   5.627   0.075   5.165
   76DPPC    C3 3753   5.761   0.244   5.061
   76DPPC    N4 3754   5.719   0.103   5.054
   76DPPC    C5 3755   5.664   0.058   4.925
   76DPPC    C6 3756   5.536   0.133   4.890
   76DPPC    O7 3757   5.456   0.094   4.778
   76DPPC    P8 3758   5.348   0.213   4.760
   76DPPC    O9 3759   5.427   0.333   4.724
   76DPPC   O10 3760   5.269   0.208   4.884
   76DPPC   O11 3761   5.279   0.128   4.642
   76DPPC   C12 3762   5.325   0.172   4.514
   76DPPC   C13 3763   5.216   0.182   4.406
   76DPPC   O14 3764   5.143   0.304   4.390
   76DPPC   C15 3765   5.212   0.410   4.339
   76DPPC   O16 3766   5.335   0.407   4.348
   76DPPC   C17 3767   5.135   0.541   4.325
   76DPPC   C18 3768   5.116   0.618   4.456
   76DPPC   C19 3769   5.038   0.749   4.438
   76DPPC   C20 3770   4.910   0.726   4.357
   76DPPC   C21 3771   4.824   0.848   4.322
   76DPPC   C22 3772   4.719   0.814   4.217
   76DPPC   C23 3773   4.806   0.768   4.100
   76DPPC   C24 3774   4.729   0.758   3.968
   76DPPC   C25 3775   4.784   0.653   3.872
   76DPPC   C26 3776   4.737   0.660   3.726
   76DPPC   C27 3777   4.805   0.550   3.645
   76DPPC   C28 3778   4.957   0.572   3.642
   76DPPC   C29 3779   5.041   0.445   3.651
   76DPPC   C30 3780   5.021   0.359   3.526
   76DPPC   C31 3781   5.119   0.241   3.527
   76DPPC   C32 3782   5.154   0.042   4.397
   76DPPC   O33 3783   5.255  -0.052   4.361
   76DPPC   C34 3784   5.218  -0.181   4.384
   76DPPC   O35 3785   5.135  -0.205   4.471
   76DPPC   C36 3786   5.310  -0.292   4.334
   76DPPC   C37 3787   5.330  -0.265   4.184
   76DPPC   C38 3788   5.474  -0.305   4.154
   76DPPC   C39 3789   5.508  -0.280   4.007
   76DPPC   C40 3790   5.602  -0.382   3.942
   76DPPC   C41 3791   5.523  -0.508   3.908
   76DPPC   C42 3792   5.601  -0.613   3.828
   76DPPC   C43 3793   5.517  -0.741   3.830
   76DPPC   C44 3794   5.393  -0.715   3.746
   76DPPC   C45 3795   5.338  -0.849   3.695
   76DPPC   C46 3796   5.222  -0.812   3.603
   76DPPC   C47 3797   5.267  -0.806   3.456
   76DPPC   C48 3798   5.316  -0.941   3.405
   76DPPC   C49 3799   5.403  -0.917   3.282
   76DPPC   C50 3800   5.420  -1.046   3.202
   77DPPC    C1 3801   9.244   6.055   4.568
   77DPPC    C2 3802   9.371   5.873   4.469
   77DPPC    C3 3803   9.337   5.881   4.702
   77DPPC    N4 3804   9.273   5.911   4.572
   77DPPC    C5 3805   9.158   5.823   4.545
   77DPPC    C6 3806   9.023   5.806   4.615
   77DPPC    O7 3807   9.043   5.737   4.738
   77DPPC    P8 3808   8.923   5.758   4.843
   77DPPC    O9 3809   8.841   5.876   4.809
   77DPPC   O10 3810   8.978   5.750   4.980
   77DPPC   O11 3811   8.841   5.621   4.816
   77DPPC   C12 3812   8.905   5.498   4.851
   77DPPC   C13 3813   8.820   5.376   4.813
   77DPPC   O14 3814   8.901   5.265   4.772
   77DPPC   C15 3815   8.918   5.156   4.852
   77DPPC   O16 3816   8.918   5.172   4.974
   77DPPC   C17 3817   8.956   5.019   4.796
   77DPPC   C18 3818   8.904   4.999   4.653
   77DPPC   C19 3819   8.992   4.895   4.585
   77DPPC   C20 3820   9.138   4.942   4.580
   77DPPC   C21 3821   9.228   4.820   4.558
   77DPPC   C22 3822   9.231   4.786   4.409
   77DPPC   C23 3823   9.293   4.904   4.334
   77DPPC   C24 3824   9.293   4.866   4.185
   77DPPC   C25 3825   9.340   4.982   4.098
   77DPPC   C26 3826   9.341   4.945   3.949
   77DPPC   C27 3827   9.410   5.057   3.871
   77DPPC   C28 3828   9.399   5.003   3.728
   77DPPC   C29 3829   9.452   5.100   3.623
   77DPPC   C30 3830   9.489   5.020   3.498
   77DPPC   C31 3831   9.366   4.991   3.411
   77DPPC   C32 3832   8.737   5.423   4.693
   77DPPC   O33 3833   8.669   5.318   4.623
   77DPPC   C34 3834   8.598   5.363   4.517
   77DPPC   O35 3835   8.621   5.474   4.470
   77DPPC   C36 3836   8.527   5.247   4.445
   77DPPC   C37 3837   8.451   5.282   4.317
   77DPPC   C38 3838   8.432   5.150   4.243
   77DPPC   C39 3839   8.449   5.189   4.096
   77DPPC   C40 3840   8.410   5.063   4.019
   77DPPC   C41 3841   8.478   4.928   4.045
   77DPPC   C42 3842   8.401   4.810   3.986
   77DPPC   C43 3843   8.466   4.675   4.017
   77DPPC   C44 3844   8.394   4.554   3.957
   77DPPC   C45 3845   8.441   4.410   3.977
   77DPPC   C46 3846   8.397   4.327   3.856
   77DPPC   C47 3847   8.449   4.389   3.726
   77DPPC   C48 3848   8.428   4.311   3.597
   77DPPC   C49 3849   8.496   4.377   3.477
   77DPPC   C50 3850   8.490   4.291   3.351
   78DPPC    C1 3851   0.987   5.315   5.059
   78DPPC    C2 3852   1.082   5.135   4.971
   78DPPC    C3 3853   1.137   5.366   4.896
   78DPPC    N4 3854   1.119   5.273   5.008
   78DPPC    C5 3855   1.210   5.297   5.121
   78DPPC    C6 3856   1.352   5.240   5.108
   78DPPC    O7 3857   1.365   5.098   5.110
   78DPPC    P8 3858   1.516   5.055   5.073
   78DPPC    O9 3859   1.548   4.928   5.142
   78DPPC   O10 3860   1.589   5.181   5.099
   78DPPC   O11 3861   1.485   5.050   4.915
   78DPPC   C12 3862   1.430   4.922   4.882
   78DPPC   C13 3863   1.346   4.909   4.755
   78DPPC   O14 3864   1.280   4.785   4.727
   78DPPC   C15 3865   1.168   4.748   4.794
   78DPPC   O16 3866   1.087   4.825   4.846
   78DPPC   C17 3867   1.117   4.614   4.741
   78DPPC   C18 3868   1.053   4.620   4.603
   78DPPC   C19 3869   1.001   4.480   4.572
   78DPPC   C20 3870   0.949   4.483   4.428
   78DPPC   C21 3871   1.072   4.516   4.342
   78DPPC   C22 3872   1.055   4.563   4.197
   78DPPC   C23 3873   1.192   4.563   4.129
   78DPPC   C24 3874   1.181   4.590   3.979
   78DPPC   C25 3875   1.100   4.484   3.904
   78DPPC   C26 3876   1.087   4.529   3.759
   78DPPC   C27 3877   1.236   4.540   3.725
   78DPPC   C28 3878   1.245   4.616   3.593
   78DPPC   C29 3879   1.376   4.591   3.517
   78DPPC   C30 3880   1.369   4.450   3.457
   78DPPC   C31 3881   1.498   4.413   3.382
   78DPPC   C32 3882   1.445   4.946   4.644
   78DPPC   O33 3883   1.388   4.963   4.514
   78DPPC   C34 3884   1.483   5.004   4.426
   78DPPC   O35 3885   1.599   4.970   4.445
   78DPPC   C36 3886   1.438   5.094   4.310
   78DPPC   C37 3887   1.329   5.024   4.229
   78DPPC   C38 3888   1.391   4.921   4.134
   78DPPC   C39 3889   1.470   5.012   4.039
   78DPPC   C40 3890   1.564   4.930   3.951
   78DPPC   C41 3891   1.497   4.847   3.841
   78DPPC   C42 3892   1.603   4.775   3.757
   78DPPC   C43 3893   1.686   4.884   3.689
   78DPPC   C44 3894   1.789   4.827   3.591
   78DPPC   C45 3895   1.829   4.932   3.488
   78DPPC   C46 3896   1.883   5.055   3.561
   78DPPC   C47 3897   1.930   5.169   3.471
   78DPPC   C48 3898   1.999   5.280   3.551
   78DPPC   C49 3899   2.145   5.243   3.581
   78DPPC   C50 3900   2.225   5.365   3.626
   79DPPC    C1 3901   0.001   3.588   5.880
   79DPPC    C2 3902   0.022   3.590   5.645
   79DPPC    C3 3903  -0.201   3.562   5.743
   79DPPC    N4 3904  -0.068   3.624   5.756
   79DPPC    C5 3905  -0.065   3.771   5.751
   79DPPC    C6 3906  -0.165   3.852   5.668
   79DPPC    O7 3907  -0.125   3.850   5.531
   79DPPC    P8 3908  -0.251   3.925   5.465
   79DPPC    O9 3909  -0.263   4.058   5.529
   79DPPC   O10 3910  -0.357   3.822   5.459
   79DPPC   O11 3911  -0.178   3.932   5.321
   79DPPC   C12 3912  -0.123   3.806   5.282
   79DPPC   C13 3913  -0.075   3.808   5.137
   79DPPC   O14 3914  -0.038   3.674   5.101
   79DPPC   C15 3915  -0.120   3.571   5.068
   79DPPC   O16 3916  -0.230   3.568   5.123
   79DPPC   C17 3917  -0.066   3.456   4.984
   79DPPC   C18 3918  -0.047   3.500   4.838
   79DPPC   C19 3919  -0.037   3.375   4.750
   79DPPC   C20 3920  -0.058   3.413   4.603
   79DPPC   C21 3921  -0.045   3.289   4.515
   79DPPC   C22 3922  -0.081   3.336   4.374
   79DPPC   C23 3923  -0.099   3.220   4.275
   79DPPC   C24 3924  -0.149   3.270   4.140
   79DPPC   C25 3925  -0.168   3.157   4.039
   79DPPC   C26 3926  -0.168   3.223   3.901
   79DPPC   C27 3927  -0.193   3.126   3.786
   79DPPC   C28 3928  -0.186   3.212   3.660
   79DPPC   C29 3929  -0.226   3.127   3.539
   79DPPC   C30 3930  -0.137   3.005   3.520
   79DPPC   C31 3931  -0.169   2.935   3.387
   79DPPC   C32 3932   0.042   3.906   5.149
   79DPPC   O33 3933   0.085   3.963   5.025
   79DPPC   C34 3934   0.180   4.059   5.031
   79DPPC   O35 3935   0.209   4.100   5.143
   79DPPC   C36 3936   0.247   4.110   4.903
   79DPPC   C37 3937   0.158   4.116   4.778
   79DPPC   C38 3938   0.247   4.131   4.655
   79DPPC   C39 3939   0.156   4.113   4.534
   79DPPC   C40 3940   0.050   4.221   4.505
   79DPPC   C41 3941  -0.044   4.177   4.393
   79DPPC   C42 3942   0.019   4.177   4.254
   79DPPC   C43 3943  -0.086   4.119   4.158
   79DPPC   C44 3944  -0.030   4.137   4.016
   79DPPC   C45 3945  -0.154   4.109   3.931
   79DPPC   C46 3946  -0.118   4.181   3.801
   79DPPC   C47 3947  -0.227   4.194   3.694
   79DPPC   C48 3948  -0.159   4.245   3.567
   79DPPC   C49 3949  -0.255   4.227   3.449
   79DPPC   C50 3950  -0.188   4.255   3.314
   80DPPC    C1 3951   0.504   4.380   5.476
   80DPPC    C2 3952   0.658   4.459   5.657
   80DPPC    C3 3953   0.530   4.265   5.683
   80DPPC    N4 3954   0.599   4.347   5.582
   80DPPC    C5 3955   0.704   4.268   5.516
   80DPPC    C6 3956   0.799   4.335   5.417
   80DPPC    O7 3957   0.917   4.256   5.398
   80DPPC    P8 3958   1.016   4.359   5.323
   80DPPC    O9 3959   1.151   4.309   5.356
   80DPPC   O10 3960   0.972   4.499   5.344
   80DPPC   O11 3961   0.955   4.299   5.186
   80DPPC   C12 3962   0.983   4.402   5.091
   80DPPC   C13 3963   0.923   4.361   4.956
   80DPPC   O14 3964   0.782   4.340   4.954
   80DPPC   C15 3965   0.694   4.442   4.935
   80DPPC   O16 3966   0.716   4.553   4.984
   80DPPC   C17 3967   0.558   4.392   4.889
   80DPPC   C18 3968   0.556   4.388   4.736
   80DPPC   C19 3969   0.590   4.515   4.658
   80DPPC   C20 3970   0.570   4.520   4.506
   80DPPC   C21 3971   0.615   4.651   4.441
   80DPPC   C22 3972   0.564   4.640   4.297
   80DPPC   C23 3973   0.682   4.602   4.206
   80DPPC   C24 3974   0.628   4.581   4.065
   80DPPC   C25 3975   0.750   4.528   3.989
   80DPPC   C26 3976   0.732   4.471   3.848
   80DPPC   C27 3977   0.692   4.570   3.739
   80DPPC   C28 3978   0.657   4.492   3.612
   80DPPC   C29 3979   0.641   4.574   3.484
   80DPPC   C30 3980   0.592   4.494   3.363
   80DPPC   C31 3981   0.586   4.572   3.232
   80DPPC   C32 3982   1.006   4.242   4.907
   80DPPC   O33 3983   1.121   4.279   4.829
   80DPPC   C34 3984   1.179   4.175   4.764
   80DPPC   O35 3985   1.131   4.064   4.785
   80DPPC   C36 3986   1.287   4.212   4.662
   80DPPC   C37 3987   1.273   4.118   4.542
   80DPPC   C38 3988   1.169   4.153   4.435
   80DPPC   C39 3989   1.154   4.043   4.330
   80DPPC   C40 3990   1.037   4.078   4.237
   80DPPC   C41 3991   1.008   3.962   4.142
   80DPPC   C42 3992   0.932   3.993   4.014
   80DPPC   C43 3993   0.969   4.099   3.910
   80DPPC   C44 3994   0.904   4.081   3.773
   80DPPC   C45 3995   0.961   4.147   3.647
   80DPPC   C46 3996   0.867   4.144   3.526
   80DPPC   C47 3997   0.948   4.091   3.407
   80DPPC   C48 3998   0.854   4.069   3.289
   80DPPC   C49 3999   0.927   3.999   3.175
   80DPPC   C50 4000   0.830   3.952   3.066
   81DPPC    C1 4001   5.857   4.177   5.161
   81DPPC    C2 4002   5.651   4.140   5.280
   81DPPC    C3 4003   5.826   4.251   5.384
   81DPPC    N4 4004   5.759   4.237   5.253
   81DPPC    C5 4005   5.703   4.358   5.192
   81DPPC    C6 4006   5.633   4.461   5.280
   81DPPC    O7 4007   5.534   4.410   5.371
   81DPPC    P8 4008   5.504   4.518   5.486
   81DPPC    O9 4009   5.641   4.566   5.515
   81DPPC   O10 4010   5.409   4.471   5.589
   81DPPC   O11 4011   5.435   4.638   5.403
   81DPPC   C12 4012   5.317   4.591   5.336
   81DPPC   C13 4013   5.233   4.705   5.278
   81DPPC   O14 4014   5.120   4.669   5.197
   81DPPC   C15 4015   5.001   4.656   5.260
   81DPPC   O16 4016   4.990   4.708   5.371
   81DPPC   C17 4017   4.875   4.606   5.189
   81DPPC   C18 4018   4.889   4.597   5.037
   81DPPC   C19 4019   4.762   4.551   4.967
   81DPPC   C20 4020   4.717   4.418   5.029
   81DPPC   C21 4021   4.588   4.366   4.963
   81DPPC   C22 4022   4.615   4.311   4.823
   81DPPC   C23 4023   4.478   4.301   4.756
   81DPPC   C24 4024   4.493   4.301   4.604
   81DPPC   C25 4025   4.353   4.266   4.554
   81DPPC   C26 4026   4.238   4.362   4.584
   81DPPC   C27 4027   4.110   4.291   4.539
   81DPPC   C28 4028   4.117   4.255   4.391
   81DPPC   C29 4029   4.029   4.135   4.353
   81DPPC   C30 4030   4.081   4.091   4.217
   81DPPC   C31 4031   4.000   3.987   4.139
   81DPPC   C32 4032   5.332   4.796   5.205
   81DPPC   O33 4033   5.419   4.749   5.101
   81DPPC   C34 4034   5.532   4.817   5.067
   81DPPC   O35 4035   5.557   4.928   5.113
   81DPPC   C36 4036   5.599   4.767   4.939
   81DPPC   C37 4037   5.573   4.619   4.907
   81DPPC   C38 4038   5.669   4.587   4.792
   81DPPC   C39 4039   5.667   4.438   4.757
   81DPPC   C40 4040   5.810   4.396   4.720
   81DPPC   C41 4041   5.847   4.249   4.699
   81DPPC   C42 4042   5.774   4.182   4.582
   81DPPC   C43 4043   5.815   4.237   4.445
   81DPPC   C44 4044   5.745   4.183   4.320
   81DPPC   C45 4045   5.779   4.233   4.180
   81DPPC   C46 4046   5.682   4.148   4.097
   81DPPC   C47 4047   5.666   4.200   3.954
   81DPPC   C48 4048   5.792   4.159   3.877
   81DPPC   C49 4049   5.789   4.217   3.736
   81DPPC   C50 4050   5.915   4.206   3.648
   82DPPC    C1 4051   9.110   5.623   5.259
   82DPPC    C2 4052   9.317   5.527   5.301
   82DPPC    C3 4053   9.132   5.444   5.404
   82DPPC    N4 4054   9.176   5.493   5.273
   82DPPC    C5 4055   9.151   5.413   5.152
   82DPPC    C6 4056   9.207   5.272   5.133
   82DPPC    O7 4057   9.348   5.280   5.113
   82DPPC    P8 4058   9.397   5.136   5.058
   82DPPC    O9 4059   9.328   5.034   5.140
   82DPPC   O10 4060   9.545   5.136   5.052
   82DPPC   O11 4061   9.335   5.151   4.910
   82DPPC   C12 4062   9.431   5.203   4.817
   82DPPC   C13 4063   9.389   5.172   4.673
   82DPPC   O14 4064   9.504   5.159   4.588
   82DPPC   C15 4065   9.566   5.039   4.573
   82DPPC   O16 4066   9.569   4.963   4.670
   82DPPC   C17 4067   9.696   5.046   4.493
   82DPPC   C18 4068   9.659   5.045   4.344
   82DPPC   C19 4069   9.779   5.059   4.251
   82DPPC   C20 4070   9.730   5.056   4.106
   82DPPC   C21 4071   9.856   5.060   4.020
   82DPPC   C22 4072   9.811   4.997   3.888
   82DPPC   C23 4073   9.904   5.051   3.780
   82DPPC   C24 4074   9.899   4.961   3.656
   82DPPC   C25 4075   9.992   5.017   3.548
   82DPPC   C26 4076   9.977   4.950   3.411
   82DPPC   C27 4077  10.066   5.016   3.304
   82DPPC   C28 4078  10.054   4.948   3.168
   82DPPC   C29 4079  10.101   5.034   3.051
   82DPPC   C30 4080  10.007   5.154   3.052
   82DPPC   C31 4081  10.041   5.247   2.935
   82DPPC   C32 4082   9.295   5.288   4.637
   82DPPC   O33 4083   9.201   5.255   4.535
   82DPPC   C34 4084   9.123   5.364   4.508
   82DPPC   O35 4085   9.150   5.477   4.547
   82DPPC   C36 4086   9.016   5.336   4.402
   82DPPC   C37 4087   9.075   5.341   4.261
   82DPPC   C38 4088   8.968   5.289   4.165
   82DPPC   C39 4089   8.976   5.137   4.169
   82DPPC   C40 4090   8.854   5.064   4.112
   82DPPC   C41 4091   8.810   5.112   3.974
   82DPPC   C42 4092   8.882   5.044   3.857
   82DPPC   C43 4093   8.814   5.090   3.727
   82DPPC   C44 4094   8.892   5.020   3.616
   82DPPC   C45 4095   8.844   5.049   3.474
   82DPPC   C46 4096   8.946   4.997   3.372
   82DPPC   C47 4097   9.017   4.863   3.392
   82DPPC   C48 4098   8.912   4.751   3.388
   82DPPC   C49 4099   8.970   4.610   3.381
   82DPPC   C50 4100   9.081   4.602   3.276
   83DPPC    C1 4101   7.523   5.219   5.621
   83DPPC    C2 4102   7.637   5.015   5.626
   83DPPC    C3 4103   7.411   5.015   5.641
   83DPPC    N4 4104   7.519   5.082   5.569
   83DPPC    C5 4105   7.516   5.091   5.422
   83DPPC    C6 4106   7.480   4.971   5.335
   83DPPC    O7 4107   7.584   4.873   5.329
   83DPPC    P8 4108   7.550   4.766   5.213
   83DPPC    O9 4109   7.404   4.745   5.219
   83DPPC   O10 4110   7.653   4.666   5.249
   83DPPC   O11 4111   7.592   4.848   5.081
   83DPPC   C12 4112   7.720   4.806   5.034
   83DPPC   C13 4113   7.819   4.912   4.985
   83DPPC   O14 4114   7.794   4.975   4.859
   83DPPC   C15 4115   7.853   5.096   4.838
   83DPPC   O16 4116   7.931   5.147   4.918
   83DPPC   C17 4117   7.851   5.144   4.693
   83DPPC   C18 4118   7.715   5.200   4.649
   83DPPC   C19 4119   7.690   5.227   4.501
   83DPPC   C20 4120   7.793   5.320   4.435
   83DPPC   C21 4121   7.799   5.311   4.282
   83DPPC   C22 4122   7.673   5.368   4.216
   83DPPC   C23 4123   7.702   5.376   4.066
   83DPPC   C24 4124   7.587   5.437   3.986
   83DPPC   C25 4125   7.615   5.426   3.836
   83DPPC   C26 4126   7.497   5.468   3.747
   83DPPC   C27 4127   7.522   5.449   3.597
   83DPPC   C28 4128   7.394   5.487   3.521
   83DPPC   C29 4129   7.413   5.479   3.369
   83DPPC   C30 4130   7.398   5.340   3.308
   83DPPC   C31 4131   7.430   5.332   3.159
   83DPPC   C32 4132   7.950   4.833   4.986
   83DPPC   O33 4133   7.951   4.714   4.906
   83DPPC   C34 4134   8.076   4.667   4.879
   83DPPC   O35 4135   8.179   4.723   4.914
   83DPPC   C36 4136   8.083   4.538   4.797
   83DPPC   C37 4137   8.203   4.531   4.702
   83DPPC   C38 4138   8.178   4.438   4.583
   83DPPC   C39 4139   8.311   4.412   4.512
   83DPPC   C40 4140   8.375   4.540   4.460
   83DPPC   C41 4141   8.502   4.491   4.390
   83DPPC   C42 4142   8.603   4.606   4.379
   83DPPC   C43 4143   8.717   4.577   4.282
   83DPPC   C44 4144   8.805   4.696   4.243
   83DPPC   C45 4145   8.940   4.643   4.196
   83DPPC   C46 4146   8.934   4.659   4.044
   83DPPC   C47 4147   9.062   4.611   3.974
   83DPPC   C48 4148   9.069   4.639   3.824
   83DPPC   C49 4149   9.212   4.603   3.783
   83DPPC   C50 4150   9.245   4.630   3.636
   84DPPC    C1 4151   0.786   7.164   4.387
   84DPPC    C2 4152   0.601   7.225   4.261
   84DPPC    C3 4153   0.653   6.991   4.288
   84DPPC    N4 4154   0.648   7.122   4.355
   84DPPC    C5 4155   0.562   7.134   4.473
   84DPPC    C6 4156   0.428   7.061   4.480
   84DPPC    O7 4157   0.314   7.105   4.405
   84DPPC    P8 4158   0.187   7.021   4.458
   84DPPC    O9 4159   0.168   7.043   4.603
   84DPPC   O10 4160   0.224   6.886   4.410
   84DPPC   O11 4161   0.067   7.088   4.375
   84DPPC   C12 4162   0.033   6.992   4.275
   84DPPC   C13 4163  -0.087   7.045   4.196
   84DPPC   O14 4164  -0.133   6.953   4.096
   84DPPC   C15 4165  -0.188   6.832   4.125
   84DPPC   O16 4166  -0.150   6.768   4.223
   84DPPC   C17 4167  -0.269   6.773   4.009
   84DPPC   C18 4168  -0.217   6.828   3.876
   84DPPC   C19 4169  -0.324   6.805   3.769
   84DPPC   C20 4170  -0.446   6.875   3.830
   84DPPC   C21 4171  -0.571   6.832   3.753
   84DPPC   C22 4172  -0.689   6.845   3.848
   84DPPC   C23 4173  -0.808   6.770   3.787
   84DPPC   C24 4174  -0.940   6.815   3.851
   84DPPC   C25 4175  -1.064   6.739   3.805
   84DPPC   C26 4176  -1.193   6.781   3.875
   84DPPC   C27 4177  -1.314   6.694   3.841
   84DPPC   C28 4178  -1.432   6.763   3.910
   84DPPC   C29 4179  -1.568   6.694   3.895
   84DPPC   C30 4180  -1.658   6.769   3.993
   84DPPC   C31 4181  -1.809   6.748   3.979
   84DPPC   C32 4182  -0.060   7.181   4.133
   84DPPC   O33 4183   0.009   7.192   4.009
   84DPPC   C34 4184   0.031   7.323   3.978
   84DPPC   O35 4185  -0.022   7.416   4.038
   84DPPC   C36 4186   0.078   7.343   3.833
   84DPPC   C37 4187   0.221   7.291   3.817
   84DPPC   C38 4188   0.266   7.301   3.671
   84DPPC   C39 4189   0.172   7.219   3.582
   84DPPC   C40 4190   0.172   7.080   3.645
   84DPPC   C41 4191   0.095   6.986   3.554
   84DPPC   C42 4192   0.120   6.839   3.590
   84DPPC   C43 4193   0.271   6.812   3.581
   84DPPC   C44 4194   0.304   6.672   3.632
   84DPPC   C45 4195   0.453   6.670   3.670
   84DPPC   C46 4196   0.486   6.788   3.761
   84DPPC   C47 4197   0.625   6.761   3.819
   84DPPC   C48 4198   0.714   6.744   3.695
   84DPPC   C49 4199   0.843   6.825   3.700
   84DPPC   C50 4200   0.925   6.812   3.571
   85DPPC    C1 4201   8.232   7.412   4.513
   85DPPC    C2 4202   8.161   7.470   4.724
   85DPPC    C3 4203   8.320   7.297   4.686
   85DPPC    N4 4204   8.283   7.434   4.649
   85DPPC    C5 4205   8.384   7.539   4.634
   85DPPC    C6 4206   8.475   7.594   4.745
   85DPPC    O7 4207   8.588   7.512   4.775
   85DPPC    P8 4208   8.728   7.592   4.779
   85DPPC    O9 4209   8.821   7.495   4.839
   85DPPC   O10 4210   8.695   7.725   4.835
   85DPPC   O11 4211   8.742   7.590   4.618
   85DPPC   C12 4212   8.770   7.455   4.581
   85DPPC   C13 4213   8.768   7.426   4.431
   85DPPC   O14 4214   8.739   7.289   4.401
   85DPPC   C15 4215   8.614   7.243   4.376
   85DPPC   O16 4216   8.515   7.303   4.417
   85DPPC   C17 4217   8.607   7.114   4.293
   85DPPC   C18 4218   8.474   7.082   4.225
   85DPPC   C19 4219   8.404   6.975   4.309
   85DPPC   C20 4220   8.267   6.947   4.246
   85DPPC   C21 4221   8.174   7.062   4.284
   85DPPC   C22 4222   8.037   7.046   4.218
   85DPPC   C23 4223   7.916   7.123   4.271
   85DPPC   C24 4224   7.812   7.107   4.160
   85DPPC   C25 4225   7.857   7.147   4.019
   85DPPC   C26 4226   7.745   7.139   3.916
   85DPPC   C27 4227   7.786   7.197   3.781
   85DPPC   C28 4228   7.908   7.133   3.716
   85DPPC   C29 4229   7.921   7.165   3.567
   85DPPC   C30 4230   8.046   7.096   3.511
   85DPPC   C31 4231   8.065   7.134   3.364
   85DPPC   C32 4232   8.899   7.482   4.375
   85DPPC   O33 4233   8.906   7.521   4.238
   85DPPC   C34 4234   9.020   7.584   4.197
   85DPPC   O35 4235   9.106   7.627   4.274
   85DPPC   C36 4236   9.025   7.611   4.047
   85DPPC   C37 4237   9.167   7.637   3.997
   85DPPC   C38 4238   9.175   7.714   3.865
   85DPPC   C39 4239   9.320   7.725   3.815
   85DPPC   C40 4240   9.323   7.788   3.676
   85DPPC   C41 4241   9.433   7.727   3.590
   85DPPC   C42 4242   9.422   7.774   3.445
   85DPPC   C43 4243   9.525   7.687   3.373
   85DPPC   C44 4244   9.538   7.689   3.220
   85DPPC   C45 4245   9.652   7.598   3.174
   85DPPC   C46 4246   9.627   7.450   3.204
   85DPPC   C47 4247   9.718   7.344   3.143
   85DPPC   C48 4248   9.644   7.212   3.165
   85DPPC   C49 4249   9.682   7.099   3.069
   85DPPC   C50 4250   9.830   7.069   3.091
   86DPPC    C1 4251   7.104   7.289   5.312
   86DPPC    C2 4252   7.311   7.255   5.173
   86DPPC    C3 4253   7.280   7.418   5.338
   86DPPC    N4 4254   7.251   7.278   5.305
   86DPPC    C5 4255   7.313   7.194   5.408
   86DPPC    C6 4256   7.304   7.042   5.388
   86DPPC    O7 4257   7.171   6.991   5.372
   86DPPC    P8 4258   7.182   6.833   5.340
   86DPPC    O9 4259   7.081   6.789   5.438
   86DPPC   O10 4260   7.323   6.789   5.339
   86DPPC   O11 4261   7.114   6.854   5.196
   86DPPC   C12 4262   7.200   6.849   5.082
   86DPPC   C13 4263   7.123   6.829   4.952
   86DPPC   O14 4264   7.214   6.834   4.841
   86DPPC   C15 4265   7.178   6.762   4.731
   86DPPC   O16 4266   7.089   6.678   4.742
   86DPPC   C17 4267   7.293   6.754   4.630
   86DPPC   C18 4268   7.254   6.704   4.491
   86DPPC   C19 4269   7.351   6.755   4.384
   86DPPC   C20 4270   7.285   6.726   4.249
   86DPPC   C21 4271   7.370   6.787   4.137
   86DPPC   C22 4272   7.347   6.938   4.129
   86DPPC   C23 4273   7.242   7.001   4.038
   86DPPC   C24 4274   7.246   7.153   4.059
   86DPPC   C25 4275   7.157   7.234   3.965
   86DPPC   C26 4276   7.212   7.227   3.823
   86DPPC   C27 4277   7.124   7.322   3.742
   86DPPC   C28 4278   7.180   7.355   3.603
   86DPPC   C29 4279   7.227   7.243   3.512
   86DPPC   C30 4280   7.299   7.291   3.385
   86DPPC   C31 4281   7.194   7.354   3.293
   86DPPC   C32 4282   7.007   6.928   4.942
   86DPPC   O33 4283   7.039   7.066   4.927
   86DPPC   C34 4284   6.934   7.151   4.947
   86DPPC   O35 4285   6.820   7.109   4.967
   86DPPC   C36 4286   6.977   7.297   4.963
   86DPPC   C37 4287   6.968   7.369   4.828
   86DPPC   C38 4288   6.828   7.410   4.781
   86DPPC   C39 4289   6.833   7.456   4.636
   86DPPC   C40 4290   6.921   7.581   4.638
   86DPPC   C41 4291   7.009   7.579   4.512
   86DPPC   C42 4292   7.086   7.709   4.489
   86DPPC   C43 4293   7.183   7.730   4.606
   86DPPC   C44 4294   7.267   7.856   4.583
   86DPPC   C45 4295   7.162   7.968   4.584
   86DPPC   C46 4296   7.205   8.101   4.520
   86DPPC   C47 4297   7.103   8.215   4.525
   86DPPC   C48 4298   7.183   8.328   4.460
   86DPPC   C49 4299   7.093   8.452   4.464
   86DPPC   C50 4300   7.151   8.549   4.361
   87DPPC    C1 4301   5.129   4.613   5.725
   87DPPC    C2 4302   4.973   4.476   5.834
   87DPPC    C3 4303   4.915   4.636   5.674
   87DPPC    N4 4304   5.011   4.529   5.702
   87DPPC    C5 4305   5.025   4.435   5.590
   87DPPC    C6 4306   5.141   4.336   5.588
   87DPPC    O7 4307   5.106   4.229   5.676
   87DPPC    P8 4308   5.224   4.122   5.700
   87DPPC    O9 4309   5.157   3.990   5.713
   87DPPC   O10 4310   5.301   4.189   5.807
   87DPPC   O11 4311   5.292   4.134   5.555
   87DPPC   C12 4312   5.255   4.022   5.474
   87DPPC   C13 4313   5.187   4.058   5.342
   87DPPC   O14 4314   5.139   3.943   5.271
   87DPPC   C15 4315   5.008   3.909   5.287
   87DPPC   O16 4316   4.936   3.949   5.378
   87DPPC   C17 4317   4.957   3.792   5.203
   87DPPC   C18 4318   4.835   3.817   5.115
   87DPPC   C19 4319   4.794   3.704   5.020
   87DPPC   C20 4320   4.902   3.684   4.913
   87DPPC   C21 4321   4.855   3.574   4.817
   87DPPC   C22 4322   4.971   3.544   4.722
   87DPPC   C23 4323   5.016   3.675   4.658
   87DPPC   C24 4324   5.140   3.653   4.570
   87DPPC   C25 4325   5.112   3.600   4.429
   87DPPC   C26 4326   5.023   3.697   4.351
   87DPPC   C27 4327   4.982   3.630   4.219
   87DPPC   C28 4328   4.864   3.698   4.148
   87DPPC   C29 4329   4.834   3.614   4.023
   87DPPC   C30 4330   4.702   3.669   3.969
   87DPPC   C31 4331   4.671   3.610   3.832
   87DPPC   C32 4332   5.277   4.155   5.266
   87DPPC   O33 4333   5.194   4.236   5.183
   87DPPC   C34 4334   5.264   4.303   5.087
   87DPPC   O35 4335   5.387   4.300   5.083
   87DPPC   C36 4336   5.181   4.349   4.967
   87DPPC   C37 4337   5.164   4.238   4.862
   87DPPC   C38 4338   5.079   4.125   4.920
   87DPPC   C39 4339   5.030   4.025   4.815
   87DPPC   C40 4340   4.925   4.096   4.730
   87DPPC   C41 4341   4.869   4.008   4.618
   87DPPC   C42 4342   4.746   4.063   4.545
   87DPPC   C43 4343   4.734   4.003   4.405
   87DPPC   C44 4344   4.604   4.061   4.350
   87DPPC   C45 4345   4.595   4.020   4.203
   87DPPC   C46 4346   4.493   4.113   4.137
   87DPPC   C47 4347   4.480   4.102   3.985
   87DPPC   C48 4348   4.448   3.956   3.954
   87DPPC   C49 4349   4.419   3.954   3.804
   87DPPC   C50 4350   4.303   4.038   3.751
   88DPPC    C1 4351   7.870   6.664   5.198
   88DPPC    C2 4352   7.737   6.480   5.269
   88DPPC    C3 4353   7.761   6.681   5.403
   88DPPC    N4 4354   7.746   6.627   5.268
   88DPPC    C5 4355   7.628   6.670   5.190
   88DPPC    C6 4356   7.588   6.817   5.183
   88DPPC    O7 4357   7.688   6.902   5.126
   88DPPC    P8 4358   7.644   7.057   5.126
   88DPPC    O9 4359   7.763   7.132   5.081
   88DPPC   O10 4360   7.568   7.089   5.249
   88DPPC   O11 4361   7.540   7.047   5.003
   88DPPC   C12 4362   7.605   7.002   4.884
   88DPPC   C13 4363   7.531   6.968   4.754
   88DPPC   O14 4364   7.620   6.941   4.644
   88DPPC   C15 4365   7.672   6.818   4.620
   88DPPC   O16 4366   7.664   6.741   4.715
   88DPPC   C17 4367   7.725   6.781   4.481
   88DPPC   C18 4368   7.714   6.631   4.451
   88DPPC   C19 4369   7.820   6.604   4.343
   88DPPC   C20 4370   7.817   6.458   4.298
   88DPPC   C21 4371   7.928   6.444   4.194
   88DPPC   C22 4372   7.881   6.374   4.066
   88DPPC   C23 4373   8.006   6.325   3.994
   88DPPC   C24 4374   7.971   6.267   3.856
   88DPPC   C25 4375   8.090   6.205   3.784
   88DPPC   C26 4376   8.061   6.195   3.634
   88DPPC   C27 4377   8.183   6.145   3.556
   88DPPC   C28 4378   8.139   6.076   3.427
   88DPPC   C29 4379   8.074   6.177   3.333
   88DPPC   C30 4380   8.063   6.138   3.186
   88DPPC   C31 4381   8.043   6.251   3.084
   88DPPC   C32 4382   7.444   7.091   4.730
   88DPPC   O33 4383   7.325   7.073   4.652
   88DPPC   C34 4384   7.244   7.183   4.656
   88DPPC   O35 4385   7.286   7.283   4.713
   88DPPC   C36 4386   7.102   7.163   4.604
   88DPPC   C37 4387   7.093   7.184   4.453
   88DPPC   C38 4388   6.958   7.144   4.393
   88DPPC   C39 4389   6.935   6.993   4.402
   88DPPC   C40 4390   6.788   6.963   4.368
   88DPPC   C41 4391   6.770   6.819   4.415
   88DPPC   C42 4392   6.622   6.779   4.419
   88DPPC   C43 4393   6.560   6.777   4.279
   88DPPC   C44 4394   6.424   6.708   4.268
   88DPPC   C45 4395   6.340   6.749   4.146
   88DPPC   C46 4396   6.250   6.632   4.107
   88DPPC   C47 4397   6.186   6.655   3.970
   88DPPC   C48 4398   6.100   6.531   3.941
   88DPPC   C49 4399   6.180   6.406   3.976
   88DPPC   C50 4400   6.118   6.284   3.906
   89DPPC    C1 4401   8.839   1.159   5.411
   89DPPC    C2 4402   8.893   1.381   5.426
   89DPPC    C3 4403   8.964   1.266   5.242
   89DPPC    N4 4404   8.847   1.281   5.329
   89DPPC    C5 4405   8.736   1.319   5.241
   89DPPC    C6 4406   8.596   1.365   5.283
   89DPPC    O7 4407   8.608   1.448   5.399
   89DPPC    P8 4408   8.476   1.540   5.408
   89DPPC    O9 4409   8.506   1.656   5.495
   89DPPC   O10 4410   8.368   1.441   5.425
   89DPPC   O11 4411   8.481   1.587   5.254
   89DPPC   C12 4412   8.376   1.672   5.207
   89DPPC   C13 4413   8.421   1.745   5.081
   89DPPC   O14 4414   8.315   1.833   5.040
   89DPPC   C15 4415   8.317   1.966   5.066
   89DPPC   O16 4416   8.379   2.005   5.165
   89DPPC   C17 4417   8.230   2.057   4.978
   89DPPC   C18 4418   8.211   2.012   4.833
   89DPPC   C19 4419   8.144   2.112   4.739
   89DPPC   C20 4420   8.115   2.050   4.602
   89DPPC   C21 4421   8.049   2.149   4.506
   89DPPC   C22 4422   7.917   2.197   4.567
   89DPPC   C23 4423   7.860   2.283   4.455
   89DPPC   C24 4424   7.729   2.345   4.504
   89DPPC   C25 4425   7.653   2.430   4.402
   89DPPC   C26 4426   7.608   2.342   4.285
   89DPPC   C27 4427   7.510   2.421   4.198
   89DPPC   C28 4428   7.562   2.552   4.138
   89DPPC   C29 4429   7.458   2.604   4.038
   89DPPC   C30 4430   7.516   2.735   3.985
   89DPPC   C31 4431   7.645   2.720   3.905
   89DPPC   C32 4432   8.466   1.646   4.973
   89DPPC   O33 4433   8.535   1.719   4.871
   89DPPC   C34 4434   8.564   1.660   4.752
   89DPPC   O35 4435   8.528   1.543   4.737
   89DPPC   C36 4436   8.642   1.734   4.642
   89DPPC   C37 4437   8.544   1.803   4.547
   89DPPC   C38 4438   8.609   1.928   4.488
   89DPPC   C39 4439   8.621   1.937   4.336
   89DPPC   C40 4440   8.486   1.956   4.266
   89DPPC   C41 4441   8.514   1.996   4.120
   89DPPC   C42 4442   8.391   1.972   4.033
   89DPPC   C43 4443   8.262   2.017   4.103
   89DPPC   C44 4444   8.144   1.960   4.024
   89DPPC   C45 4445   8.024   2.031   4.086
   89DPPC   C46 4446   7.898   1.990   4.008
   89DPPC   C47 4447   7.766   2.023   4.076
   89DPPC   C48 4448   7.657   1.957   3.991
   89DPPC   C49 4449   7.521   2.010   4.039
   89DPPC   C50 4450   7.417   1.973   3.933
   90DPPC    C1 4451   6.022   3.105   5.905
   90DPPC    C2 4452   5.862   3.271   5.812
   90DPPC    C3 4453   5.989   3.319   5.979
   90DPPC    N4 4454   6.000   3.241   5.855
   90DPPC    C5 4455   6.100   3.291   5.760
   90DPPC    C6 4456   6.130   3.441   5.752
   90DPPC    O7 4457   6.035   3.517   5.677
   90DPPC    P8 4458   6.037   3.672   5.719
   90DPPC    O9 4459   6.062   3.668   5.865
   90DPPC   O10 4460   5.937   3.758   5.652
   90DPPC   O11 4461   6.178   3.699   5.646
   90DPPC   C12 4462   6.156   3.706   5.505
   90DPPC   C13 4463   6.283   3.708   5.419
   90DPPC   O14 4464   6.267   3.750   5.283
   90DPPC   C15 4465   6.203   3.866   5.250
   90DPPC   O16 4466   6.191   3.958   5.330
   90DPPC   C17 4467   6.176   3.888   5.101
   90DPPC   C18 4468   6.052   3.810   5.057
   90DPPC   C19 4469   5.996   3.860   4.923
   90DPPC   C20 4470   6.090   3.880   4.804
   90DPPC   C21 4471   6.028   3.921   4.670
   90DPPC   C22 4472   6.135   3.976   4.575
   90DPPC   C23 4473   6.097   4.004   4.430
   90DPPC   C24 4474   6.215   4.048   4.343
   90DPPC   C25 4475   6.171   4.076   4.199
   90DPPC   C26 4476   6.288   4.052   4.103
   90DPPC   C27 4477   6.247   4.088   3.960
   90DPPC   C28 4478   6.369   4.069   3.871
   90DPPC   C29 4479   6.340   4.034   3.724
   90DPPC   C30 4480   6.300   3.888   3.703
   90DPPC   C31 4481   6.432   3.811   3.706
   90DPPC   C32 4482   6.362   3.578   5.431
   90DPPC   O33 4483   6.287   3.459   5.403
   90DPPC   C34 4484   6.352   3.342   5.424
   90DPPC   O35 4485   6.451   3.343   5.497
   90DPPC   C36 4486   6.275   3.210   5.413
   90DPPC   C37 4487   6.298   3.133   5.283
   90DPPC   C38 4488   6.186   3.029   5.274
   90DPPC   C39 4489   6.174   2.965   5.136
   90DPPC   C40 4490   6.063   2.860   5.135
   90DPPC   C41 4491   6.062   2.794   4.996
   90DPPC   C42 4492   5.970   2.677   4.965
   90DPPC   C43 4493   5.962   2.649   4.815
   90DPPC   C44 4494   5.917   2.764   4.724
   90DPPC   C45 4495   5.930   2.708   4.582
   90DPPC   C46 4496   5.905   2.808   4.469
   90DPPC   C47 4497   5.970   2.754   4.342
   90DPPC   C48 4498   5.876   2.773   4.223
   90DPPC   C49 4499   5.908   2.664   4.121
   90DPPC   C50 4500   6.049   2.685   4.066
   91DPPC    C1 4501   4.461   7.111   5.330
   91DPPC    C2 4502   4.405   7.248   5.502
   91DPPC    C3 4503   4.592   7.317   5.383
   91DPPC    N4 4504   4.460   7.253   5.366
   91DPPC    C5 4505   4.359   7.334   5.295
   91DPPC    C6 4506   4.392   7.336   5.146
   91DPPC    O7 4507   4.301   7.429   5.087
   91DPPC    P8 4508   4.255   7.377   4.942
   91DPPC    O9 4509   4.186   7.495   4.885
   91DPPC   O10 4510   4.183   7.251   4.974
   91DPPC   O11 4511   4.396   7.326   4.883
   91DPPC   C12 4512   4.400   7.394   4.757
   91DPPC   C13 4513   4.518   7.344   4.674
   91DPPC   O14 4514   4.561   7.421   4.560
   91DPPC   C15 4515   4.639   7.532   4.571
   91DPPC   O16 4516   4.684   7.579   4.675
   91DPPC   C17 4517   4.704   7.567   4.437
   91DPPC   C18 4518   4.671   7.486   4.311
   91DPPC   C19 4519   4.765   7.519   4.195
   91DPPC   C20 4520   4.707   7.466   4.064
   91DPPC   C21 4521   4.779   7.535   3.948
   91DPPC   C22 4522   4.771   7.453   3.819
   91DPPC   C23 4523   4.838   7.519   3.699
   91DPPC   C24 4524   4.860   7.428   3.578
   91DPPC   C25 4525   4.909   7.513   3.461
   91DPPC   C26 4526   4.923   7.419   3.341
   91DPPC   C27 4527   5.022   7.303   3.358
   91DPPC   C28 4528   5.065   7.255   3.219
   91DPPC   C29 4529   5.172   7.145   3.221
   91DPPC   C30 4530   5.252   7.131   3.092
   91DPPC   C31 4531   5.164   7.082   2.977
   91DPPC   C32 4532   4.501   7.194   4.649
   91DPPC   O33 4533   4.363   7.157   4.639
   91DPPC   C34 4534   4.334   7.030   4.599
   91DPPC   O35 4535   4.418   6.943   4.625
   91DPPC   C36 4536   4.201   7.003   4.530
   91DPPC   C37 4537   4.220   6.901   4.417
   91DPPC   C38 4538   4.077   6.869   4.371
   91DPPC   C39 4539   4.091   6.773   4.253
   91DPPC   C40 4540   4.154   6.866   4.149
   91DPPC   C41 4541   4.196   6.786   4.026
   91DPPC   C42 4542   4.082   6.700   3.971
   91DPPC   C43 4543   4.133   6.610   3.858
   91DPPC   C44 4544   4.257   6.534   3.905
   91DPPC   C45 4545   4.278   6.416   3.809
   91DPPC   C46 4546   4.298   6.458   3.663
   91DPPC   C47 4547   4.319   6.339   3.570
   91DPPC   C48 4548   4.283   6.391   3.431
   91DPPC   C49 4549   4.287   6.268   3.339
   91DPPC   C50 4550   4.256   6.301   3.193
   92DPPC    C1 4551   1.804   5.965   5.194
   92DPPC    C2 4552   1.778   6.194   5.280
   92DPPC    C3 4553   1.746   6.020   5.418
   92DPPC    N4 4554   1.830   6.058   5.304
   92DPPC    C5 4555   1.971   6.057   5.347
   92DPPC    C6 4556   2.070   6.102   5.240
   92DPPC    O7 4557   2.130   5.993   5.170
   92DPPC    P8 4558   2.251   6.038   5.073
   92DPPC    O9 4559   2.264   5.909   5.003
   92DPPC   O10 4560   2.329   6.081   5.191
   92DPPC   O11 4561   2.160   6.141   4.988
   92DPPC   C12 4562   2.121   6.067   4.872
   92DPPC   C13 4563   2.037   6.141   4.768
   92DPPC   O14 4564   2.000   6.056   4.658
   92DPPC   C15 4565   1.868   6.025   4.651
   92DPPC   O16 4566   1.790   6.099   4.711
   92DPPC   C17 4567   1.824   5.911   4.559
   92DPPC   C18 4568   1.813   5.962   4.415
   92DPPC   C19 4569   1.834   5.831   4.340
   92DPPC   C20 4570   1.805   5.870   4.195
   92DPPC   C21 4571   1.784   5.745   4.109
   92DPPC   C22 4572   1.742   5.785   3.967
   92DPPC   C23 4573   1.738   5.662   3.876
   92DPPC   C24 4574   1.639   5.561   3.935
   92DPPC   C25 4575   1.626   5.447   3.834
   92DPPC   C26 4576   1.505   5.363   3.878
   92DPPC   C27 4577   1.480   5.277   3.755
   92DPPC   C28 4578   1.497   5.361   3.628
   92DPPC   C29 4579   1.442   5.272   3.517
   92DPPC   C30 4580   1.463   5.307   3.370
   92DPPC   C31 4581   1.419   5.454   3.361
   92DPPC   C32 4582   2.121   6.265   4.736
   92DPPC   O33 4583   2.257   6.244   4.696
   92DPPC   C34 4584   2.341   6.350   4.683
   92DPPC   O35 4585   2.347   6.453   4.749
   92DPPC   C36 4586   2.472   6.319   4.610
   92DPPC   C37 4587   2.528   6.439   4.534
   92DPPC   C38 4588   2.672   6.413   4.490
   92DPPC   C39 4589   2.686   6.301   4.387
   92DPPC   C40 4590   2.602   6.337   4.264
   92DPPC   C41 4591   2.640   6.243   4.150
   92DPPC   C42 4592   2.621   6.094   4.180
   92DPPC   C43 4593   2.622   6.016   4.048
   92DPPC   C44 4594   2.573   5.875   4.083
   92DPPC   C45 4595   2.673   5.802   4.172
   92DPPC   C46 4596   2.634   5.658   4.209
   92DPPC   C47 4597   2.726   5.592   4.312
   92DPPC   C48 4598   2.685   5.455   4.366
   92DPPC   C49 4599   2.785   5.398   4.467
   92DPPC   C50 4600   2.729   5.265   4.517
   93DPPC    C1 4601   1.284   2.752   4.824
   93DPPC    C2 4602   1.197   2.935   4.705
   93DPPC    C3 4603   1.069   2.729   4.743
   93DPPC    N4 4604   1.160   2.829   4.800
   93DPPC    C5 4605   1.109   2.862   4.934
   93DPPC    C6 4606   1.176   2.979   5.008
   93DPPC    O7 4607   1.107   3.099   4.973
   93DPPC    P8 4608   1.184   3.224   5.039
   93DPPC    O9 4609   1.269   3.171   5.148
   93DPPC   O10 4610   1.073   3.318   5.069
   93DPPC   O11 4611   1.262   3.265   4.904
   93DPPC   C12 4612   1.164   3.308   4.810
   93DPPC   C13 4613   1.200   3.426   4.719
   93DPPC   O14 4614   1.109   3.476   4.620
   93DPPC   C15 4615   1.002   3.553   4.653
   93DPPC   O16 4616   0.967   3.576   4.769
   93DPPC   C17 4617   0.919   3.595   4.532
   93DPPC   C18 4618   0.782   3.526   4.536
   93DPPC   C19 4619   0.689   3.568   4.422
   93DPPC   C20 4620   0.760   3.541   4.289
   93DPPC   C21 4621   0.699   3.575   4.153
   93DPPC   C22 4622   0.673   3.725   4.133
   93DPPC   C23 4623   0.613   3.760   3.997
   93DPPC   C24 4624   0.718   3.745   3.886
   93DPPC   C25 4625   0.664   3.795   3.752
   93DPPC   C26 4626   0.550   3.700   3.714
   93DPPC   C27 4627   0.483   3.721   3.578
   93DPPC   C28 4628   0.574   3.698   3.457
   93DPPC   C29 4629   0.490   3.729   3.332
   93DPPC   C30 4630   0.571   3.667   3.218
   93DPPC   C31 4631   0.503   3.707   3.087
   93DPPC   C32 4632   1.327   3.374   4.651
   93DPPC   O33 4633   1.302   3.271   4.555
   93DPPC   C34 4634   1.397   3.247   4.461
   93DPPC   O35 4635   1.516   3.272   4.481
   93DPPC   C36 4636   1.365   3.148   4.349
   93DPPC   C37 4637   1.223   3.162   4.294
   93DPPC   C38 4638   1.193   3.057   4.187
   93DPPC   C39 4639   1.280   3.070   4.061
   93DPPC   C40 4640   1.243   2.962   3.960
   93DPPC   C41 4641   1.326   2.977   3.832
   93DPPC   C42 4642   1.260   2.889   3.726
   93DPPC   C43 4643   1.331   2.887   3.591
   93DPPC   C44 4644   1.252   2.974   3.492
   93DPPC   C45 4645   1.337   3.002   3.368
   93DPPC   C46 4646   1.249   3.098   3.287
   93DPPC   C47 4647   1.315   3.186   3.182
   93DPPC   C48 4648   1.333   3.117   3.047
   93DPPC   C49 4649   1.364   3.201   2.923
   93DPPC   C50 4650   1.386   3.128   2.790
   94DPPC    C1 4651   3.421   6.503   5.204
   94DPPC    C2 4652   3.515   6.606   5.408
   94DPPC    C3 4653   3.284   6.593   5.382
   94DPPC    N4 4654   3.409   6.523   5.349
   94DPPC    C5 4655   3.395   6.390   5.410
   94DPPC    C6 4656   3.518   6.301   5.432
   94DPPC    O7 4657   3.589   6.268   5.312
   94DPPC    P8 4658   3.708   6.170   5.357
   94DPPC    O9 4659   3.628   6.069   5.429
   94DPPC   O10 4660   3.793   6.269   5.429
   94DPPC   O11 4661   3.744   6.142   5.203
   94DPPC   C12 4662   3.810   6.258   5.152
   94DPPC   C13 4663   3.828   6.251   5.000
   94DPPC   O14 4664   3.713   6.306   4.934
   94DPPC   C15 4665   3.712   6.440   4.910
   94DPPC   O16 4666   3.800   6.513   4.955
   94DPPC   C17 4667   3.584   6.495   4.847
   94DPPC   C18 4668   3.624   6.588   4.732
   94DPPC   C19 4669   3.489   6.621   4.668
   94DPPC   C20 4670   3.510   6.722   4.555
   94DPPC   C21 4671   3.382   6.748   4.476
   94DPPC   C22 4672   3.422   6.855   4.374
   94DPPC   C23 4673   3.539   6.812   4.286
   94DPPC   C24 4674   3.501   6.692   4.199
   94DPPC   C25 4675   3.587   6.677   4.073
   94DPPC   C26 4676   3.591   6.534   4.019
   94DPPC   C27 4677   3.640   6.544   3.875
   94DPPC   C28 4678   3.700   6.408   3.836
   94DPPC   C29 4679   3.597   6.297   3.862
   94DPPC   C30 4680   3.526   6.265   3.731
   94DPPC   C31 4681   3.437   6.142   3.751
   94DPPC   C32 4682   3.859   6.107   4.961
   94DPPC   O33 4683   3.913   6.075   4.832
   94DPPC   C34 4684   3.967   5.951   4.839
   94DPPC   O35 4685   3.957   5.892   4.947
   94DPPC   C36 4686   4.049   5.906   4.718
   94DPPC   C37 4687   3.968   5.800   4.643
   94DPPC   C38 4688   4.009   5.817   4.497
   94DPPC   C39 4689   4.139   5.743   4.465
   94DPPC   C40 4690   4.177   5.807   4.331
   94DPPC   C41 4691   4.069   5.767   4.230
   94DPPC   C42 4692   4.127   5.804   4.093
   94DPPC   C43 4693   4.253   5.727   4.053
   94DPPC   C44 4694   4.259   5.741   3.901
   94DPPC   C45 4695   4.381   5.666   3.846
   94DPPC   C46 4696   4.395   5.672   3.694
   94DPPC   C47 4697   4.492   5.564   3.646
   94DPPC   C48 4698   4.540   5.588   3.502
   94DPPC   C49 4699   4.606   5.460   3.449
   94DPPC   C50 4700   4.640   5.482   3.301
   95DPPC    C1 4701   1.058   1.837   5.363
   95DPPC    C2 4702   0.899   1.755   5.214
   95DPPC    C3 4703   0.838   1.861   5.420
   95DPPC    N4 4704   0.927   1.868   5.304
   95DPPC    C5 4705   0.925   1.993   5.226
   95DPPC    C6 4706   0.933   2.124   5.305
   95DPPC    O7 4707   1.068   2.168   5.325
   95DPPC    P8 4708   1.058   2.313   5.394
   95DPPC    O9 4709   1.201   2.342   5.413
   95DPPC   O10 4710   0.972   2.297   5.513
   95DPPC   O11 4711   0.999   2.390   5.266
   95DPPC   C12 4712   1.101   2.420   5.170
   95DPPC   C13 4713   1.037   2.464   5.039
   95DPPC   O14 4714   1.121   2.476   4.923
   95DPPC   C15 4715   1.148   2.357   4.864
   95DPPC   O16 4716   1.097   2.256   4.912
   95DPPC   C17 4717   1.266   2.346   4.767
   95DPPC   C18 4718   1.267   2.219   4.681
   95DPPC   C19 4719   1.147   2.223   4.586
   95DPPC   C20 4720   1.131   2.084   4.523
   95DPPC   C21 4721   1.015   2.084   4.424
   95DPPC   C22 4722   0.999   1.943   4.366
   95DPPC   C23 4723   0.882   1.946   4.268
   95DPPC   C24 4724   0.923   2.030   4.147
   95DPPC   C25 4725   0.811   2.028   4.042
   95DPPC   C26 4726   0.863   1.983   3.906
   95DPPC   C27 4727   0.746   1.972   3.808
   95DPPC   C28 4728   0.807   1.942   3.671
   95DPPC   C29 4729   0.706   1.905   3.562
   95DPPC   C30 4730   0.794   1.854   3.447
   95DPPC   C31 4731   0.691   1.822   3.338
   95DPPC   C32 4732   0.957   2.580   5.097
   95DPPC   O33 4733   0.883   2.653   4.999
   95DPPC   C34 4734   0.760   2.690   5.044
   95DPPC   O35 4735   0.714   2.617   5.132
   95DPPC   C36 4736   0.684   2.806   4.979
   95DPPC   C37 4737   0.714   2.822   4.830
   95DPPC   C38 4738   0.633   2.940   4.776
   95DPPC   C39 4739   0.690   2.963   4.636
   95DPPC   C40 4740   0.773   3.091   4.626
   95DPPC   C41 4741   0.840   3.098   4.489
   95DPPC   C42 4742   0.747   3.150   4.379
   95DPPC   C43 4743   0.826   3.154   4.248
   95DPPC   C44 4744   0.729   3.188   4.134
   95DPPC   C45 4745   0.813   3.219   4.010
   95DPPC   C46 4746   0.732   3.254   3.885
   95DPPC   C47 4747   0.817   3.292   3.764
   95DPPC   C48 4748   0.738   3.315   3.635
   95DPPC   C49 4749   0.661   3.188   3.596
   95DPPC   C50 4750   0.743   3.064   3.559
   96DPPC    C1 4751   1.947   8.020   4.490
   96DPPC    C2 4752   1.924   7.928   4.713
   96DPPC    C3 4753   2.093   7.846   4.562
   96DPPC    N4 4754   2.018   7.965   4.606
   96DPPC    C5 4755   2.110   8.072   4.646
   96DPPC    C6 4756   2.227   8.041   4.740
   96DPPC    O7 4757   2.281   8.162   4.793
   96DPPC    P8 4758   2.435   8.160   4.838
   96DPPC    O9 4759   2.457   8.023   4.888
   96DPPC   O10 4760   2.451   8.281   4.922
   96DPPC   O11 4761   2.491   8.175   4.688
   96DPPC   C12 4762   2.496   8.315   4.657
   96DPPC   C13 4763   2.573   8.339   4.527
   96DPPC   O14 4764   2.516   8.446   4.450
   96DPPC   C15 4765   2.560   8.573   4.472
   96DPPC   O16 4766   2.603   8.606   4.583
   96DPPC   C17 4767   2.501   8.679   4.379
   96DPPC   C18 4768   2.592   8.688   4.256
   96DPPC   C19 4769   2.511   8.762   4.149
   96DPPC   C20 4770   2.383   8.687   4.115
   96DPPC   C21 4771   2.305   8.756   4.003
   96DPPC   C22 4772   2.189   8.671   3.950
   96DPPC   C23 4773   2.159   8.695   3.801
   96DPPC   C24 4774   2.105   8.832   3.761
   96DPPC   C25 4775   2.075   8.841   3.611
   96DPPC   C26 4776   2.042   8.984   3.566
   96DPPC   C27 4777   2.081   8.995   3.419
   96DPPC   C28 4778   2.035   9.135   3.376
   96DPPC   C29 4779   2.074   9.171   3.233
   96DPPC   C30 4780   2.226   9.153   3.236
   96DPPC   C31 4781   2.277   9.145   3.092
   96DPPC   C32 4782   2.577   8.213   4.441
   96DPPC   O33 4783   2.656   8.215   4.322
   96DPPC   C34 4784   2.615   8.123   4.231
   96DPPC   O35 4785   2.537   8.032   4.256
   96DPPC   C36 4786   2.685   8.128   4.095
   96DPPC   C37 4787   2.833   8.098   4.120
   96DPPC   C38 4788   2.920   8.114   3.995
   96DPPC   C39 4789   3.066   8.081   4.028
   96DPPC   C40 4790   3.102   8.160   4.153
   96DPPC   C41 4791   3.231   8.110   4.218
   96DPPC   C42 4792   3.346   8.120   4.117
   96DPPC   C43 4793   3.474   8.102   4.199
   96DPPC   C44 4794   3.600   8.138   4.120
   96DPPC   C45 4795   3.593   8.283   4.074
   96DPPC   C46 4796   3.705   8.325   3.978
   96DPPC   C47 4797   3.692   8.473   3.940
   96DPPC   C48 4798   3.810   8.523   3.856
   96DPPC   C49 4799   3.933   8.469   3.929
   96DPPC   C50 4800   4.061   8.512   3.856
   97DPPC    C1 4801   9.472   4.402   5.566
   97DPPC    C2 4802   9.431   4.252   5.373
   97DPPC    C3 4803   9.620   4.367   5.390
   97DPPC    N4 4804   9.524   4.298   5.477
   97DPPC    C5 4805   9.558   4.188   5.569
   97DPPC    C6 4806   9.655   4.076   5.531
   97DPPC    O7 4807   9.795   4.099   5.518
   97DPPC    P8 4808   9.858   3.951   5.532
   97DPPC    O9 4809   9.755   3.856   5.485
   97DPPC   O10 4810   9.880   3.945   5.678
   97DPPC   O11 4811   9.990   3.944   5.439
   97DPPC   C12 4812   9.937   3.973   5.310
   97DPPC   C13 4813  10.014   3.900   5.200
   97DPPC   O14 4814  10.026   3.984   5.085
   97DPPC   C15 4815  10.100   3.931   4.984
   97DPPC   O16 4816  10.163   3.827   5.001
   97DPPC   C17 4817  10.143   4.025   4.871
   97DPPC   C18 4818  10.152   3.939   4.745
   97DPPC   C19 4819  10.189   4.033   4.630
   97DPPC   C20 4820  10.191   3.964   4.494
   97DPPC   C21 4821  10.179   4.059   4.374
   97DPPC   C22 4822  10.036   4.110   4.358
   97DPPC   C23 4823  10.032   4.221   4.252
   97DPPC   C24 4824   9.886   4.243   4.213
   97DPPC   C25 4825   9.857   4.332   4.092
   97DPPC   C26 4826   9.911   4.276   3.961
   97DPPC   C27 4827   9.865   4.132   3.937
   97DPPC   C28 4828   9.859   4.094   3.789
   97DPPC   C29 4829   9.760   4.189   3.722
   97DPPC   C30 4830   9.745   4.147   3.575
   97DPPC   C31 4831   9.878   4.145   3.500
   97DPPC   C32 4832   9.956   3.760   5.173
   97DPPC   O33 4833   9.858   3.768   5.069
   97DPPC   C34 4834   9.794   3.655   5.029
   97DPPC   O35 4835   9.810   3.549   5.090
   97DPPC   C36 4836   9.724   3.672   4.894
   97DPPC   C37 4837   9.823   3.686   4.779
   97DPPC   C38 4838   9.752   3.692   4.644
   97DPPC   C39 4839   9.825   3.751   4.523
   97DPPC   C40 4840   9.735   3.766   4.401
   97DPPC   C41 4841   9.817   3.781   4.272
   97DPPC   C42 4842   9.737   3.736   4.149
   97DPPC   C43 4843   9.597   3.795   4.136
   97DPPC   C44 4844   9.522   3.759   4.008
   97DPPC   C45 4845   9.599   3.787   3.879
   97DPPC   C46 4846   9.510   3.749   3.760
   97DPPC   C47 4847   9.587   3.774   3.630
   97DPPC   C48 4848   9.503   3.777   3.502
   97DPPC   C49 4849   9.587   3.782   3.374
   97DPPC   C50 4850   9.514   3.821   3.245
   98DPPC    C1 4851   7.873   4.353   5.497
   98DPPC    C2 4852   7.699   4.204   5.548
   98DPPC    C3 4853   7.721   4.439   5.642
   98DPPC    N4 4854   7.729   4.346   5.529
   98DPPC    C5 4855   7.663   4.406   5.412
   98DPPC    C6 4856   7.510   4.414   5.408
   98DPPC    O7 4857   7.440   4.289   5.409
   98DPPC    P8 4858   7.294   4.342   5.454
   98DPPC    O9 4859   7.326   4.420   5.575
   98DPPC   O10 4860   7.203   4.225   5.453
   98DPPC   O11 4861   7.255   4.429   5.324
   98DPPC   C12 4862   7.228   4.330   5.224
   98DPPC   C13 4863   7.198   4.398   5.090
   98DPPC   O14 4864   7.155   4.304   4.991
   98DPPC   C15 4865   7.025   4.305   4.950
   98DPPC   O16 4866   6.958   4.386   5.015
   98DPPC   C17 4867   6.984   4.231   4.823
   98DPPC   C18 4868   7.103   4.229   4.727
   98DPPC   C19 4869   7.128   4.357   4.647
   98DPPC   C20 4870   7.136   4.338   4.495
   98DPPC   C21 4871   7.243   4.237   4.453
   98DPPC   C22 4872   7.273   4.244   4.303
   98DPPC   C23 4873   7.331   4.378   4.258
   98DPPC   C24 4874   7.367   4.403   4.111
   98DPPC   C25 4875   7.234   4.422   4.038
   98DPPC   C26 4876   7.249   4.401   3.888
   98DPPC   C27 4877   7.350   4.498   3.826
   98DPPC   C28 4878   7.323   4.510   3.676
   98DPPC   C29 4879   7.183   4.570   3.660
   98DPPC   C30 4880   7.141   4.563   3.513
   98DPPC   C31 4881   7.242   4.619   3.413
   98DPPC   C32 4882   7.329   4.468   5.051
   98DPPC   O33 4883   7.327   4.557   4.940
   98DPPC   C34 4884   7.445   4.561   4.871
   98DPPC   O35 4885   7.546   4.505   4.914
   98DPPC   C36 4886   7.439   4.606   4.725
   98DPPC   C37 4887   7.545   4.707   4.680
   98DPPC   C38 4888   7.504   4.763   4.544
   98DPPC   C39 4889   7.601   4.742   4.428
   98DPPC   C40 4890   7.548   4.819   4.307
   98DPPC   C41 4891   7.610   4.766   4.177
   98DPPC   C42 4892   7.571   4.849   4.055
   98DPPC   C43 4893   7.641   4.795   3.930
   98DPPC   C44 4894   7.613   4.869   3.799
   98DPPC   C45 4895   7.649   4.783   3.677
   98DPPC   C46 4896   7.799   4.754   3.676
   98DPPC   C47 4897   7.831   4.681   3.545
   98DPPC   C48 4898   7.979   4.709   3.516
   98DPPC   C49 4899   8.037   4.584   3.450
   98DPPC   C50 4900   8.189   4.596   3.433
   99DPPC    C1 4901   8.282   5.434   1.039
   99DPPC    C2 4902   8.418   5.546   1.210
   99DPPC    C3 4903   8.431   5.583   0.972
   99DPPC    N4 4904   8.340   5.560   1.086
   99DPPC    C5 4905   8.245   5.672   1.092
   99DPPC    C6 4906   8.132   5.675   1.196
   99DPPC    O7 4907   7.998   5.663   1.147
   99DPPC    P8 4908   7.907   5.772   1.222
   99DPPC    O9 4909   7.772   5.787   1.163
   99DPPC   O10 4910   7.982   5.899   1.229
   99DPPC   O11 4911   7.901   5.729   1.377
   99DPPC   C12 4912   7.778   5.776   1.434
   99DPPC   C13 4913   7.777   5.780   1.587
   99DPPC   O14 4914   7.795   5.913   1.637
   99DPPC   C15 4915   7.692   6.002   1.622
   99DPPC   O16 4916   7.598   6.000   1.544
   99DPPC   C17 4917   7.694   6.125   1.714
   99DPPC   C18 4918   7.552   6.160   1.757
   99DPPC   C19 4919   7.558   6.295   1.828
   99DPPC   C20 4920   7.637   6.272   1.957
   99DPPC   C21 4921   7.615   6.400   2.038
   99DPPC   C22 4922   7.466   6.402   2.072
   99DPPC   C23 4923   7.432   6.524   2.158
   99DPPC   C24 4924   7.284   6.563   2.151
   99DPPC   C25 4925   7.264   6.688   2.237
   99DPPC   C26 4926   7.340   6.673   2.369
   99DPPC   C27 4927   7.267   6.618   2.492
   99DPPC   C28 4928   7.357   6.546   2.593
   99DPPC   C29 4929   7.269   6.524   2.716
   99DPPC   C30 4930   7.324   6.404   2.793
   99DPPC   C31 4931   7.233   6.384   2.915
   99DPPC   C32 4932   7.881   5.679   1.635
   99DPPC   O33 4933   7.829   5.556   1.686
   99DPPC   C34 4934   7.927   5.482   1.743
   99DPPC   O35 4935   8.040   5.527   1.757
   99DPPC   C36 4936   7.879   5.366   1.832
   99DPPC   C37 4937   7.939   5.377   1.972
   99DPPC   C38 4938   7.896   5.262   2.064
   99DPPC   C39 4939   7.975   5.288   2.193
   99DPPC   C40 4940   7.939   5.179   2.294
   99DPPC   C41 4941   8.026   5.181   2.420
   99DPPC   C42 4942   7.946   5.123   2.537
   99DPPC   C43 4943   7.823   5.207   2.571
   99DPPC   C44 4944   7.761   5.178   2.708
   99DPPC   C45 4945   7.700   5.039   2.729
   99DPPC   C46 4946   7.660   5.017   2.875
   99DPPC   C47 4947   7.574   4.891   2.885
   99DPPC   C48 4948   7.541   4.835   3.023
   99DPPC   C49 4949   7.430   4.729   3.017
   99DPPC   C50 4950   7.298   4.804   3.002
  100DPPC    C1 4951   4.328   4.538   2.063
  100DPPC    C2 4952   4.196   4.562   1.868
  100DPPC    C3 4953   4.115   4.451   2.064
  100DPPC    N4 4954   4.192   4.566   2.014
  100DPPC    C5 4955   4.138   4.690   2.073
  100DPPC    C6 4956   3.996   4.729   2.031
  100DPPC    O7 4957   3.974   4.869   2.049
  100DPPC    P8 4958   3.875   4.925   1.935
  100DPPC    O9 4959   3.931   4.916   1.798
  100DPPC   O10 4960   3.829   5.055   1.990
  100DPPC   O11 4961   3.745   4.831   1.950
  100DPPC   C12 4962   3.653   4.872   2.052
  100DPPC   C13 4963   3.542   4.774   2.090
  100DPPC   O14 4964   3.428   4.837   2.151
  100DPPC   C15 4965   3.357   4.936   2.092
  100DPPC   O16 4966   3.365   4.952   1.970
  100DPPC   C17 4967   3.240   4.973   2.183
  100DPPC   C18 4968   3.112   4.894   2.154
  100DPPC   C19 4969   3.079   4.787   2.258
  100DPPC   C20 4970   3.065   4.850   2.397
  100DPPC   C21 4971   3.014   4.754   2.506
  100DPPC   C22 4972   2.992   4.831   2.636
  100DPPC   C23 4973   2.928   4.727   2.729
  100DPPC   C24 4974   2.923   4.786   2.870
  100DPPC   C25 4975   2.815   4.894   2.869
  100DPPC   C26 4976   2.798   4.967   3.003
  100DPPC   C27 4977   2.753   5.108   2.963
  100DPPC   C28 4978   2.739   5.198   3.086
  100DPPC   C29 4979   2.731   5.342   3.035
  100DPPC   C30 4980   2.721   5.434   3.157
  100DPPC   C31 4981   2.820   5.395   3.267
  100DPPC   C32 4982   3.609   4.648   2.146
  100DPPC   O33 4983   3.702   4.676   2.251
  100DPPC   C34 4984   3.756   4.561   2.300
  100DPPC   O35 4985   3.731   4.452   2.248
  100DPPC   C36 4986   3.875   4.581   2.394
  100DPPC   C37 4987   3.840   4.556   2.541
  100DPPC   C38 4988   3.963   4.575   2.631
  100DPPC   C39 4989   3.929   4.595   2.779
  100DPPC   C40 4990   3.875   4.736   2.804
  100DPPC   C41 4991   3.858   4.744   2.956
  100DPPC   C42 4992   3.818   4.877   3.019
  100DPPC   C43 4993   3.708   4.958   2.949
  100DPPC   C44 4994   3.673   5.086   3.025
  100DPPC   C45 4995   3.617   5.198   2.938
  100DPPC   C46 4996   3.607   5.327   3.019
  100DPPC   C47 4997   3.538   5.434   2.934
  100DPPC   C48 4998   3.522   5.560   3.019
  100DPPC   C49 4999   3.662   5.594   3.073
  100DPPC   C50 5000   3.640   5.735   3.127
  101DPPC    C1 5001   5.624   0.455   1.735
  101DPPC    C2 5002   5.601   0.248   1.827
  101DPPC    C3 5003   5.610   0.440   1.966
  101DPPC    N4 5004   5.551   0.385   1.843
  101DPPC    C5 5005   5.405   0.403   1.833
  101DPPC    C6 5006   5.319   0.324   1.734
  101DPPC    O7 5007   5.182   0.363   1.742
  101DPPC    P8 5008   5.082   0.246   1.695
  101DPPC    O9 5009   5.158   0.150   1.611
  101DPPC   O10 5010   4.964   0.310   1.633
  101DPPC   O11 5011   5.057   0.190   1.843
  101DPPC   C12 5012   4.982   0.285   1.919
  101DPPC   C13 5013   4.951   0.245   2.063
  101DPPC   O14 5014   4.897   0.367   2.116
  101DPPC   C15 5015   4.770   0.369   2.165
  101DPPC   O16 5016   4.688   0.292   2.115
  101DPPC   C17 5017   4.733   0.467   2.276
  101DPPC   C18 5018   4.810   0.417   2.399
  101DPPC   C19 5019   4.790   0.529   2.501
  101DPPC   C20 5020   4.832   0.503   2.646
  101DPPC   C21 5021   4.811   0.619   2.744
  101DPPC   C22 5022   4.665   0.651   2.776
  101DPPC   C23 5023   4.606   0.514   2.809
  101DPPC   C24 5024   4.456   0.523   2.840
  101DPPC   C25 5025   4.393   0.398   2.900
  101DPPC   C26 5026   4.250   0.429   2.947
  101DPPC   C27 5027   4.230   0.331   3.063
  101DPPC   C28 5028   4.271   0.192   3.013
  101DPPC   C29 5029   4.309   0.107   3.135
  101DPPC   C30 5030   4.372  -0.024   3.087
  101DPPC   C31 5031   4.510  -0.014   3.023
  101DPPC   C32 5032   5.074   0.184   2.130
  101DPPC   O33 5033   5.199   0.253   2.141
  101DPPC   C34 5034   5.299   0.177   2.194
  101DPPC   O35 5035   5.301   0.057   2.166
  101DPPC   C36 5036   5.426   0.249   2.239
  101DPPC   C37 5037   5.410   0.274   2.389
  101DPPC   C38 5038   5.531   0.330   2.465
  101DPPC   C39 5039   5.506   0.338   2.616
  101DPPC   C40 5040   5.614   0.436   2.664
  101DPPC   C41 5041   5.596   0.463   2.813
  101DPPC   C42 5042   5.706   0.542   2.884
  101DPPC   C43 5043   5.690   0.527   3.036
  101DPPC   C44 5044   5.802   0.589   3.119
  101DPPC   C45 5045   5.784   0.574   3.270
  101DPPC   C46 5046   5.903   0.633   3.347
  101DPPC   C47 5047   5.869   0.620   3.495
  101DPPC   C48 5048   5.974   0.687   3.583
  101DPPC   C49 5049   5.946   0.680   3.734
  101DPPC   C50 5050   6.066   0.691   3.828
  102DPPC    C1 5051   2.339   1.287   1.668
  102DPPC    C2 5052   2.445   1.190   1.851
  102DPPC    C3 5053   2.229   1.139   1.828
  102DPPC    N4 5054   2.347   1.162   1.745
  102DPPC    C5 5055   2.395   1.050   1.664
  102DPPC    C6 5056   2.358   1.043   1.515
  102DPPC    O7 5057   2.216   1.047   1.496
  102DPPC    P8 5058   2.173   0.938   1.386
  102DPPC    O9 5059   2.299   0.894   1.323
  102DPPC   O10 5060   2.042   0.970   1.325
  102DPPC   O11 5061   2.143   0.818   1.489
  102DPPC   C12 5062   2.027   0.861   1.562
  102DPPC   C13 5063   1.956   0.763   1.655
  102DPPC   O14 5064   1.831   0.811   1.709
  102DPPC   C15 5065   1.746   0.721   1.766
  102DPPC   O16 5066   1.762   0.601   1.744
  102DPPC   C17 5067   1.631   0.777   1.849
  102DPPC   C18 5068   1.671   0.746   1.993
  102DPPC   C19 5069   1.585   0.801   2.107
  102DPPC   C20 5070   1.640   0.758   2.243
  102DPPC   C21 5071   1.544   0.810   2.351
  102DPPC   C22 5072   1.610   0.806   2.489
  102DPPC   C23 5073   1.527   0.836   2.614
  102DPPC   C24 5074   1.487   0.983   2.614
  102DPPC   C25 5075   1.371   1.022   2.705
  102DPPC   C26 5076   1.374   1.173   2.727
  102DPPC   C27 5077   1.487   1.204   2.825
  102DPPC   C28 5078   1.532   1.346   2.790
  102DPPC   C29 5079   1.418   1.446   2.811
  102DPPC   C30 5080   1.459   1.587   2.770
  102DPPC   C31 5081   1.490   1.589   2.620
  102DPPC   C32 5082   2.060   0.730   1.762
  102DPPC   O33 5083   2.127   0.824   1.847
  102DPPC   C34 5084   2.191   0.759   1.948
  102DPPC   O35 5085   2.210   0.638   1.960
  102DPPC   C36 5086   2.248   0.840   2.064
  102DPPC   C37 5087   2.153   0.846   2.184
  102DPPC   C38 5088   2.148   0.713   2.259
  102DPPC   C39 5089   2.036   0.703   2.363
  102DPPC   C40 5090   2.068   0.817   2.460
  102DPPC   C41 5091   1.985   0.791   2.586
  102DPPC   C42 5092   2.026   0.656   2.647
  102DPPC   C43 5093   1.956   0.625   2.779
  102DPPC   C44 5094   2.026   0.506   2.844
  102DPPC   C45 5095   1.923   0.445   2.939
  102DPPC   C46 5096   1.969   0.325   3.022
  102DPPC   C47 5097   1.870   0.289   3.133
  102DPPC   C48 5098   1.885   0.138   3.156
  102DPPC   C49 5099   1.814   0.098   3.286
  102DPPC   C50 5100   1.664   0.083   3.258
  103DPPC    C1 5101   2.496   7.351   1.080
  103DPPC    C2 5102   2.447   7.147   1.191
  103DPPC    C3 5103   2.663   7.232   1.194
  103DPPC    N4 5104   2.522   7.273   1.202
  103DPPC    C5 5105   2.487   7.339   1.329
  103DPPC    C6 5106   2.562   7.468   1.360
  103DPPC    O7 5107   2.694   7.443   1.409
  103DPPC    P8 5108   2.783   7.576   1.428
  103DPPC    O9 5109   2.780   7.621   1.288
  103DPPC   O10 5110   2.911   7.540   1.492
  103DPPC   O11 5111   2.693   7.645   1.543
  103DPPC   C12 5112   2.740   7.613   1.675
  103DPPC   C13 5113   2.615   7.627   1.762
  103DPPC   O14 5114   2.520   7.522   1.741
  103DPPC   C15 5115   2.563   7.403   1.791
  103DPPC   O16 5116   2.673   7.386   1.844
  103DPPC   C17 5117   2.468   7.287   1.757
  103DPPC   C18 5118   2.477   7.191   1.876
  103DPPC   C19 5119   2.417   7.246   2.006
  103DPPC   C20 5120   2.441   7.141   2.114
  103DPPC   C21 5121   2.391   7.186   2.252
  103DPPC   C22 5122   2.403   7.080   2.362
  103DPPC   C23 5123   2.335   7.142   2.484
  103DPPC   C24 5124   2.299   7.050   2.601
  103DPPC   C25 5125   2.274   7.109   2.740
  103DPPC   C26 5126   2.231   7.017   2.855
  103DPPC   C27 5127   2.204   7.098   2.981
  103DPPC   C28 5128   2.193   6.987   3.086
  103DPPC   C29 5129   2.316   6.896   3.085
  103DPPC   C30 5130   2.311   6.779   3.183
  103DPPC   C31 5131   2.435   6.693   3.208
  103DPPC   C32 5132   2.566   7.771   1.747
  103DPPC   O33 5133   2.666   7.862   1.792
  103DPPC   C34 5134   2.637   7.994   1.780
  103DPPC   O35 5135   2.525   8.028   1.742
  103DPPC   C36 5136   2.739   8.095   1.834
  103DPPC   C37 5137   2.736   8.096   1.987
  103DPPC   C38 5138   2.812   8.209   2.055
  103DPPC   C39 5139   2.789   8.219   2.206
  103DPPC   C40 5140   2.899   8.312   2.256
  103DPPC   C41 5141   2.910   8.305   2.408
  103DPPC   C42 5142   2.778   8.360   2.463
  103DPPC   C43 5143   2.799   8.390   2.611
  103DPPC   C44 5144   2.678   8.431   2.696
  103DPPC   C45 5145   2.708   8.478   2.838
  103DPPC   C46 5146   2.571   8.525   2.887
  103DPPC   C47 5147   2.592   8.611   3.012
  103DPPC   C48 5148   2.452   8.654   3.057
  103DPPC   C49 5149   2.464   8.763   3.164
  103DPPC   C50 5150   2.523   8.703   3.292
  104DPPC    C1 5151   3.834   3.943   1.383
  104DPPC    C2 5152   3.900   3.716   1.383
  104DPPC    C3 5153   4.035   3.872   1.275
  104DPPC    N4 5154   3.950   3.854   1.394
  104DPPC    C5 5155   4.016   3.886   1.521
  104DPPC    C6 5156   4.121   3.796   1.587
  104DPPC    O7 5157   4.227   3.747   1.504
  104DPPC    P8 5158   4.262   3.599   1.558
  104DPPC    O9 5159   4.382   3.552   1.485
  104DPPC   O10 5160   4.134   3.526   1.548
  104DPPC   O11 5161   4.297   3.642   1.709
  104DPPC   C12 5162   4.435   3.664   1.739
  104DPPC   C13 5163   4.452   3.752   1.863
  104DPPC   O14 5164   4.590   3.768   1.899
  104DPPC   C15 5165   4.621   3.876   1.977
  104DPPC   O16 5166   4.568   3.986   1.966
  104DPPC   C17 5167   4.740   3.850   2.070
  104DPPC   C18 5168   4.760   3.711   2.132
  104DPPC   C19 5169   4.869   3.692   2.238
  104DPPC   C20 5170   4.840   3.582   2.340
  104DPPC   C21 5171   4.964   3.567   2.427
  104DPPC   C22 5172   4.916   3.521   2.565
  104DPPC   C23 5173   5.027   3.483   2.663
  104DPPC   C24 5174   4.969   3.441   2.798
  104DPPC   C25 5175   5.069   3.386   2.900
  104DPPC   C26 5176   5.025   3.392   3.047
  104DPPC   C27 5177   4.981   3.532   3.088
  104DPPC   C28 5178   4.926   3.525   3.231
  104DPPC   C29 5179   4.881   3.645   3.315
  104DPPC   C30 5180   4.788   3.604   3.429
  104DPPC   C31 5181   4.776   3.740   3.498
  104DPPC   C32 5182   4.384   3.665   1.969
  104DPPC   O33 5183   4.354   3.729   2.094
  104DPPC   C34 5184   4.261   3.673   2.176
  104DPPC   O35 5185   4.185   3.585   2.135
  104DPPC   C36 5186   4.245   3.751   2.307
  104DPPC   C37 5187   4.376   3.713   2.377
  104DPPC   C38 5188   4.403   3.826   2.478
  104DPPC   C39 5189   4.527   3.800   2.563
  104DPPC   C40 5190   4.515   3.664   2.633
  104DPPC   C41 5191   4.604   3.662   2.757
  104DPPC   C42 5192   4.586   3.780   2.853
  104DPPC   C43 5193   4.665   3.760   2.982
  104DPPC   C44 5194   4.694   3.891   3.056
  104DPPC   C45 5195   4.564   3.957   3.102
  104DPPC   C46 5196   4.571   4.061   3.215
  104DPPC   C47 5197   4.434   4.072   3.283
  104DPPC   C48 5198   4.427   4.158   3.409
  104DPPC   C49 5199   4.418   4.303   3.362
  104DPPC   C50 5200   4.436   4.395   3.483
  105DPPC    C1 5201   4.409   5.130   1.590
  105DPPC    C2 5202   4.418   4.981   1.410
  105DPPC    C3 5203   4.466   5.223   1.376
  105DPPC    N4 5204   4.478   5.105   1.463
  105DPPC    C5 5205   4.623   5.079   1.462
  105DPPC    C6 5206   4.680   4.999   1.579
  105DPPC    O7 5207   4.729   5.079   1.687
  105DPPC    P8 5208   4.809   4.982   1.788
  105DPPC    O9 5209   4.886   5.084   1.862
  105DPPC   O10 5210   4.881   4.887   1.700
  105DPPC   O11 5211   4.690   4.909   1.868
  105DPPC   C12 5212   4.679   4.963   2.000
  105DPPC   C13 5213   4.556   4.924   2.082
  105DPPC   O14 5214   4.508   5.023   2.174
  105DPPC   C15 5215   4.425   5.112   2.114
  105DPPC   O16 5216   4.352   5.069   2.025
  105DPPC   C17 5217   4.397   5.239   2.196
  105DPPC   C18 5218   4.247   5.257   2.218
  105DPPC   C19 5219   4.234   5.372   2.318
  105DPPC   C20 5220   4.279   5.500   2.246
  105DPPC   C21 5221   4.275   5.620   2.341
  105DPPC   C22 5222   4.332   5.739   2.263
  105DPPC   C23 5223   4.311   5.873   2.335
  105DPPC   C24 5224   4.404   5.878   2.456
  105DPPC   C25 5225   4.372   6.001   2.541
  105DPPC   C26 5226   4.238   5.973   2.609
  105DPPC   C27 5227   4.198   6.104   2.679
  105DPPC   C28 5228   4.052   6.084   2.719
  105DPPC   C29 5229   3.983   6.199   2.794
  105DPPC   C30 5230   4.016   6.334   2.730
  105DPPC   C31 5231   3.907   6.427   2.782
  105DPPC   C32 5232   4.579   4.782   2.133
  105DPPC   O33 5233   4.697   4.777   2.214
  105DPPC   C34 5234   4.726   4.658   2.273
  105DPPC   O35 5235   4.659   4.555   2.257
  105DPPC   C36 5236   4.873   4.650   2.314
  105DPPC   C37 5237   4.877   4.620   2.464
  105DPPC   C38 5238   4.832   4.745   2.542
  105DPPC   C39 5239   4.845   4.725   2.693
  105DPPC   C40 5240   4.771   4.833   2.772
  105DPPC   C41 5241   4.794   4.820   2.923
  105DPPC   C42 5242   4.754   4.953   2.986
  105DPPC   C43 5243   4.761   4.956   3.139
  105DPPC   C44 5244   4.696   5.081   3.199
  105DPPC   C45 5245   4.741   5.083   3.345
  105DPPC   C46 5246   4.691   4.963   3.426
  105DPPC   C47 5247   4.758   4.973   3.563
  105DPPC   C48 5248   4.729   4.854   3.654
  105DPPC   C49 5249   4.801   4.869   3.788
  105DPPC   C50 5250   4.953   4.881   3.779
  106DPPC    C1 5251   9.061   0.555   1.002
  106DPPC    C2 5252   8.907   0.447   1.139
  106DPPC    C3 5253   9.057   0.312   1.025
  106DPPC    N4 5254   9.047   0.441   1.095
  106DPPC    C5 5255   9.149   0.451   1.199
  106DPPC    C6 5256   9.300   0.439   1.176
  106DPPC    O7 5257   9.368   0.512   1.279
  106DPPC    P8 5258   9.527   0.489   1.266
  106DPPC    O9 5259   9.560   0.526   1.127
  106DPPC   O10 5260   9.594   0.373   1.329
  106DPPC   O11 5261   9.563   0.619   1.354
  106DPPC   C12 5262   9.551   0.599   1.495
  106DPPC   C13 5263   9.462   0.704   1.561
  106DPPC   O14 5264   9.521   0.760   1.679
  106DPPC   C15 5265   9.553   0.892   1.675
  106DPPC   O16 5266   9.525   0.954   1.573
  106DPPC   C17 5267   9.617   0.959   1.796
  106DPPC   C18 5268   9.547   0.913   1.924
  106DPPC   C19 5269   9.641   0.918   2.045
  106DPPC   C20 5270   9.583   0.869   2.178
  106DPPC   C21 5271   9.692   0.910   2.277
  106DPPC   C22 5272   9.789   0.794   2.297
  106DPPC   C23 5273   9.903   0.849   2.383
  106DPPC   C24 5274   9.996   0.934   2.296
  106DPPC   C25 5275  10.137   0.921   2.355
  106DPPC   C26 5276  10.251   0.974   2.268
  106DPPC   C27 5277  10.390   0.958   2.330
  106DPPC   C28 5278  10.377   1.008   2.474
  106DPPC   C29 5279  10.510   1.001   2.550
  106DPPC   C30 5280  10.483   1.055   2.691
  106DPPC   C31 5281  10.457   1.206   2.686
  106DPPC   C32 5282   9.324   0.638   1.572
  106DPPC   O33 5283   9.326   0.507   1.629
  106DPPC   C34 5284   9.209   0.440   1.607
  106DPPC   O35 5285   9.113   0.503   1.564
  106DPPC   C36 5286   9.202   0.294   1.654
  106DPPC   C37 5287   9.258   0.269   1.794
  106DPPC   C38 5288   9.178   0.343   1.901
  106DPPC   C39 5289   9.252   0.457   1.971
  106DPPC   C40 5290   9.159   0.514   2.079
  106DPPC   C41 5291   9.098   0.408   2.170
  106DPPC   C42 5292   8.998   0.490   2.252
  106DPPC   C43 5293   8.986   0.424   2.389
  106DPPC   C44 5294   8.907   0.507   2.491
  106DPPC   C45 5295   8.897   0.425   2.619
  106DPPC   C46 5296   8.846   0.518   2.729
  106DPPC   C47 5297   8.813   0.457   2.866
  106DPPC   C48 5298   8.698   0.356   2.866
  106DPPC   C49 5299   8.685   0.306   3.010
  106DPPC   C50 5300   8.679   0.427   3.104
  107DPPC    C1 5301   6.101   7.904   1.857
  107DPPC    C2 5302   6.060   8.000   1.653
  107DPPC    C3 5303   5.977   8.114   1.858
  107DPPC    N4 5304   6.084   8.035   1.793
  107DPPC    C5 5305   6.219   8.091   1.782
  107DPPC    C6 5306   6.262   8.180   1.900
  107DPPC    O7 5307   6.191   8.304   1.902
  107DPPC    P8 5308   6.289   8.413   1.835
  107DPPC    O9 5309   6.215   8.450   1.712
  107DPPC   O10 5310   6.425   8.353   1.837
  107DPPC   O11 5311   6.280   8.531   1.943
  107DPPC   C12 5312   6.139   8.545   1.963
  107DPPC   C13 5313   6.084   8.582   2.101
  107DPPC   O14 5314   6.122   8.716   2.137
  107DPPC   C15 5315   6.029   8.811   2.164
  107DPPC   O16 5316   5.924   8.803   2.101
  107DPPC   C17 5317   6.084   8.944   2.217
  107DPPC   C18 5318   6.161   8.929   2.348
  107DPPC   C19 5319   6.079   8.878   2.467
  107DPPC   C20 5320   5.968   8.975   2.509
  107DPPC   C21 5321   6.032   9.062   2.617
  107DPPC   C22 5322   5.951   9.188   2.653
  107DPPC   C23 5323   6.002   9.298   2.746
  107DPPC   C24 5324   6.115   9.373   2.676
  107DPPC   C25 5325   6.179   9.485   2.758
  107DPPC   C26 5326   6.079   9.597   2.788
  107DPPC   C27 5327   6.050   9.673   2.658
  107DPPC   C28 5328   5.943   9.778   2.688
  107DPPC   C29 5329   5.938   9.900   2.597
  107DPPC   C30 5330   5.888   9.855   2.459
  107DPPC   C31 5331   5.874   9.964   2.353
  107DPPC   C32 5332   6.135   8.468   2.190
  107DPPC   O33 5333   6.067   8.461   2.316
  107DPPC   C34 5334   5.933   8.437   2.323
  107DPPC   O35 5335   5.874   8.406   2.220
  107DPPC   C36 5336   5.867   8.464   2.459
  107DPPC   C37 5337   5.970   8.520   2.558
  107DPPC   C38 5338   5.909   8.565   2.691
  107DPPC   C39 5339   6.016   8.638   2.772
  107DPPC   C40 5340   5.962   8.766   2.835
  107DPPC   C41 5341   6.068   8.842   2.915
  107DPPC   C42 5342   6.107   8.754   3.034
  107DPPC   C43 5343   6.000   8.738   3.143
  107DPPC   C44 5344   6.072   8.700   3.272
  107DPPC   C45 5345   5.973   8.672   3.385
  107DPPC   C46 5346   6.058   8.639   3.509
  107DPPC   C47 5347   5.962   8.649   3.627
  107DPPC   C48 5348   5.886   8.782   3.624
  107DPPC   C49 5349   5.738   8.757   3.650
  107DPPC   C50 5350   5.648   8.878   3.628
  108DPPC    C1 5351   7.082   0.581   1.011
  108DPPC    C2 5352   6.930   0.768   1.036
  108DPPC    C3 5353   6.938   0.643   0.836
  108DPPC    N4 5354   6.947   0.632   0.982
  108DPPC    C5 5355   6.831   0.550   1.017
  108DPPC    C6 5356   6.849   0.442   1.124
  108DPPC    O7 5357   6.834   0.492   1.257
  108DPPC    P8 5358   6.851   0.362   1.350
  108DPPC    O9 5359   6.995   0.330   1.348
  108DPPC   O10 5360   6.746   0.270   1.302
  108DPPC   O11 5361   6.799   0.432   1.485
  108DPPC   C12 5362   6.901   0.514   1.542
  108DPPC   C13 5363   6.856   0.605   1.656
  108DPPC   O14 5364   6.935   0.723   1.677
  108DPPC   C15 5365   6.854   0.832   1.679
  108DPPC   O16 5366   6.741   0.825   1.630
  108DPPC   C17 5367   6.904   0.963   1.739
  108DPPC   C18 5368   6.874   0.981   1.888
  108DPPC   C19 5369   6.891   1.130   1.922
  108DPPC   C20 5370   6.825   1.167   2.054
  108DPPC   C21 5371   6.931   1.118   2.153
  108DPPC   C22 5372   6.891   1.143   2.299
  108DPPC   C23 5373   6.764   1.075   2.352
  108DPPC   C24 5374   6.790   0.990   2.477
  108DPPC   C25 5375   6.856   1.094   2.569
  108DPPC   C26 5376   6.918   1.026   2.690
  108DPPC   C27 5377   6.823   0.943   2.777
  108DPPC   C28 5378   6.877   0.901   2.914
  108DPPC   C29 5379   6.783   0.800   2.980
  108DPPC   C30 5380   6.843   0.790   3.121
  108DPPC   C31 5381   6.764   0.711   3.225
  108DPPC   C32 5382   6.869   0.501   1.767
  108DPPC   O33 5383   6.836   0.531   1.903
  108DPPC   C34 5384   6.849   0.422   1.983
  108DPPC   O35 5385   6.908   0.320   1.949
  108DPPC   C36 5386   6.846   0.447   2.134
  108DPPC   C37 5387   6.806   0.323   2.214
  108DPPC   C38 5388   6.828   0.355   2.362
  108DPPC   C39 5389   6.790   0.233   2.446
  108DPPC   C40 5390   6.878   0.110   2.420
  108DPPC   C41 5391   6.827  -0.016   2.490
  108DPPC   C42 5392   6.830   0.009   2.641
  108DPPC   C43 5393   6.772  -0.108   2.722
  108DPPC   C44 5394   6.807  -0.106   2.871
  108DPPC   C45 5395   6.760  -0.235   2.939
  108DPPC   C46 5396   6.803  -0.236   3.086
  108DPPC   C47 5397   6.721  -0.138   3.170
  108DPPC   C48 5398   6.762  -0.140   3.318
  108DPPC   C49 5399   6.908  -0.116   3.358
  108DPPC   C50 5400   6.920  -0.037   3.489
  109DPPC    C1 5401   9.269   6.052   0.269
  109DPPC    C2 5402   9.316   6.040   0.497
  109DPPC    C3 5403   9.389   6.224   0.364
  109DPPC    N4 5404   9.276   6.134   0.391
  109DPPC    C5 5405   9.146   6.201   0.406
  109DPPC    C6 5406   9.103   6.228   0.550
  109DPPC    O7 5407   9.031   6.116   0.601
  109DPPC    P8 5408   8.922   6.153   0.713
  109DPPC    O9 5409   8.825   6.044   0.691
  109DPPC   O10 5410   8.886   6.297   0.704
  109DPPC   O11 5411   9.014   6.142   0.844
  109DPPC   C12 5412   8.997   6.011   0.898
  109DPPC   C13 5413   9.110   5.957   0.986
  109DPPC   O14 5414   9.086   5.827   1.042
  109DPPC   C15 5415   9.189   5.755   1.095
  109DPPC   O16 5416   9.306   5.783   1.067
  109DPPC   C17 5417   9.149   5.620   1.154
  109DPPC   C18 5418   9.075   5.642   1.286
  109DPPC   C19 5419   9.161   5.724   1.382
  109DPPC   C20 5420   9.102   5.693   1.520
  109DPPC   C21 5421   9.173   5.753   1.641
  109DPPC   C22 5422   9.099   5.734   1.773
  109DPPC   C23 5423   9.166   5.817   1.883
  109DPPC   C24 5424   9.104   5.792   2.021
  109DPPC   C25 5425   9.176   5.855   2.140
  109DPPC   C26 5426   9.085   5.865   2.263
  109DPPC   C27 5427   9.151   5.889   2.399
  109DPPC   C28 5428   9.034   5.864   2.493
  109DPPC   C29 5429   9.075   5.868   2.641
  109DPPC   C30 5430   8.951   5.856   2.729
  109DPPC   C31 5431   8.993   5.874   2.875
  109DPPC   C32 5432   9.140   6.069   1.086
  109DPPC   O33 5433   9.046   6.086   1.193
  109DPPC   C34 5434   9.040   6.212   1.246
  109DPPC   O35 5435   9.126   6.294   1.214
  109DPPC   C36 5436   8.958   6.216   1.375
  109DPPC   C37 5437   9.048   6.196   1.497
  109DPPC   C38 5438   8.990   6.246   1.629
  109DPPC   C39 5439   9.097   6.248   1.739
  109DPPC   C40 5440   9.037   6.290   1.874
  109DPPC   C41 5441   9.152   6.288   1.975
  109DPPC   C42 5442   9.080   6.319   2.106
  109DPPC   C43 5443   9.176   6.336   2.224
  109DPPC   C44 5444   9.272   6.217   2.235
  109DPPC   C45 5445   9.356   6.246   2.359
  109DPPC   C46 5446   9.458   6.136   2.387
  109DPPC   C47 5447   9.549   6.177   2.503
  109DPPC   C48 5448   9.660   6.073   2.519
  109DPPC   C49 5449   9.732   6.092   2.652
  109DPPC   C50 5450   9.827   5.973   2.637
  110DPPC    C1 5451   1.286   3.458   0.756
  110DPPC    C2 5452   1.499   3.376   0.866
  110DPPC    C3 5453   1.502   3.549   0.706
  110DPPC    N4 5454   1.419   3.486   0.810
  110DPPC    C5 5455   1.404   3.592   0.911
  110DPPC    C6 5456   1.313   3.562   1.030
  110DPPC    O7 5457   1.274   3.673   1.111
  110DPPC    P8 5458   1.137   3.746   1.068
  110DPPC    O9 5459   1.077   3.657   0.966
  110DPPC   O10 5460   1.154   3.891   1.045
  110DPPC   O11 5461   1.076   3.733   1.217
  110DPPC   C12 5462   1.011   3.606   1.226
  110DPPC   C13 5463   1.072   3.503   1.322
  110DPPC   O14 5464   0.997   3.381   1.333
  110DPPC   C15 5465   1.066   3.267   1.359
  110DPPC   O16 5466   1.176   3.239   1.311
  110DPPC   C17 5467   0.972   3.160   1.415
  110DPPC   C18 5468   0.984   3.181   1.566
  110DPPC   C19 5469   0.899   3.078   1.640
  110DPPC   C20 5470   0.915   3.102   1.790
  110DPPC   C21 5471   0.812   3.019   1.868
  110DPPC   C22 5472   0.810   3.064   2.014
  110DPPC   C23 5473   0.711   2.978   2.092
  110DPPC   C24 5474   0.573   2.981   2.026
  110DPPC   C25 5475   0.478   2.924   2.132
  110DPPC   C26 5476   0.505   3.010   2.255
  110DPPC   C27 5477   0.414   2.977   2.374
  110DPPC   C28 5478   0.431   3.083   2.483
  110DPPC   C29 5479   0.570   3.063   2.543
  110DPPC   C30 5480   0.614   3.156   2.657
  110DPPC   C31 5481   0.539   3.140   2.789
  110DPPC   C32 5482   1.107   3.575   1.452
  110DPPC   O33 5483   1.185   3.498   1.544
  110DPPC   C34 5484   1.199   3.561   1.664
  110DPPC   O35 5485   1.192   3.683   1.677
  110DPPC   C36 5486   1.268   3.483   1.776
  110DPPC   C37 5487   1.161   3.421   1.866
  110DPPC   C38 5488   1.226   3.337   1.977
  110DPPC   C39 5489   1.129   3.270   2.074
  110DPPC   C40 5490   1.187   3.207   2.200
  110DPPC   C41 5491   1.078   3.124   2.266
  110DPPC   C42 5492   1.146   3.043   2.377
  110DPPC   C43 5493   1.045   2.978   2.472
  110DPPC   C44 5494   1.132   2.917   2.583
  110DPPC   C45 5495   1.059   2.874   2.710
  110DPPC   C46 5496   1.012   2.997   2.787
  110DPPC   C47 5497   0.930   2.984   2.915
  110DPPC   C48 5498   0.901   3.125   2.967
  110DPPC   C49 5499   0.816   3.091   3.090
  110DPPC   C50 5500   0.737   3.219   3.118
  111DPPC    C1 5501   1.632   1.080   1.481
  111DPPC    C2 5502   1.658   1.142   1.249
  111DPPC    C3 5503   1.646   0.921   1.301
  111DPPC    N4 5504   1.591   1.050   1.343
  111DPPC    C5 5505   1.445   1.050   1.322
  111DPPC    C6 5506   1.354   0.934   1.363
  111DPPC    O7 5507   1.380   0.892   1.497
  111DPPC    P8 5508   1.282   0.767   1.523
  111DPPC    O9 5509   1.369   0.665   1.584
  111DPPC   O10 5510   1.217   0.722   1.397
  111DPPC   O11 5511   1.189   0.844   1.630
  111DPPC   C12 5512   1.275   0.858   1.743
  111DPPC   C13 5513   1.193   0.868   1.872
  111DPPC   O14 5514   1.261   0.935   1.979
  111DPPC   C15 5515   1.189   0.995   2.077
  111DPPC   O16 5516   1.067   0.985   2.069
  111DPPC   C17 5517   1.262   1.044   2.202
  111DPPC   C18 5518   1.319   1.179   2.159
  111DPPC   C19 5519   1.387   1.235   2.284
  111DPPC   C20 5520   1.433   1.379   2.261
  111DPPC   C21 5521   1.330   1.477   2.205
  111DPPC   C22 5522   1.396   1.614   2.193
  111DPPC   C23 5523   1.289   1.716   2.232
  111DPPC   C24 5524   1.214   1.696   2.364
  111DPPC   C25 5525   1.088   1.782   2.357
  111DPPC   C26 5526   0.999   1.771   2.481
  111DPPC   C27 5527   0.900   1.888   2.479
  111DPPC   C28 5528   0.852   1.901   2.624
  111DPPC   C29 5529   0.769   2.029   2.636
  111DPPC   C30 5530   0.714   2.054   2.777
  111DPPC   C31 5531   0.644   1.931   2.834
  111DPPC   C32 5532   1.124   0.732   1.880
  111DPPC   O33 5533   1.211   0.630   1.930
  111DPPC   C34 5534   1.190   0.497   1.909
  111DPPC   O35 5535   1.119   0.468   1.813
  111DPPC   C36 5536   1.257   0.388   1.993
  111DPPC   C37 5537   1.316   0.440   2.125
  111DPPC   C38 5538   1.208   0.506   2.210
  111DPPC   C39 5539   1.255   0.547   2.350
  111DPPC   C40 5540   1.142   0.623   2.421
  111DPPC   C41 5541   1.181   0.672   2.560
  111DPPC   C42 5542   1.205   0.555   2.656
  111DPPC   C43 5543   1.229   0.615   2.795
  111DPPC   C44 5544   1.111   0.680   2.867
  111DPPC   C45 5545   1.156   0.717   3.009
  111DPPC   C46 5546   1.196   0.864   3.018
  111DPPC   C47 5547   1.218   0.910   3.162
  111DPPC   C48 5548   1.240   1.061   3.154
  111DPPC   C49 5549   1.120   1.109   3.071
  111DPPC   C50 5550   1.101   1.259   3.090
  112DPPC    C1 5551   4.834   8.063   1.596
  112DPPC    C2 5552   5.007   8.076   1.751
  112DPPC    C3 5553   4.794   8.083   1.838
  112DPPC    N4 5554   4.873   8.019   1.731
  112DPPC    C5 5555   4.887   7.873   1.738
  112DPPC    C6 5556   4.770   7.774   1.731
  112DPPC    O7 5557   4.664   7.790   1.825
  112DPPC    P8 5558   4.560   7.668   1.818
  112DPPC    O9 5559   4.550   7.614   1.681
  112DPPC   O10 5560   4.439   7.705   1.896
  112DPPC   O11 5561   4.645   7.555   1.895
  112DPPC   C12 5562   4.581   7.533   2.020
  112DPPC   C13 5563   4.653   7.440   2.118
  112DPPC   O14 5564   4.572   7.369   2.213
  112DPPC   C15 5565   4.535   7.248   2.165
  112DPPC   O16 5566   4.557   7.210   2.049
  112DPPC   C17 5567   4.488   7.150   2.272
  112DPPC   C18 5568   4.568   7.159   2.402
  112DPPC   C19 5569   4.519   7.072   2.518
  112DPPC   C20 5570   4.512   6.926   2.474
  112DPPC   C21 5571   4.480   6.848   2.602
  112DPPC   C22 5572   4.340   6.867   2.662
  112DPPC   C23 5573   4.310   6.752   2.759
  112DPPC   C24 5574   4.183   6.788   2.837
  112DPPC   C25 5575   4.063   6.823   2.748
  112DPPC   C26 5576   3.936   6.834   2.833
  112DPPC   C27 5577   3.832   6.905   2.745
  112DPPC   C28 5578   3.723   6.945   2.845
  112DPPC   C29 5579   3.628   7.049   2.786
  112DPPC   C30 5580   3.519   7.097   2.882
  112DPPC   C31 5581   3.406   7.190   2.837
  112DPPC   C32 5582   4.763   7.531   2.173
  112DPPC   O33 5583   4.875   7.467   2.236
  112DPPC   C34 5584   4.988   7.525   2.284
  112DPPC   O35 5585   5.023   7.639   2.257
  112DPPC   C36 5586   5.078   7.432   2.366
  112DPPC   C37 5587   5.123   7.502   2.495
  112DPPC   C38 5588   5.213   7.415   2.583
  112DPPC   C39 5589   5.235   7.491   2.714
  112DPPC   C40 5590   5.318   7.411   2.814
  112DPPC   C41 5591   5.446   7.345   2.763
  112DPPC   C42 5592   5.557   7.450   2.752
  112DPPC   C43 5593   5.654   7.427   2.868
  112DPPC   C44 5594   5.757   7.540   2.860
  112DPPC   C45 5595   5.827   7.539   2.996
  112DPPC   C46 5596   5.888   7.678   3.020
  112DPPC   C47 5597   5.936   7.687   3.165
  112DPPC   C48 5598   5.811   7.676   3.252
  112DPPC   C49 5599   5.860   7.664   3.396
  112DPPC   C50 5600   5.750   7.706   3.493
  113DPPC    C1 5601   0.876   1.560   1.343
  113DPPC    C2 5602   0.938   1.601   1.564
  113DPPC    C3 5603   0.734   1.514   1.518
  113DPPC    N4 5604   0.875   1.501   1.478
  113DPPC    C5 5605   0.924   1.363   1.491
  113DPPC    C6 5606   1.055   1.331   1.418
  113DPPC    O7 5607   1.164   1.412   1.463
  113DPPC    P8 5608   1.305   1.364   1.403
  113DPPC    O9 5609   1.418   1.460   1.405
  113DPPC   O10 5610   1.280   1.288   1.278
  113DPPC   O11 5611   1.325   1.265   1.529
  113DPPC   C12 5612   1.366   1.357   1.630
  113DPPC   C13 5613   1.371   1.297   1.770
  113DPPC   O14 5614   1.477   1.205   1.801
  113DPPC   C15 5615   1.602   1.252   1.826
  113DPPC   O16 5616   1.622   1.367   1.787
  113DPPC   C17 5617   1.701   1.142   1.864
  113DPPC   C18 5618   1.813   1.184   1.960
  113DPPC   C19 5619   1.752   1.190   2.100
  113DPPC   C20 5620   1.864   1.228   2.197
  113DPPC   C21 5621   1.812   1.226   2.340
  113DPPC   C22 5622   1.927   1.233   2.440
  113DPPC   C23 5623   1.871   1.232   2.582
  113DPPC   C24 5624   1.984   1.228   2.686
  113DPPC   C25 5625   1.931   1.215   2.829
  113DPPC   C26 5626   2.023   1.132   2.919
  113DPPC   C27 5627   1.953   1.116   3.054
  113DPPC   C28 5628   1.811   1.063   3.034
  113DPPC   C29 5629   1.795   0.916   2.992
  113DPPC   C30 5630   1.649   0.878   3.019
  113DPPC   C31 5631   1.634   0.728   2.993
  113DPPC   C32 5632   1.237   1.231   1.807
  113DPPC   O33 5633   1.138   1.326   1.846
  113DPPC   C34 5634   1.023   1.258   1.874
  113DPPC   O35 5635   0.991   1.160   1.806
  113DPPC   C36 5636   0.919   1.350   1.937
  113DPPC   C37 5637   0.855   1.287   2.060
  113DPPC   C38 5638   0.742   1.379   2.108
  113DPPC   C39 5639   0.702   1.336   2.249
  113DPPC   C40 5640   0.611   1.443   2.309
  113DPPC   C41 5641   0.542   1.404   2.440
  113DPPC   C42 5642   0.652   1.352   2.534
  113DPPC   C43 5643   0.601   1.353   2.679
  113DPPC   C44 5644   0.473   1.273   2.701
  113DPPC   C45 5645   0.500   1.128   2.742
  113DPPC   C46 5646   0.373   1.050   2.774
  113DPPC   C47 5647   0.413   0.905   2.806
  113DPPC   C48 5648   0.287   0.820   2.823
  113DPPC   C49 5649   0.325   0.677   2.863
  113DPPC   C50 5650   0.189   0.606   2.859
  114DPPC    C1 5651   1.058   3.964   1.567
  114DPPC    C2 5652   1.153   4.029   1.352
  114DPPC    C3 5653   1.099   4.189   1.516
  114DPPC    N4 5654   1.152   4.053   1.497
  114DPPC    C5 5655   1.277   4.030   1.571
  114DPPC    C6 5656   1.409   4.095   1.528
  114DPPC    O7 5657   1.518   4.044   1.605
  114DPPC    P8 5658   1.651   4.112   1.543
  114DPPC    O9 5659   1.615   4.159   1.408
  114DPPC   O10 5660   1.765   4.017   1.551
  114DPPC   O11 5661   1.657   4.230   1.652
  114DPPC   C12 5662   1.696   4.161   1.771
  114DPPC   C13 5663   1.637   4.229   1.894
  114DPPC   O14 5664   1.686   4.169   2.015
  114DPPC   C15 5665   1.800   4.217   2.072
  114DPPC   O16 5666   1.882   4.271   1.998
  114DPPC   C17 5667   1.849   4.154   2.202
  114DPPC   C18 5668   1.934   4.029   2.177
  114DPPC   C19 5669   2.059   4.035   2.265
  114DPPC   C20 5670   2.147   3.911   2.261
  114DPPC   C21 5671   2.246   3.897   2.377
  114DPPC   C22 5672   2.169   3.915   2.508
  114DPPC   C23 5673   2.269   3.950   2.618
  114DPPC   C24 5674   2.191   4.037   2.717
  114DPPC   C25 5675   2.291   4.113   2.804
  114DPPC   C26 5676   2.241   4.190   2.926
  114DPPC   C27 5677   2.351   4.273   2.992
  114DPPC   C28 5678   2.300   4.348   3.115
  114DPPC   C29 5679   2.414   4.422   3.185
  114DPPC   C30 5680   2.491   4.517   3.093
  114DPPC   C31 5681   2.601   4.569   3.185
  114DPPC   C32 5682   1.489   4.201   1.870
  114DPPC   O33 5683   1.397   4.300   1.919
  114DPPC   C34 5684   1.269   4.255   1.924
  114DPPC   O35 5685   1.230   4.186   1.829
  114DPPC   C36 5686   1.167   4.325   2.014
  114DPPC   C37 5687   1.109   4.228   2.118
  114DPPC   C38 5688   1.018   4.301   2.217
  114DPPC   C39 5689   0.960   4.189   2.303
  114DPPC   C40 5690   1.062   4.132   2.402
  114DPPC   C41 5691   1.000   4.029   2.497
  114DPPC   C42 5692   0.887   4.081   2.586
  114DPPC   C43 5693   0.946   4.178   2.689
  114DPPC   C44 5694   0.838   4.255   2.766
  114DPPC   C45 5695   0.903   4.382   2.822
  114DPPC   C46 5696   0.813   4.469   2.909
  114DPPC   C47 5697   0.737   4.564   2.817
  114DPPC   C48 5698   0.584   4.551   2.814
  114DPPC   C49 5699   0.511   4.650   2.723
  114DPPC   C50 5700   0.363   4.611   2.722
  115DPPC    C1 5701   3.943   3.190   1.911
  115DPPC    C2 5702   3.844   3.330   1.750
  115DPPC    C3 5703   3.736   3.302   1.958
  115DPPC    N4 5704   3.868   3.315   1.894
  115DPPC    C5 5705   3.952   3.420   1.953
  115DPPC    C6 5706   3.939   3.561   1.895
  115DPPC    O7 5707   3.819   3.628   1.934
  115DPPC    P8 5708   3.810   3.775   1.870
  115DPPC    O9 5709   3.705   3.740   1.772
  115DPPC   O10 5710   3.955   3.794   1.847
  115DPPC   O11 5711   3.751   3.852   1.998
  115DPPC   C12 5712   3.871   3.873   2.072
  115DPPC   C13 5713   3.866   3.968   2.192
  115DPPC   O14 5714   3.991   3.981   2.262
  115DPPC   C15 5715   4.043   4.106   2.273
  115DPPC   O16 5716   3.995   4.197   2.205
  115DPPC   C17 5717   4.164   4.122   2.365
  115DPPC   C18 5718   4.203   4.270   2.376
  115DPPC   C19 5719   4.346   4.277   2.428
  115DPPC   C20 5720   4.384   4.419   2.468
  115DPPC   C21 5721   4.521   4.431   2.535
  115DPPC   C22 5722   4.521   4.347   2.663
  115DPPC   C23 5723   4.666   4.314   2.700
  115DPPC   C24 5724   4.686   4.301   2.851
  115DPPC   C25 5725   4.826   4.250   2.885
  115DPPC   C26 5726   4.841   4.246   3.037
  115DPPC   C27 5727   4.987   4.226   3.078
  115DPPC   C28 5728   5.010   4.219   3.229
  115DPPC   C29 5729   4.951   4.092   3.290
  115DPPC   C30 5730   4.950   4.098   3.443
  115DPPC   C31 5731   4.826   4.178   3.483
  115DPPC   C32 5732   3.740   3.916   2.261
  115DPPC   O33 5733   3.697   3.993   2.373
  115DPPC   C34 5734   3.641   4.115   2.355
  115DPPC   O35 5735   3.620   4.174   2.249
  115DPPC   C36 5736   3.616   4.186   2.489
  115DPPC   C37 5737   3.724   4.171   2.597
  115DPPC   C38 5738   3.727   4.038   2.672
  115DPPC   C39 5739   3.820   4.059   2.791
  115DPPC   C40 5740   3.955   4.106   2.735
  115DPPC   C41 5741   4.055   4.127   2.849
  115DPPC   C42 5742   4.021   4.250   2.933
  115DPPC   C43 5743   4.105   4.228   3.059
  115DPPC   C44 5744   4.076   4.342   3.157
  115DPPC   C45 5745   3.925   4.356   3.175
  115DPPC   C46 5746   3.893   4.474   3.267
  115DPPC   C47 5747   3.743   4.488   3.290
  115DPPC   C48 5748   3.681   4.609   3.361
  115DPPC   C49 5749   3.530   4.584   3.376
  115DPPC   C50 5750   3.455   4.689   3.457
  116DPPC    C1 5751   6.687   8.494   1.960
  116DPPC    C2 5752   6.909   8.471   2.021
  116DPPC    C3 5753   6.741   8.326   2.103
  116DPPC    N4 5754   6.791   8.392   1.981
  116DPPC    C5 5755   6.819   8.308   1.864
  116DPPC    C6 5756   6.712   8.202   1.838
  116DPPC    O7 5757   6.727   8.082   1.914
  116DPPC    P8 5758   6.607   7.979   1.883
  116DPPC    O9 5759   6.649   7.837   1.887
  116DPPC   O10 5760   6.535   8.033   1.766
  116DPPC   O11 5761   6.522   8.013   2.015
  116DPPC   C12 5762   6.517   7.903   2.107
  116DPPC   C13 5763   6.423   7.926   2.225
  116DPPC   O14 5764   6.287   7.935   2.180
  116DPPC   C15 5765   6.171   7.955   2.247
  116DPPC   O16 5766   6.062   7.950   2.191
  116DPPC   C17 5767   6.186   7.930   2.397
  116DPPC   C18 5768   6.147   8.044   2.492
  116DPPC   C19 5769   6.196   8.001   2.630
  116DPPC   C20 5770   6.164   8.117   2.725
  116DPPC   C21 5771   6.267   8.226   2.696
  116DPPC   C22 5772   6.235   8.346   2.786
  116DPPC   C23 5773   6.226   8.299   2.931
  116DPPC   C24 5774   6.242   8.415   3.030
  116DPPC   C25 5775   6.270   8.379   3.176
  116DPPC   C26 5776   6.161   8.295   3.243
  116DPPC   C27 5777   6.206   8.245   3.380
  116DPPC   C28 5778   6.121   8.125   3.425
  116DPPC   C29 5779   6.154   8.064   3.561
  116DPPC   C30 5780   6.055   7.957   3.606
  116DPPC   C31 5781   5.915   8.012   3.637
  116DPPC   C32 5782   6.477   8.050   2.297
  116DPPC   O33 5783   6.594   8.006   2.366
  116DPPC   C34 5784   6.643   8.107   2.443
  116DPPC   O35 5785   6.573   8.205   2.465
  116DPPC   C36 5786   6.767   8.072   2.526
  116DPPC   C37 5787   6.891   8.045   2.440
  116DPPC   C38 5788   7.010   8.019   2.533
  116DPPC   C39 5789   7.034   8.120   2.645
  116DPPC   C40 5790   7.137   8.081   2.750
  116DPPC   C41 5791   7.266   8.032   2.682
  116DPPC   C42 5792   7.355   8.149   2.638
  116DPPC   C43 5793   7.432   8.225   2.745
  116DPPC   C44 5794   7.569   8.161   2.770
  116DPPC   C45 5795   7.638   8.221   2.893
  116DPPC   C46 5796   7.664   8.370   2.869
  116DPPC   C47 5797   7.766   8.420   2.972
  116DPPC   C48 5798   7.700   8.464   3.103
  116DPPC   C49 5799   7.786   8.566   3.178
  116DPPC   C50 5800   7.920   8.507   3.223
  117DPPC    C1 5801   5.621   4.557   1.690
  117DPPC    C2 5802   5.760   4.596   1.520
  117DPPC    C3 5803   5.807   4.652   1.753
  117DPPC    N4 5804   5.764   4.548   1.659
  117DPPC    C5 5805   5.800   4.407   1.681
  117DPPC    C6 5806   5.927   4.357   1.611
  117DPPC    O7 5807   5.944   4.216   1.623
  117DPPC    P8 5808   6.072   4.178   1.533
  117DPPC    O9 5809   6.059   4.251   1.404
  117DPPC   O10 5810   6.133   4.044   1.541
  117DPPC   O11 5811   6.181   4.265   1.612
  117DPPC   C12 5812   6.234   4.200   1.728
  117DPPC   C13 5813   6.341   4.285   1.798
  117DPPC   O14 5814   6.437   4.212   1.875
  117DPPC   C15 5815   6.535   4.137   1.817
  117DPPC   O16 5816   6.545   4.135   1.695
  117DPPC   C17 5817   6.630   4.054   1.904
  117DPPC   C18 5818   6.589   4.058   2.051
  117DPPC   C19 5819   6.708   4.012   2.135
  117DPPC   C20 5820   6.710   4.046   2.285
  117DPPC   C21 5821   6.775   3.938   2.372
  117DPPC   C22 5822   6.721   3.801   2.334
  117DPPC   C23 5823   6.787   3.688   2.413
  117DPPC   C24 5824   6.768   3.714   2.563
  117DPPC   C25 5825   6.814   3.589   2.637
  117DPPC   C26 5826   6.730   3.468   2.594
  117DPPC   C27 5827   6.643   3.412   2.707
  117DPPC   C28 5828   6.564   3.289   2.662
  117DPPC   C29 5829   6.491   3.235   2.785
  117DPPC   C30 5830   6.370   3.146   2.758
  117DPPC   C31 5831   6.296   3.099   2.883
  117DPPC   C32 5832   6.269   4.401   1.868
  117DPPC   O33 5833   6.173   4.359   1.966
  117DPPC   C34 5834   6.097   4.466   2.004
  117DPPC   O35 5835   6.090   4.559   1.923
  117DPPC   C36 5836   5.998   4.433   2.115
  117DPPC   C37 5837   5.868   4.381   2.054
  117DPPC   C38 5838   5.765   4.364   2.166
  117DPPC   C39 5839   5.761   4.494   2.247
  117DPPC   C40 5840   5.636   4.577   2.221
  117DPPC   C41 5841   5.639   4.689   2.325
  117DPPC   C42 5842   5.644   4.623   2.463
  117DPPC   C43 5843   5.602   4.729   2.566
  117DPPC   C44 5844   5.634   4.681   2.708
  117DPPC   C45 5845   5.625   4.787   2.818
  117DPPC   C46 5846   5.652   4.715   2.950
  117DPPC   C47 5847   5.599   4.812   3.057
  117DPPC   C48 5848   5.647   4.769   3.195
  117DPPC   C49 5849   5.615   4.620   3.195
  117DPPC   C50 5850   5.660   4.566   3.331
  118DPPC    C1 5851   4.581   0.148   1.365
  118DPPC    C2 5852   4.808   0.098   1.392
  118DPPC    C3 5853   4.708   0.328   1.450
  118DPPC    N4 5854   4.699   0.181   1.446
  118DPPC    C5 5855   4.687   0.150   1.589
  118DPPC    C6 5856   4.663   0.005   1.632
  118DPPC    O7 5857   4.521  -0.014   1.632
  118DPPC    P8 5858   4.491  -0.166   1.676
  118DPPC    O9 5859   4.560  -0.244   1.571
  118DPPC   O10 5860   4.346  -0.182   1.703
  118DPPC   O11 5861   4.572  -0.155   1.814
  118DPPC   C12 5862   4.472  -0.146   1.916
  118DPPC   C13 5863   4.519  -0.131   2.061
  118DPPC   O14 5864   4.535  -0.256   2.129
  118DPPC   C15 5865   4.659  -0.268   2.184
  118DPPC   O16 5866   4.732  -0.169   2.188
  118DPPC   C17 5867   4.691  -0.394   2.265
  118DPPC   C18 5868   4.702  -0.527   2.190
  118DPPC   C19 5869   4.792  -0.617   2.275
  118DPPC   C20 5870   4.725  -0.649   2.409
  118DPPC   C21 5871   4.677  -0.792   2.434
  118DPPC   C22 5872   4.589  -0.813   2.557
  118DPPC   C23 5873   4.512  -0.944   2.575
  118DPPC   C24 5874   4.431  -0.952   2.705
  118DPPC   C25 5875   4.345  -1.077   2.693
  118DPPC   C26 5876   4.239  -1.106   2.799
  118DPPC   C27 5877   4.157  -1.232   2.773
  118DPPC   C28 5878   4.070  -1.267   2.893
  118DPPC   C29 5879   4.146  -1.267   3.026
  118DPPC   C30 5880   4.052  -1.272   3.147
  118DPPC   C31 5881   3.956  -1.389   3.124
  118DPPC   C32 5882   4.422  -0.031   2.124
  118DPPC   O33 5883   4.291  -0.086   2.144
  118DPPC   C34 5884   4.203   0.012   2.178
  118DPPC   O35 5885   4.233   0.127   2.210
  118DPPC   C36 5886   4.061  -0.038   2.205
  118DPPC   C37 5887   4.077  -0.147   2.311
  118DPPC   C38 5888   3.939  -0.199   2.352
  118DPPC   C39 5889   3.955  -0.306   2.460
  118DPPC   C40 5890   3.812  -0.342   2.500
  118DPPC   C41 5891   3.794  -0.455   2.602
  118DPPC   C42 5892   3.648  -0.452   2.646
  118DPPC   C43 5893   3.611  -0.574   2.730
  118DPPC   C44 5894   3.459  -0.575   2.741
  118DPPC   C45 5895   3.421  -0.691   2.833
  118DPPC   C46 5896   3.268  -0.701   2.833
  118DPPC   C47 5897   3.235  -0.821   2.923
  118DPPC   C48 5898   3.217  -0.772   3.066
  118DPPC   C49 5899   3.107  -0.666   3.080
  118DPPC   C50 5900   2.982  -0.727   3.016
  119DPPC    C1 5901   0.334   6.273   0.389
  119DPPC    C2 5902   0.448   6.178   0.588
  119DPPC    C3 5903   0.511   6.388   0.496
  119DPPC    N4 5904   0.398   6.297   0.519
  119DPPC    C5 5905   0.305   6.363   0.612
  119DPPC    C6 5906   0.162   6.311   0.625
  119DPPC    O7 5907   0.101   6.359   0.745
  119DPPC    P8 5908  -0.025   6.262   0.772
  119DPPC    O9 5909   0.021   6.123   0.752
  119DPPC   O10 5910  -0.131   6.329   0.694
  119DPPC   O11 5911  -0.045   6.275   0.931
  119DPPC   C12 5912   0.055   6.185   0.979
  119DPPC   C13 5913   0.101   6.218   1.121
  119DPPC   O14 5914   0.015   6.189   1.233
  119DPPC   C15 5915   0.041   6.066   1.284
  119DPPC   O16 5916   0.140   6.006   1.243
  119DPPC   C17 5917  -0.056   6.001   1.383
  119DPPC   C18 5918  -0.028   6.039   1.529
  119DPPC   C19 5919  -0.078   6.174   1.580
  119DPPC   C20 5920   0.006   6.189   1.707
  119DPPC   C21 5921  -0.024   6.327   1.766
  119DPPC   C22 5922   0.059   6.333   1.894
  119DPPC   C23 5923   0.017   6.446   1.988
  119DPPC   C24 5924   0.075   6.426   2.128
  119DPPC   C25 5925   0.227   6.439   2.128
  119DPPC   C26 5926   0.270   6.433   2.274
  119DPPC   C27 5927   0.419   6.427   2.308
  119DPPC   C28 5928   0.512   6.520   2.229
  119DPPC   C29 5929   0.644   6.523   2.305
  119DPPC   C30 5930   0.620   6.564   2.451
  119DPPC   C31 5931   0.746   6.543   2.535
  119DPPC   C32 5932   0.148   6.363   1.107
  119DPPC   O33 5933   0.175   6.423   1.234
  119DPPC   C34 5934   0.186   6.558   1.234
  119DPPC   O35 5935   0.176   6.609   1.123
  119DPPC   C36 5936   0.170   6.642   1.361
  119DPPC   C37 5937   0.193   6.568   1.493
  119DPPC   C38 5938   0.165   6.650   1.619
  119DPPC   C39 5939   0.253   6.775   1.628
  119DPPC   C40 5940   0.251   6.853   1.760
  119DPPC   C41 5941   0.301   6.743   1.854
  119DPPC   C42 5942   0.251   6.791   1.990
  119DPPC   C43 5943   0.331   6.917   2.025
  119DPPC   C44 5944   0.277   6.971   2.157
  119DPPC   C45 5945   0.325   7.110   2.198
  119DPPC   C46 5946   0.265   7.150   2.333
  119DPPC   C47 5947   0.135   7.228   2.316
  119DPPC   C48 5948   0.074   7.268   2.451
  119DPPC   C49 5949   0.174   7.339   2.542
  119DPPC   C50 5950   0.135   7.339   2.690
  120DPPC    C1 5951   4.029   6.535   1.865
  120DPPC    C2 5952   3.831   6.626   1.759
  120DPPC    C3 5953   3.802   6.462   1.923
  120DPPC    N4 5954   3.888   6.574   1.884
  120DPPC    C5 5955   3.887   6.677   1.989
  120DPPC    C6 5956   3.980   6.798   1.992
  120DPPC    O7 5957   3.964   6.884   2.105
  120DPPC    P8 5958   4.101   6.966   2.129
  120DPPC    O9 5959   4.083   7.069   2.234
  120DPPC   O10 5960   4.144   7.001   1.992
  120DPPC   O11 5961   4.189   6.847   2.192
  120DPPC   C12 5962   4.146   6.828   2.327
  120DPPC   C13 5963   4.065   6.700   2.343
  120DPPC   O14 5964   3.951   6.716   2.430
  120DPPC   C15 5965   3.829   6.687   2.377
  120DPPC   O16 5966   3.811   6.621   2.275
  120DPPC   C17 5967   3.704   6.698   2.465
  120DPPC   C18 5968   3.681   6.562   2.530
  120DPPC   C19 5969   3.546   6.543   2.601
  120DPPC   C20 5970   3.524   6.649   2.709
  120DPPC   C21 5971   3.379   6.649   2.759
  120DPPC   C22 5972   3.376   6.755   2.870
  120DPPC   C23 5973   3.236   6.752   2.933
  120DPPC   C24 5974   3.223   6.873   3.026
  120DPPC   C25 5975   3.098   6.850   3.111
  120DPPC   C26 5976   3.101   6.714   3.182
  120DPPC   C27 5977   2.962   6.674   3.231
  120DPPC   C28 5978   2.963   6.685   3.383
  120DPPC   C29 5979   2.841   6.627   3.456
  120DPPC   C30 5980   2.739   6.737   3.485
  120DPPC   C31 5981   2.618   6.692   3.568
  120DPPC   C32 5982   4.143   6.569   2.361
  120DPPC   O33 5983   4.260   6.578   2.443
  120DPPC   C34 5984   4.321   6.458   2.458
  120DPPC   O35 5985   4.281   6.360   2.394
  120DPPC   C36 5986   4.441   6.429   2.550
  120DPPC   C37 5987   4.402   6.418   2.697
  120DPPC   C38 5988   4.518   6.390   2.792
  120DPPC   C39 5989   4.610   6.513   2.785
  120DPPC   C40 5990   4.734   6.509   2.874
  120DPPC   C41 5991   4.795   6.649   2.890
  120DPPC   C42 5992   4.825   6.715   2.756
  120DPPC   C43 5993   4.859   6.863   2.772
  120DPPC   C44 5994   4.867   6.929   2.634
  120DPPC   C45 5995   4.904   7.077   2.638
  120DPPC   C46 5996   4.827   7.162   2.740
  120DPPC   C47 5997   4.909   7.288   2.769
  120DPPC   C48 5998   4.832   7.384   2.860
  120DPPC   C49 5999   4.929   7.495   2.899
  120DPPC   C50 6000   4.863   7.597   2.992
  121DPPC    C1 6001   7.135   3.245   1.999
  121DPPC    C2 6002   7.185   3.060   2.130
  121DPPC    C3 6003   7.027   3.035   1.944
  121DPPC    N4 6004   7.150   3.099   1.993
  121DPPC    C5 6005   7.259   3.051   1.907
  121DPPC    C6 6006   7.292   3.123   1.776
  121DPPC    O7 6007   7.420   3.074   1.735
  121DPPC    P8 6008   7.462   3.120   1.587
  121DPPC    O9 6009   7.349   3.171   1.507
  121DPPC   O10 6010   7.557   3.023   1.527
  121DPPC   O11 6011   7.558   3.243   1.631
  121DPPC   C12 6012   7.672   3.197   1.704
  121DPPC   C13 6013   7.711   3.277   1.829
  121DPPC   O14 6014   7.834   3.236   1.891
  121DPPC   C15 6015   7.935   3.327   1.893
  121DPPC   O16 6016   7.940   3.416   1.807
  121DPPC   C17 6017   8.055   3.304   1.984
  121DPPC   C18 6018   8.051   3.398   2.106
  121DPPC   C19 6019   7.946   3.348   2.205
  121DPPC   C20 6020   7.965   3.424   2.337
  121DPPC   C21 6021   7.917   3.347   2.461
  121DPPC   C22 6022   7.950   3.436   2.582
  121DPPC   C23 6023   7.871   3.396   2.707
  121DPPC   C24 6024   7.723   3.426   2.684
  121DPPC   C25 6025   7.641   3.377   2.803
  121DPPC   C26 6026   7.693   3.430   2.937
  121DPPC   C27 6027   7.646   3.572   2.967
  121DPPC   C28 6028   7.723   3.624   3.089
  121DPPC   C29 6029   7.865   3.643   3.036
  121DPPC   C30 6030   7.958   3.687   3.149
  121DPPC   C31 6031   7.963   3.587   3.265
  121DPPC   C32 6032   7.601   3.263   1.935
  121DPPC   O33 6033   7.598   3.375   2.023
  121DPPC   C34 6034   7.515   3.353   2.128
  121DPPC   O35 6035   7.408   3.292   2.115
  121DPPC   C36 6036   7.552   3.418   2.262
  121DPPC   C37 6037   7.566   3.568   2.240
  121DPPC   C38 6038   7.643   3.637   2.353
  121DPPC   C39 6039   7.673   3.786   2.337
  121DPPC   C40 6040   7.756   3.820   2.461
  121DPPC   C41 6041   7.801   3.966   2.449
  121DPPC   C42 6042   7.870   4.003   2.581
  121DPPC   C43 6043   7.774   3.988   2.700
  121DPPC   C44 6044   7.837   4.055   2.822
  121DPPC   C45 6045   7.742   4.069   2.942
  121DPPC   C46 6046   7.827   4.130   3.054
  121DPPC   C47 6047   7.753   4.147   3.187
  121DPPC   C48 6048   7.853   4.176   3.299
  121DPPC   C49 6049   7.786   4.185   3.436
  121DPPC   C50 6050   7.896   4.239   3.528
  122DPPC    C1 6051   6.801   6.586   1.388
  122DPPC    C2 6052   7.034   6.600   1.341
  122DPPC    C3 6053   6.880   6.746   1.244
  122DPPC    N4 6054   6.913   6.679   1.370
  122DPPC    C5 6055   6.917   6.765   1.490
  122DPPC    C6 6056   7.038   6.854   1.517
  122DPPC    O7 6057   7.051   6.968   1.432
  122DPPC    P8 6058   7.211   6.987   1.438
  122DPPC    O9 6059   7.232   7.113   1.363
  122DPPC   O10 6060   7.262   6.853   1.405
  122DPPC   O11 6061   7.230   7.032   1.592
  122DPPC   C12 6062   7.171   7.155   1.636
  122DPPC   C13 6063   7.222   7.196   1.775
  122DPPC   O14 6064   7.360   7.224   1.798
  122DPPC   C15 6065   7.412   7.344   1.761
  122DPPC   O16 6066   7.347   7.426   1.695
  122DPPC   C17 6067   7.539   7.385   1.835
  122DPPC   C18 6068   7.524   7.376   1.987
  122DPPC   C19 6069   7.660   7.425   2.038
  122DPPC   C20 6070   7.653   7.431   2.190
  122DPPC   C21 6071   7.795   7.431   2.249
  122DPPC   C22 6072   7.862   7.294   2.254
  122DPPC   C23 6073   7.999   7.308   2.321
  122DPPC   C24 6074   8.022   7.167   2.376
  122DPPC   C25 6075   8.140   7.154   2.472
  122DPPC   C26 6076   8.141   7.006   2.513
  122DPPC   C27 6077   8.236   6.991   2.632
  122DPPC   C28 6078   8.202   7.097   2.736
  122DPPC   C29 6079   8.275   7.074   2.869
  122DPPC   C30 6080   8.264   7.200   2.954
  122DPPC   C31 6081   8.310   7.181   3.099
  122DPPC   C32 6082   7.182   7.072   1.855
  122DPPC   O33 6083   7.039   7.071   1.862
  122DPPC   C34 6084   6.981   6.973   1.936
  122DPPC   O35 6085   7.035   6.863   1.938
  122DPPC   C36 6086   6.831   6.990   1.963
  122DPPC   C37 6087   6.803   6.964   2.111
  122DPPC   C38 6088   6.786   6.814   2.132
  122DPPC   C39 6089   6.756   6.793   2.281
  122DPPC   C40 6090   6.877   6.826   2.369
  122DPPC   C41 6091   6.838   6.801   2.514
  122DPPC   C42 6092   6.949   6.821   2.618
  122DPPC   C43 6093   7.003   6.963   2.628
  122DPPC   C44 6094   7.139   6.975   2.698
  122DPPC   C45 6095   7.124   6.913   2.838
  122DPPC   C46 6096   7.254   6.925   2.917
  122DPPC   C47 6097   7.280   6.805   3.009
  122DPPC   C48 6098   7.405   6.817   3.098
  122DPPC   C49 6099   7.525   6.767   3.018
  122DPPC   C50 6100   7.649   6.811   3.097
  123DPPC    C1 6101   8.025   8.122   1.626
  123DPPC    C2 6102   7.841   8.227   1.542
  123DPPC    C3 6103   7.956   8.118   1.396
  123DPPC    N4 6104   7.912   8.098   1.535
  123DPPC    C5 6105   7.832   7.977   1.558
  123DPPC    C6 6106   7.902   7.843   1.536
  123DPPC    O7 6107   7.812   7.734   1.515
  123DPPC    P8 6108   7.900   7.618   1.445
  123DPPC    O9 6109   7.962   7.705   1.342
  123DPPC   O10 6110   7.801   7.511   1.420
  123DPPC   O11 6111   7.989   7.590   1.577
  123DPPC   C12 6112   7.938   7.464   1.624
  123DPPC   C13 6113   8.020   7.424   1.747
  123DPPC   O14 6114   7.960   7.304   1.797
  123DPPC   C15 6115   8.023   7.188   1.764
  123DPPC   O16 6116   8.094   7.181   1.665
  123DPPC   C17 6117   7.952   7.060   1.810
  123DPPC   C18 6118   8.050   6.963   1.875
  123DPPC   C19 6119   7.980   6.840   1.934
  123DPPC   C20 6120   8.083   6.767   2.020
  123DPPC   C21 6121   8.076   6.802   2.169
  123DPPC   C22 6122   7.984   6.720   2.260
  123DPPC   C23 6123   7.998   6.569   2.239
  123DPPC   C24 6124   7.881   6.514   2.322
  123DPPC   C25 6125   7.860   6.363   2.311
  123DPPC   C26 6126   7.743   6.316   2.399
  123DPPC   C27 6127   7.699   6.173   2.368
  123DPPC   C28 6128   7.605   6.111   2.471
  123DPPC   C29 6129   7.691   6.108   2.597
  123DPPC   C30 6130   7.638   6.024   2.714
  123DPPC   C31 6131   7.715   6.042   2.845
  123DPPC   C32 6132   8.003   7.543   1.841
  123DPPC   O33 6133   8.126   7.587   1.900
  123DPPC   C34 6134   8.102   7.687   1.989
  123DPPC   O35 6135   8.010   7.688   2.070
  123DPPC   C36 6136   8.234   7.765   2.001
  123DPPC   C37 6137   8.272   7.797   2.145
  123DPPC   C38 6138   8.307   7.673   2.228
  123DPPC   C39 6139   8.317   7.698   2.378
  123DPPC   C40 6140   8.353   7.573   2.458
  123DPPC   C41 6141   8.327   7.591   2.608
  123DPPC   C42 6142   8.191   7.537   2.651
  123DPPC   C43 6143   8.192   7.577   2.798
  123DPPC   C44 6144   8.052   7.557   2.856
  123DPPC   C45 6145   8.053   7.589   3.006
  123DPPC   C46 6146   8.109   7.731   3.012
  123DPPC   C47 6147   8.128   7.751   3.162
  123DPPC   C48 6148   8.194   7.626   3.222
  123DPPC   C49 6149   8.243   7.651   3.365
  123DPPC   C50 6150   8.133   7.667   3.471
  124DPPC    C1 6151   6.262   3.401   1.902
  124DPPC    C2 6152   6.238   3.241   2.066
  124DPPC    C3 6153   6.059   3.279   1.907
  124DPPC    N4 6154   6.204   3.268   1.926
  124DPPC    C5 6155   6.253   3.167   1.831
  124DPPC    C6 6156   6.402   3.167   1.797
  124DPPC    O7 6157   6.497   3.171   1.904
  124DPPC    P8 6158   6.645   3.169   1.841
  124DPPC    O9 6159   6.632   3.235   1.709
  124DPPC   O10 6160   6.729   3.047   1.851
  124DPPC   O11 6161   6.705   3.266   1.954
  124DPPC   C12 6162   6.719   3.204   2.082
  124DPPC   C13 6163   6.755   3.301   2.194
  124DPPC   O14 6164   6.750   3.237   2.323
  124DPPC   C15 6165   6.856   3.158   2.354
  124DPPC   O16 6166   6.945   3.145   2.271
  124DPPC   C17 6167   6.870   3.092   2.492
  124DPPC   C18 6168   7.012   3.097   2.549
  124DPPC   C19 6169   7.013   3.062   2.698
  124DPPC   C20 6170   6.923   3.148   2.787
  124DPPC   C21 6171   6.933   3.103   2.933
  124DPPC   C22 6172   6.853   3.186   3.033
  124DPPC   C23 6173   6.851   3.135   3.177
  124DPPC   C24 6174   6.725   3.197   3.237
  124DPPC   C25 6175   6.604   3.173   3.147
  124DPPC   C26 6176   6.474   3.210   3.218
  124DPPC   C27 6177   6.466   3.362   3.218
  124DPPC   C28 6178   6.349   3.395   3.310
  124DPPC   C29 6179   6.349   3.528   3.387
  124DPPC   C30 6180   6.237   3.526   3.491
  124DPPC   C31 6181   6.282   3.485   3.632
  124DPPC   C32 6182   6.668   3.426   2.185
  124DPPC   O33 6183   6.525   3.430   2.195
  124DPPC   C34 6184   6.486   3.560   2.184
  124DPPC   O35 6185   6.535   3.627   2.094
  124DPPC   C36 6186   6.380   3.609   2.283
  124DPPC   C37 6187   6.371   3.524   2.410
  124DPPC   C38 6188   6.256   3.572   2.499
  124DPPC   C39 6189   6.238   3.477   2.617
  124DPPC   C40 6190   6.100   3.491   2.682
  124DPPC   C41 6191   6.088   3.438   2.825
  124DPPC   C42 6192   5.940   3.422   2.862
  124DPPC   C43 6193   5.913   3.398   3.011
  124DPPC   C44 6194   5.879   3.250   3.028
  124DPPC   C45 6195   5.862   3.232   3.179
  124DPPC   C46 6196   5.875   3.082   3.204
  124DPPC   C47 6197   5.843   3.052   3.350
  124DPPC   C48 6198   5.851   2.901   3.377
  124DPPC   C49 6199   5.758   2.858   3.490
  124DPPC   C50 6200   5.782   2.709   3.515
  125DPPC    C1 6201   2.319   0.077   1.295
  125DPPC    C2 6202   2.191   0.192   1.463
  125DPPC    C3 6203   2.092   0.104   1.275
  125DPPC    N4 6204   2.196   0.075   1.374
  125DPPC    C5 6205   2.179  -0.045   1.459
  125DPPC    C6 6206   2.183  -0.180   1.387
  125DPPC    O7 6207   2.058  -0.215   1.326
  125DPPC    P8 6208   2.079  -0.339   1.227
  125DPPC    O9 6209   2.210  -0.315   1.162
  125DPPC   O10 6210   1.953  -0.352   1.150
  125DPPC   O11 6211   2.081  -0.441   1.352
  125DPPC   C12 6212   1.945  -0.482   1.371
  125DPPC   C13 6213   1.918  -0.544   1.508
  125DPPC   O14 6214   1.841  -0.463   1.597
  125DPPC   C15 6215   1.709  -0.454   1.564
  125DPPC   O16 6216   1.645  -0.537   1.499
  125DPPC   C17 6217   1.643  -0.347   1.651
  125DPPC   C18 6218   1.578  -0.416   1.771
  125DPPC   C19 6219   1.499  -0.310   1.847
  125DPPC   C20 6220   1.578  -0.222   1.944
  125DPPC   C21 6221   1.488  -0.112   2.001
  125DPPC   C22 6222   1.565  -0.043   2.114
  125DPPC   C23 6223   1.462   0.042   2.190
  125DPPC   C24 6224   1.344  -0.052   2.212
  125DPPC   C25 6225   1.230   0.014   2.291
  125DPPC   C26 6226   1.271   0.068   2.428
  125DPPC   C27 6227   1.163   0.155   2.491
  125DPPC   C28 6228   1.052   0.060   2.537
  125DPPC   C29 6229   0.925   0.141   2.561
  125DPPC   C30 6230   0.808   0.060   2.618
  125DPPC   C31 6231   0.688   0.154   2.632
  125DPPC   C32 6232   2.055  -0.574   1.570
  125DPPC   O33 6233   2.059  -0.648   1.692
  125DPPC   C34 6234   2.183  -0.669   1.746
  125DPPC   O35 6235   2.281  -0.674   1.672
  125DPPC   C36 6236   2.179  -0.722   1.889
  125DPPC   C37 6237   2.090  -0.636   1.979
  125DPPC   C38 6238   2.159  -0.506   2.021
  125DPPC   C39 6239   2.299  -0.541   2.073
  125DPPC   C40 6240   2.377  -0.411   2.097
  125DPPC   C41 6241   2.305  -0.308   2.183
  125DPPC   C42 6242   2.404  -0.206   2.240
  125DPPC   C43 6243   2.314  -0.111   2.320
  125DPPC   C44 6244   2.400   0.005   2.370
  125DPPC   C45 6245   2.467   0.084   2.258
  125DPPC   C46 6246   2.524   0.214   2.314
  125DPPC   C47 6247   2.404   0.274   2.388
  125DPPC   C48 6248   2.436   0.411   2.447
  125DPPC   C49 6249   2.324   0.445   2.545
  125DPPC   C50 6250   2.376   0.555   2.638
  126DPPC    C1 6251   6.476   3.815   1.539
  126DPPC    C2 6252   6.442   3.974   1.379
  126DPPC    C3 6253   6.499   3.759   1.296
  126DPPC    N4 6254   6.425   3.829   1.402
  126DPPC    C5 6255   6.282   3.801   1.386
  126DPPC    C6 6256   6.226   3.669   1.441
  126DPPC    O7 6257   6.088   3.639   1.423
  126DPPC    P8 6258   6.019   3.505   1.479
  126DPPC    O9 6259   6.126   3.433   1.552
  126DPPC   O10 6260   5.952   3.463   1.354
  126DPPC   O11 6261   5.923   3.578   1.585
  126DPPC   C12 6262   5.975   3.628   1.709
  126DPPC   C13 6263   6.027   3.771   1.701
  126DPPC   O14 6264   6.084   3.817   1.825
  126DPPC   C15 6265   6.212   3.785   1.857
  126DPPC   O16 6266   6.279   3.702   1.795
  126DPPC   C17 6267   6.261   3.862   1.979
  126DPPC   C18 6268   6.140   3.910   2.060
  126DPPC   C19 6269   6.181   3.936   2.205
  126DPPC   C20 6270   6.077   4.007   2.292
  126DPPC   C21 6271   6.116   4.019   2.439
  126DPPC   C22 6272   6.010   4.095   2.519
  126DPPC   C23 6273   6.005   4.243   2.481
  126DPPC   C24 6274   5.914   4.311   2.583
  126DPPC   C25 6275   5.977   4.305   2.723
  126DPPC   C26 6276   5.906   4.398   2.822
  126DPPC   C27 6277   5.980   4.416   2.954
  126DPPC   C28 6278   6.113   4.493   2.953
  126DPPC   C29 6279   6.186   4.467   3.085
  126DPPC   C30 6280   6.199   4.316   3.105
  126DPPC   C31 6281   6.239   4.278   3.248
  126DPPC   C32 6282   5.907   3.850   1.648
  126DPPC   O33 6283   5.797   3.849   1.738
  126DPPC   C34 6284   5.698   3.935   1.701
  126DPPC   O35 6285   5.686   3.974   1.585
  126DPPC   C36 6286   5.587   3.939   1.806
  126DPPC   C37 6287   5.621   4.019   1.932
  126DPPC   C38 6288   5.517   4.028   2.043
  126DPPC   C39 6289   5.587   4.060   2.175
  126DPPC   C40 6290   5.482   4.112   2.273
  126DPPC   C41 6291   5.557   4.135   2.404
  126DPPC   C42 6292   5.468   4.183   2.518
  126DPPC   C43 6293   5.551   4.191   2.647
  126DPPC   C44 6294   5.456   4.245   2.753
  126DPPC   C45 6295   5.516   4.218   2.891
  126DPPC   C46 6296   5.416   4.250   3.003
  126DPPC   C47 6297   5.479   4.232   3.141
  126DPPC   C48 6298   5.373   4.229   3.251
  126DPPC   C49 6299   5.439   4.215   3.388
  126DPPC   C50 6300   5.338   4.186   3.499
  127DPPC    C1 6301   2.131   6.235   1.085
  127DPPC    C2 6302   2.308   6.318   1.217
  127DPPC    C3 6303   2.309   6.304   0.969
  127DPPC    N4 6304   2.235   6.339   1.091
  127DPPC    C5 6305   2.153   6.460   1.085
  127DPPC    C6 6306   2.230   6.590   1.111
  127DPPC    O7 6307   2.133   6.687   1.149
  127DPPC    P8 6308   2.204   6.824   1.196
  127DPPC    O9 6309   2.184   6.914   1.080
  127DPPC   O10 6310   2.340   6.800   1.250
  127DPPC   O11 6311   2.106   6.882   1.310
  127DPPC   C12 6312   2.120   6.810   1.433
  127DPPC   C13 6313   2.073   6.880   1.561
  127DPPC   O14 6314   2.097   6.807   1.682
  127DPPC   C15 6315   2.218   6.790   1.741
  127DPPC   O16 6316   2.316   6.823   1.675
  127DPPC   C17 6317   2.230   6.763   1.892
  127DPPC   C18 6318   2.369   6.708   1.926
  127DPPC   C19 6319   2.382   6.682   2.076
  127DPPC   C20 6320   2.524   6.634   2.107
  127DPPC   C21 6321   2.533   6.618   2.259
  127DPPC   C22 6322   2.528   6.752   2.331
  127DPPC   C23 6323   2.535   6.733   2.483
  127DPPC   C24 6324   2.661   6.669   2.541
  127DPPC   C25 6325   2.655   6.681   2.693
  127DPPC   C26 6326   2.787   6.616   2.735
  127DPPC   C27 6327   2.785   6.590   2.885
  127DPPC   C28 6328   2.679   6.485   2.920
  127DPPC   C29 6329   2.703   6.435   3.062
  127DPPC   C30 6330   2.590   6.334   3.084
  127DPPC   C31 6331   2.598   6.275   3.225
  127DPPC   C32 6332   1.925   6.903   1.529
  127DPPC   O33 6333   1.845   7.002   1.593
  127DPPC   C34 6334   1.754   7.061   1.511
  127DPPC   O35 6335   1.756   7.035   1.390
  127DPPC   C36 6336   1.657   7.161   1.573
  127DPPC   C37 6337   1.610   7.103   1.707
  127DPPC   C38 6338   1.478   7.172   1.744
  127DPPC   C39 6339   1.431   7.137   1.885
  127DPPC   C40 6340   1.300   7.207   1.922
  127DPPC   C41 6341   1.224   7.147   2.040
  127DPPC   C42 6342   1.315   7.164   2.162
  127DPPC   C43 6343   1.251   7.104   2.288
  127DPPC   C44 6344   1.340   7.153   2.403
  127DPPC   C45 6345   1.488   7.118   2.390
  127DPPC   C46 6346   1.547   7.168   2.522
  127DPPC   C47 6347   1.690   7.113   2.524
  127DPPC   C48 6348   1.738   7.120   2.669
  127DPPC   C49 6349   1.731   7.265   2.717
  127DPPC   C50 6350   1.807   7.283   2.848
  128DPPC    C1 6351   1.953   4.051   1.245
  128DPPC    C2 6352   1.748   3.934   1.229
  128DPPC    C3 6353   1.938   3.848   1.114
  128DPPC    N4 6354   1.894   3.917   1.236
  128DPPC    C5 6355   1.927   3.841   1.357
  128DPPC    C6 6356   2.070   3.789   1.372
  128DPPC    O7 6357   2.129   3.829   1.496
  128DPPC    P8 6358   2.287   3.854   1.475
  128DPPC    O9 6359   2.297   4.002   1.482
  128DPPC   O10 6360   2.348   3.772   1.367
  128DPPC   O11 6361   2.337   3.781   1.609
  128DPPC   C12 6362   2.371   3.644   1.590
  128DPPC   C13 6363   2.379   3.561   1.718
  128DPPC   O14 6364   2.285   3.453   1.724
  128DPPC   C15 6365   2.340   3.339   1.772
  128DPPC   O16 6366   2.451   3.308   1.727
  128DPPC   C17 6367   2.245   3.231   1.825
  128DPPC   C18 6368   2.294   3.188   1.963
  128DPPC   C19 6369   2.287   3.300   2.067
  128DPPC   C20 6370   2.281   3.254   2.213
  128DPPC   C21 6371   2.241   3.364   2.312
  128DPPC   C22 6372   2.269   3.322   2.457
  128DPPC   C23 6373   2.255   3.444   2.548
  128DPPC   C24 6374   2.253   3.402   2.695
  128DPPC   C25 6375   2.214   3.527   2.775
  128DPPC   C26 6376   2.329   3.622   2.809
  128DPPC   C27 6377   2.278   3.693   2.934
  128DPPC   C28 6378   2.398   3.756   3.005
  128DPPC   C29 6379   2.498   3.646   3.038
  128DPPC   C30 6380   2.602   3.704   3.134
  128DPPC   C31 6381   2.538   3.749   3.266
  128DPPC   C32 6382   2.364   3.653   1.839
  128DPPC   O33 6383   2.432   3.604   1.955
  128DPPC   C34 6384   2.468   3.706   2.038
  128DPPC   O35 6385   2.454   3.826   2.014
  128DPPC   C36 6386   2.504   3.661   2.180
  128DPPC   C37 6387   2.560   3.771   2.270
  128DPPC   C38 6388   2.577   3.706   2.407
  128DPPC   C39 6389   2.622   3.811   2.508
  128DPPC   C40 6390   2.697   3.741   2.621
  128DPPC   C41 6391   2.763   3.834   2.723
  128DPPC   C42 6392   2.868   3.754   2.800
  128DPPC   C43 6393   2.943   3.858   2.884
  128DPPC   C44 6394   2.966   3.781   3.014
  128DPPC   C45 6395   3.040   3.870   3.115
  128DPPC   C46 6396   3.169   3.924   3.054
  128DPPC   C47 6397   3.249   3.992   3.166
  128DPPC   C48 6398   3.375   4.042   3.095
  128DPPC   C49 6399   3.468   4.112   3.194
  128DPPC   C50 6400   3.589   4.170   3.120
  129DPPC    C1 6401   2.681   2.221   5.435
  129DPPC    C2 6402   2.593   2.195   5.662
  129DPPC    C3 6403   2.632   2.406   5.562
  129DPPC    N4 6404   2.586   2.269   5.535
  129DPPC    C5 6405   2.445   2.266   5.492
  129DPPC    C6 6406   2.388   2.145   5.418
  129DPPC    O7 6407   2.285   2.176   5.324
  129DPPC    P8 6408   2.193   2.047   5.296
  129DPPC    O9 6409   2.099   2.116   5.205
  129DPPC   O10 6410   2.146   2.005   5.429
  129DPPC   O11 6411   2.295   1.941   5.231
  129DPPC   C12 6412   2.331   2.001   5.106
  129DPPC   C13 6413   2.478   1.970   5.078
  129DPPC   O14 6414   2.531   2.052   4.973
  129DPPC   C15 6415   2.587   2.172   5.003
  129DPPC   O16 6416   2.544   2.227   5.104
  129DPPC   C17 6417   2.658   2.258   4.898
  129DPPC   C18 6418   2.585   2.388   4.867
  129DPPC   C19 6419   2.613   2.441   4.726
  129DPPC   C20 6420   2.569   2.328   4.632
  129DPPC   C21 6421   2.597   2.368   4.487
  129DPPC   C22 6422   2.527   2.265   4.398
  129DPPC   C23 6423   2.483   2.333   4.268
  129DPPC   C24 6424   2.444   2.229   4.164
  129DPPC   C25 6425   2.418   2.288   4.025
  129DPPC   C26 6426   2.427   2.181   3.916
  129DPPC   C27 6427   2.430   2.246   3.778
  129DPPC   C28 6428   2.452   2.133   3.677
  129DPPC   C29 6429   2.471   2.193   3.537
  129DPPC   C30 6430   2.450   2.084   3.433
  129DPPC   C31 6431   2.492   2.143   3.298
  129DPPC   C32 6432   2.490   1.820   5.053
  129DPPC   O33 6433   2.379   1.774   4.976
  129DPPC   C34 6434   2.388   1.640   4.951
  129DPPC   O35 6435   2.485   1.581   4.998
  129DPPC   C36 6436   2.282   1.572   4.866
  129DPPC   C37 6437   2.325   1.434   4.815
  129DPPC   C38 6438   2.448   1.457   4.726
  129DPPC   C39 6439   2.487   1.317   4.677
  129DPPC   C40 6440   2.388   1.256   4.578
  129DPPC   C41 6441   2.470   1.146   4.510
  129DPPC   C42 6442   2.400   1.093   4.384
  129DPPC   C43 6443   2.474   0.966   4.341
  129DPPC   C44 6444   2.389   0.888   4.241
  129DPPC   C45 6445   2.477   0.786   4.168
  129DPPC   C46 6446   2.401   0.720   4.052
  129DPPC   C47 6447   2.495   0.624   3.979
  129DPPC   C48 6448   2.436   0.597   3.840
  129DPPC   C49 6449   2.531   0.514   3.754
  129DPPC   C50 6450   2.474   0.448   3.628
  130DPPC    C1 6451   0.571   7.729   1.053
  130DPPC    C2 6452   0.748   7.892   1.051
  130DPPC    C3 6453   0.519   7.956   1.070
  130DPPC    N4 6454   0.619   7.856   1.110
  130DPPC    C5 6455   0.603   7.852   1.256
  130DPPC    C6 6456   0.677   7.743   1.333
  130DPPC    O7 6457   0.587   7.651   1.395
  130DPPC    P8 6458   0.658   7.587   1.524
  130DPPC    O9 6459   0.789   7.652   1.541
  130DPPC   O10 6460   0.639   7.440   1.523
  130DPPC   O11 6461   0.552   7.651   1.627
  130DPPC   C12 6462   0.619   7.756   1.699
  130DPPC   C13 6463   0.533   7.820   1.808
  130DPPC   O14 6464   0.622   7.857   1.914
  130DPPC   C15 6465   0.711   7.960   1.911
  130DPPC   O16 6466   0.697   8.042   1.820
  130DPPC   C17 6467   0.797   7.974   2.037
  130DPPC   C18 6468   0.744   8.073   2.141
  130DPPC   C19 6469   0.756   8.007   2.278
  130DPPC   C20 6470   0.897   7.950   2.298
  130DPPC   C21 6471   0.987   8.072   2.323
  130DPPC   C22 6472   1.135   8.031   2.323
  130DPPC   C23 6473   1.201   8.136   2.412
  130DPPC   C24 6474   1.215   8.093   2.558
  130DPPC   C25 6475   1.332   7.995   2.572
  130DPPC   C26 6476   1.345   7.948   2.717
  130DPPC   C27 6477   1.388   8.052   2.821
  130DPPC   C28 6478   1.396   8.014   2.969
  130DPPC   C29 6479   1.502   7.903   2.968
  130DPPC   C30 6480   1.515   7.843   3.108
  130DPPC   C31 6481   1.384   7.836   3.186
  130DPPC   C32 6482   0.431   7.713   1.848
  130DPPC   O33 6483   0.315   7.768   1.911
  130DPPC   C34 6484   0.242   7.668   1.968
  130DPPC   O35 6485   0.262   7.549   1.945
  130DPPC   C36 6486   0.112   7.714   2.034
  130DPPC   C37 6487   0.058   7.609   2.132
  130DPPC   C38 6488  -0.087   7.625   2.177
  130DPPC   C39 6489  -0.120   7.762   2.237
  130DPPC   C40 6490  -0.251   7.779   2.314
  130DPPC   C41 6491  -0.262   7.929   2.337
  130DPPC   C42 6492  -0.407   7.963   2.373
  130DPPC   C43 6493  -0.431   8.110   2.408
  130DPPC   C44 6494  -0.547   8.141   2.502
  130DPPC   C45 6495  -0.568   8.291   2.524
  130DPPC   C46 6496  -0.681   8.332   2.618
  130DPPC   C47 6497  -0.642   8.281   2.757
  130DPPC   C48 6498  -0.765   8.281   2.849
  130DPPC   C49 6499  -0.818   8.425   2.857
  130DPPC   C50 6500  -0.964   8.426   2.904
  131DPPC    C1 6501   1.314   4.048   5.363
  131DPPC    C2 6502   1.339   3.873   5.193
  131DPPC    C3 6503   1.200   4.062   5.162
  131DPPC    N4 6504   1.328   4.017   5.220
  131DPPC    C5 6505   1.428   4.097   5.148
  131DPPC    C6 6506   1.441   4.247   5.177
  131DPPC    O7 6507   1.362   4.327   5.088
  131DPPC    P8 6508   1.381   4.479   5.137
  131DPPC    O9 6509   1.440   4.485   5.273
  131DPPC   O10 6510   1.259   4.556   5.105
  131DPPC   O11 6511   1.494   4.516   5.029
  131DPPC   C12 6512   1.435   4.502   4.900
  131DPPC   C13 6513   1.539   4.498   4.788
  131DPPC   O14 6514   1.474   4.513   4.662
  131DPPC   C15 6515   1.531   4.610   4.584
  131DPPC   O16 6516   1.630   4.674   4.618
  131DPPC   C17 6517   1.483   4.602   4.439
  131DPPC   C18 6518   1.587   4.517   4.365
  131DPPC   C19 6519   1.531   4.486   4.226
  131DPPC   C20 6520   1.649   4.471   4.130
  131DPPC   C21 6521   1.609   4.424   3.990
  131DPPC   C22 6522   1.732   4.447   3.902
  131DPPC   C23 6523   1.710   4.391   3.761
  131DPPC   C24 6524   1.826   4.421   3.666
  131DPPC   C25 6525   1.962   4.374   3.717
  131DPPC   C26 6526   2.069   4.398   3.609
  131DPPC   C27 6527   2.209   4.365   3.662
  131DPPC   C28 6528   2.312   4.369   3.549
  131DPPC   C29 6529   2.455   4.374   3.604
  131DPPC   C30 6530   2.527   4.503   3.564
  131DPPC   C31 6531   2.675   4.504   3.602
  131DPPC   C32 6532   1.621   4.371   4.810
  131DPPC   O33 6533   1.695   4.310   4.704
  131DPPC   C34 6534   1.760   4.191   4.702
  131DPPC   O35 6535   1.729   4.114   4.793
  131DPPC   C36 6536   1.842   4.137   4.585
  131DPPC   C37 6537   1.758   4.143   4.457
  131DPPC   C38 6538   1.831   4.080   4.339
  131DPPC   C39 6539   1.738   4.088   4.217
  131DPPC   C40 6540   1.595   4.033   4.220
  131DPPC   C41 6541   1.554   4.035   4.072
  131DPPC   C42 6542   1.401   4.028   4.069
  131DPPC   C43 6543   1.357   4.022   3.922
  131DPPC   C44 6544   1.413   3.900   3.849
  131DPPC   C45 6545   1.347   3.887   3.712
  131DPPC   C46 6546   1.399   3.983   3.604
  131DPPC   C47 6547   1.398   3.919   3.465
  131DPPC   C48 6548   1.420   4.021   3.353
  131DPPC   C49 6549   1.419   3.955   3.215
  131DPPC   C50 6550   1.523   3.848   3.183
  132DPPC    C1 6551   9.124   6.443   0.937
  132DPPC    C2 6552   9.325   6.553   1.040
  132DPPC    C3 6553   9.182   6.666   0.898
  132DPPC    N4 6554   9.183   6.561   1.001
  132DPPC    C5 6555   9.102   6.597   1.119
  132DPPC    C6 6556   8.950   6.609   1.117
  132DPPC    O7 6557   8.901   6.641   1.248
  132DPPC    P8 6558   8.744   6.615   1.268
  132DPPC    O9 6559   8.725   6.471   1.238
  132DPPC   O10 6560   8.688   6.720   1.181
  132DPPC   O11 6561   8.733   6.631   1.428
  132DPPC   C12 6562   8.846   6.583   1.500
  132DPPC   C13 6563   8.839   6.612   1.650
  132DPPC   O14 6564   8.955   6.569   1.724
  132DPPC   C15 6565   9.068   6.644   1.723
  132DPPC   O16 6566   9.091   6.715   1.625
  132DPPC   C17 6567   9.169   6.632   1.837
  132DPPC   C18 6568   9.141   6.715   1.963
  132DPPC   C19 6569   9.250   6.701   2.070
  132DPPC   C20 6570   9.193   6.755   2.201
  132DPPC   C21 6571   9.262   6.722   2.334
  132DPPC   C22 6572   9.410   6.759   2.340
  132DPPC   C23 6573   9.434   6.791   2.488
  132DPPC   C24 6574   9.571   6.738   2.530
  132DPPC   C25 6575   9.608   6.777   2.674
  132DPPC   C26 6576   9.758   6.747   2.671
  132DPPC   C27 6577   9.799   6.752   2.819
  132DPPC   C28 6578   9.951   6.749   2.839
  132DPPC   C29 6579   9.973   6.701   2.983
  132DPPC   C30 6580   9.962   6.548   2.981
  132DPPC   C31 6581   9.978   6.489   3.121
  132DPPC   C32 6582   8.709   6.549   1.702
  132DPPC   O33 6583   8.690   6.546   1.843
  132DPPC   C34 6584   8.574   6.495   1.895
  132DPPC   O35 6585   8.483   6.469   1.816
  132DPPC   C36 6586   8.562   6.491   2.047
  132DPPC   C37 6587   8.487   6.608   2.112
  132DPPC   C38 6588   8.430   6.570   2.249
  132DPPC   C39 6589   8.386   6.692   2.329
  132DPPC   C40 6590   8.385   6.663   2.479
  132DPPC   C41 6591   8.287   6.549   2.511
  132DPPC   C42 6592   8.296   6.515   2.660
  132DPPC   C43 6593   8.274   6.644   2.740
  132DPPC   C44 6594   8.244   6.600   2.883
  132DPPC   C45 6595   8.186   6.719   2.959
  132DPPC   C46 6596   8.174   6.680   3.107
  132DPPC   C47 6597   8.102   6.797   3.175
  132DPPC   C48 6598   8.094   6.789   3.327
  132DPPC   C49 6599   7.994   6.680   3.365
  132DPPC   C50 6600   8.005   6.657   3.516
  133DPPC    C1 6601   7.187   0.334   5.255
  133DPPC    C2 6602   7.165   0.536   5.346
  133DPPC    C3 6603   7.287   0.349   5.466
  133DPPC    N4 6604   7.262   0.426   5.343
  133DPPC    C5 6605   7.391   0.461   5.281
  133DPPC    C6 6606   7.492   0.561   5.336
  133DPPC    O7 6607   7.612   0.564   5.258
  133DPPC    P8 6608   7.723   0.664   5.317
  133DPPC    O9 6609   7.848   0.665   5.239
  133DPPC   O10 6610   7.705   0.656   5.464
  133DPPC   O11 6611   7.647   0.798   5.269
  133DPPC   C12 6612   7.672   0.820   5.130
  133DPPC   C13 6613   7.583   0.922   5.059
  133DPPC   O14 6614   7.637   1.055   5.045
  133DPPC   C15 6615   7.727   1.071   4.945
  133DPPC   O16 6616   7.762   0.967   4.888
  133DPPC   C17 6617   7.811   1.198   4.934
  133DPPC   C18 6618   7.748   1.322   4.870
  133DPPC   C19 6619   7.756   1.319   4.717
  133DPPC   C20 6620   7.704   1.452   4.662
  133DPPC   C21 6621   7.779   1.575   4.714
  133DPPC   C22 6622   7.698   1.701   4.681
  133DPPC   C23 6623   7.787   1.825   4.695
  133DPPC   C24 6624   7.689   1.944   4.700
  133DPPC   C25 6625   7.611   1.949   4.569
  133DPPC   C26 6626   7.496   2.049   4.562
  133DPPC   C27 6627   7.423   2.033   4.428
  133DPPC   C28 6628   7.312   2.139   4.430
  133DPPC   C29 6629   7.227   2.121   4.304
  133DPPC   C30 6630   7.095   2.198   4.307
  133DPPC   C31 6631   7.007   2.165   4.186
  133DPPC   C32 6632   7.458   0.932   5.147
  133DPPC   O33 6633   7.330   0.925   5.085
  133DPPC   C34 6634   7.283   0.800   5.058
  133DPPC   O35 6635   7.325   0.695   5.108
  133DPPC   C36 6636   7.145   0.798   4.992
  133DPPC   C37 6637   7.162   0.779   4.841
  133DPPC   C38 6638   7.023   0.809   4.785
  133DPPC   C39 6639   7.042   0.831   4.635
  133DPPC   C40 6640   7.098   0.706   4.566
  133DPPC   C41 6641   7.091   0.728   4.415
  133DPPC   C42 6642   7.102   0.596   4.338
  133DPPC   C43 6643   7.078   0.626   4.191
  133DPPC   C44 6644   7.176   0.717   4.116
  133DPPC   C45 6645   7.154   0.713   3.965
  133DPPC   C46 6646   7.167   0.570   3.914
  133DPPC   C47 6647   7.140   0.564   3.763
  133DPPC   C48 6648   7.161   0.424   3.704
  133DPPC   C49 6649   7.155   0.425   3.552
  133DPPC   C50 6650   7.009   0.440   3.506
  134DPPC    C1 6651   0.161   7.795   5.096
  134DPPC    C2 6652   0.101   7.843   5.303
  134DPPC    C3 6653   0.337   7.827   5.253
  134DPPC    N4 6654   0.207   7.879   5.208
  134DPPC    C5 6655   0.207   8.024   5.188
  134DPPC    C6 6656   0.292   8.087   5.078
  134DPPC    O7 6657   0.264   8.054   4.942
  134DPPC    P8 6658   0.370   8.141   4.858
  134DPPC    O9 6659   0.492   8.058   4.871
  134DPPC   O10 6660   0.360   8.276   4.918
  134DPPC   O11 6661   0.319   8.133   4.706
  134DPPC   C12 6662   0.336   8.255   4.632
  134DPPC   C13 6663   0.369   8.235   4.484
  134DPPC   O14 6664   0.368   8.357   4.409
  134DPPC   C15 6665   0.464   8.453   4.411
  134DPPC   O16 6666   0.572   8.421   4.460
  134DPPC   C17 6667   0.447   8.583   4.334
  134DPPC   C18 6668   0.356   8.570   4.211
  134DPPC   C19 6669   0.383   8.686   4.115
  134DPPC   C20 6670   0.311   8.674   3.981
  134DPPC   C21 6671   0.384   8.752   3.872
  134DPPC   C22 6672   0.289   8.859   3.818
  134DPPC   C23 6673   0.343   8.954   3.711
  134DPPC   C24 6674   0.328   9.100   3.754
  134DPPC   C25 6675   0.396   9.192   3.653
  134DPPC   C26 6676   0.377   9.340   3.686
  134DPPC   C27 6677   0.447   9.423   3.578
  134DPPC   C28 6678   0.399   9.568   3.577
  134DPPC   C29 6679   0.507   9.654   3.512
  134DPPC   C30 6680   0.512   9.605   3.368
  134DPPC   C31 6681   0.615   9.693   3.296
  134DPPC   C32 6682   0.260   8.138   4.437
  134DPPC   O33 6683   0.128   8.185   4.463
  134DPPC   C34 6684   0.026   8.094   4.461
  134DPPC   O35 6685   0.047   7.978   4.425
  134DPPC   C36 6686  -0.107   8.152   4.507
  134DPPC   C37 6687  -0.190   8.196   4.386
  134DPPC   C38 6688  -0.243   8.086   4.294
  134DPPC   C39 6689  -0.316   8.145   4.173
  134DPPC   C40 6690  -0.367   8.050   4.064
  134DPPC   C41 6691  -0.408   8.116   3.933
  134DPPC   C42 6692  -0.497   8.237   3.963
  134DPPC   C43 6693  -0.553   8.277   3.826
  134DPPC   C44 6694  -0.613   8.152   3.763
  134DPPC   C45 6695  -0.724   8.212   3.676
  134DPPC   C46 6696  -0.802   8.103   3.601
  134DPPC   C47 6697  -0.925   8.156   3.526
  134DPPC   C48 6698  -1.014   8.035   3.496
  134DPPC   C49 6699  -1.131   8.096   3.419
  134DPPC   C50 6700  -1.072   8.175   3.303
  135DPPC    C1 6701   7.773   7.809   5.381
  135DPPC    C2 6702   7.834   7.985   5.515
  135DPPC    C3 6703   7.967   7.960   5.321
  135DPPC    N4 6704   7.831   7.944   5.374
  135DPPC    C5 6705   7.731   8.026   5.302
  135DPPC    C6 6706   7.681   7.980   5.165
  135DPPC    O7 6707   7.557   8.023   5.108
  135DPPC    P8 6708   7.551   7.979   4.954
  135DPPC    O9 6709   7.420   8.022   4.899
  135DPPC   O10 6710   7.606   7.842   4.947
  135DPPC   O11 6711   7.663   8.087   4.912
  135DPPC   C12 6712   7.614   8.205   4.847
  135DPPC   C13 6713   7.721   8.313   4.835
  135DPPC   O14 6714   7.670   8.447   4.822
  135DPPC   C15 6715   7.757   8.552   4.819
  135DPPC   O16 6716   7.862   8.541   4.881
  135DPPC   C17 6717   7.695   8.692   4.810
  135DPPC   C18 6718   7.785   8.792   4.737
  135DPPC   C19 6719   7.827   8.738   4.601
  135DPPC   C20 6720   7.712   8.698   4.509
  135DPPC   C21 6721   7.737   8.569   4.431
  135DPPC   C22 6722   7.595   8.526   4.391
  135DPPC   C23 6723   7.525   8.627   4.301
  135DPPC   C24 6724   7.595   8.630   4.164
  135DPPC   C25 6725   7.523   8.703   4.050
  135DPPC   C26 6726   7.606   8.703   3.921
  135DPPC   C27 6727   7.538   8.793   3.818
  135DPPC   C28 6728   7.645   8.841   3.720
  135DPPC   C29 6729   7.561   8.935   3.633
  135DPPC   C30 6730   7.634   8.990   3.510
  135DPPC   C31 6731   7.598   8.908   3.386
  135DPPC   C32 6732   7.832   8.263   4.741
  135DPPC   O33 6733   7.779   8.205   4.622
  135DPPC   C34 6734   7.876   8.163   4.537
  135DPPC   O35 6735   7.993   8.195   4.560
  135DPPC   C36 6736   7.829   8.136   4.394
  135DPPC   C37 6737   7.700   8.055   4.412
  135DPPC   C38 6738   7.617   8.056   4.284
  135DPPC   C39 6739   7.494   7.966   4.276
  135DPPC   C40 6740   7.419   7.955   4.142
  135DPPC   C41 6741   7.404   8.100   4.095
  135DPPC   C42 6742   7.331   8.090   3.960
  135DPPC   C43 6743   7.423   8.008   3.869
  135DPPC   C44 6744   7.373   8.021   3.725
  135DPPC   C45 6745   7.481   7.976   3.625
  135DPPC   C46 6746   7.447   7.962   3.477
  135DPPC   C47 6747   7.355   7.843   3.447
  135DPPC   C48 6748   7.323   7.842   3.297
  135DPPC   C49 6749   7.232   7.730   3.246
  135DPPC   C50 6750   7.215   7.746   3.095
  136DPPC    C1 6751   6.996   3.243   5.793
  136DPPC    C2 6752   7.207   3.242   5.709
  136DPPC    C3 6753   7.089   3.428   5.680
  136DPPC    N4 6754   7.116   3.328   5.784
  136DPPC    C5 6755   7.172   3.380   5.910
  136DPPC    C6 6756   7.318   3.424   5.906
  136DPPC    O7 6757   7.346   3.543   5.832
  136DPPC    P8 6758   7.499   3.541   5.782
  136DPPC    O9 6759   7.563   3.441   5.871
  136DPPC   O10 6760   7.536   3.684   5.778
  136DPPC   O11 6761   7.466   3.487   5.634
  136DPPC   C12 6762   7.446   3.608   5.560
  136DPPC   C13 6763   7.521   3.601   5.426
  136DPPC   O14 6764   7.485   3.713   5.343
  136DPPC   C15 6765   7.550   3.832   5.356
  136DPPC   O16 6766   7.648   3.844   5.430
  136DPPC   C17 6767   7.489   3.954   5.288
  136DPPC   C18 6768   7.549   4.001   5.155
  136DPPC   C19 6769   7.482   4.120   5.086
  136DPPC   C20 6770   7.554   4.145   4.954
  136DPPC   C21 6771   7.571   4.030   4.855
  136DPPC   C22 6772   7.651   4.079   4.734
  136DPPC   C23 6773   7.581   4.201   4.673
  136DPPC   C24 6774   7.688   4.285   4.604
  136DPPC   C25 6775   7.744   4.239   4.469
  136DPPC   C26 6776   7.862   4.322   4.420
  136DPPC   C27 6777   7.935   4.245   4.310
  136DPPC   C28 6778   8.045   4.324   4.239
  136DPPC   C29 6779   7.993   4.459   4.189
  136DPPC   C30 6780   8.056   4.493   4.053
  136DPPC   C31 6781   8.018   4.632   4.004
  136DPPC   C32 6782   7.454   3.474   5.374
  136DPPC   O33 6783   7.533   3.388   5.291
  136DPPC   C34 6784   7.486   3.275   5.231
  136DPPC   O35 6785   7.369   3.242   5.246
  136DPPC   C36 6786   7.566   3.224   5.111
  136DPPC   C37 6787   7.531   3.322   4.999
  136DPPC   C38 6788   7.479   3.255   4.872
  136DPPC   C39 6789   7.411   3.350   4.773
  136DPPC   C40 6790   7.359   3.280   4.647
  136DPPC   C41 6791   7.276   3.380   4.567
  136DPPC   C42 6792   7.212   3.316   4.443
  136DPPC   C43 6793   7.151   3.427   4.357
  136DPPC   C44 6794   7.111   3.365   4.223
  136DPPC   C45 6795   7.037   3.461   4.130
  136DPPC   C46 6796   7.003   3.381   4.004
  136DPPC   C47 6797   6.949   3.479   3.899
  136DPPC   C48 6798   6.968   3.413   3.762
  136DPPC   C49 6799   6.871   3.295   3.751
  136DPPC   C50 6800   6.898   3.248   3.608
  137DPPC    C1 6801   2.985   6.191   4.777
  137DPPC    C2 6802   3.097   6.018   4.899
  137DPPC    C3 6803   3.202   6.231   4.836
  137DPPC    N4 6804   3.081   6.164   4.885
  137DPPC    C5 6805   3.048   6.236   5.009
  137DPPC    C6 6806   2.913   6.204   5.073
  137DPPC    O7 6807   2.798   6.273   5.024
  137DPPC    P8 6808   2.663   6.188   5.049
  137DPPC    O9 6809   2.550   6.263   4.991
  137DPPC   O10 6810   2.679   6.145   5.190
  137DPPC   O11 6811   2.693   6.061   4.956
  137DPPC   C12 6812   2.593   6.032   4.858
  137DPPC   C13 6813   2.628   5.900   4.790
  137DPPC   O14 6814   2.750   5.906   4.715
  137DPPC   C15 6815   2.820   5.791   4.699
  137DPPC   O16 6816   2.790   5.700   4.776
  137DPPC   C17 6817   2.946   5.784   4.613
  137DPPC   C18 6818   2.922   5.846   4.475
  137DPPC   C19 6819   3.047   5.820   4.391
  137DPPC   C20 6820   3.088   5.673   4.376
  137DPPC   C21 6821   3.194   5.665   4.266
  137DPPC   C22 6822   3.250   5.524   4.246
  137DPPC   C23 6823   3.372   5.507   4.155
  137DPPC   C24 6824   3.416   5.361   4.136
  137DPPC   C25 6825   3.530   5.346   4.035
  137DPPC   C26 6826   3.556   5.197   4.017
  137DPPC   C27 6827   3.677   5.163   3.930
  137DPPC   C28 6828   3.659   5.227   3.792
  137DPPC   C29 6829   3.749   5.163   3.686
  137DPPC   C30 6830   3.663   5.159   3.560
  137DPPC   C31 6831   3.724   5.070   3.451
  137DPPC   C32 6832   2.500   5.861   4.715
  137DPPC   O33 6833   2.436   5.964   4.639
  137DPPC   C34 6834   2.338   5.924   4.553
  137DPPC   O35 6835   2.309   5.805   4.541
  137DPPC   C36 6836   2.281   6.030   4.459
  137DPPC   C37 6837   2.246   5.984   4.317
  137DPPC   C38 6838   2.227   6.089   4.208
  137DPPC   C39 6839   2.196   6.019   4.076
  137DPPC   C40 6840   2.256   6.101   3.962
  137DPPC   C41 6841   2.165   6.218   3.925
  137DPPC   C42 6842   2.192   6.266   3.782
  137DPPC   C43 6843   2.166   6.147   3.690
  137DPPC   C44 6844   2.211   6.158   3.544
  137DPPC   C45 6845   2.158   6.039   3.463
  137DPPC   C46 6846   2.188   5.907   3.534
  137DPPC   C47 6847   2.127   5.792   3.455
  137DPPC   C48 6848   1.975   5.785   3.469
  137DPPC   C49 6849   1.904   5.676   3.389
  137DPPC   C50 6850   1.763   5.648   3.442
  138DPPC    C1 6851   1.966   2.736   5.432
  138DPPC    C2 6852   1.926   2.959   5.504
  138DPPC    C3 6853   2.096   2.826   5.594
  138DPPC    N4 6854   2.031   2.863   5.467
  138DPPC    C5 6855   2.117   2.899   5.354
  138DPPC    C6 6856   2.050   2.953   5.226
  138DPPC    O7 6857   1.971   2.867   5.145
  138DPPC    P8 6858   1.938   2.954   5.014
  138DPPC    O9 6859   1.881   3.074   5.080
  138DPPC   O10 6860   1.862   2.867   4.922
  138DPPC   O11 6861   2.093   2.974   4.974
  138DPPC   C12 6862   2.103   3.061   4.861
  138DPPC   C13 6863   2.241   3.123   4.840
  138DPPC   O14 6864   2.254   3.236   4.753
  138DPPC   C15 6865   2.232   3.362   4.799
  138DPPC   O16 6866   2.209   3.377   4.919
  138DPPC   C17 6867   2.233   3.474   4.694
  138DPPC   C18 6868   2.345   3.575   4.716
  138DPPC   C19 6869   2.344   3.683   4.607
  138DPPC   C20 6870   2.207   3.750   4.591
  138DPPC   C21 6871   2.197   3.840   4.467
  138DPPC   C22 6872   2.156   3.765   4.340
  138DPPC   C23 6873   2.153   3.865   4.224
  138DPPC   C24 6874   2.172   3.777   4.100
  138DPPC   C25 6875   2.193   3.846   3.965
  138DPPC   C26 6876   2.206   3.725   3.872
  138DPPC   C27 6877   2.225   3.768   3.726
  138DPPC   C28 6878   2.107   3.861   3.695
  138DPPC   C29 6879   2.144   3.946   3.573
  138DPPC   C30 6880   2.034   4.040   3.525
  138DPPC   C31 6881   1.925   3.952   3.464
  138DPPC   C32 6882   2.327   3.006   4.792
  138DPPC   O33 6883   2.261   2.939   4.684
  138DPPC   C34 6884   2.302   2.810   4.674
  138DPPC   O35 6885   2.366   2.761   4.767
  138DPPC   C36 6886   2.277   2.722   4.551
  138DPPC   C37 6887   2.339   2.790   4.428
  138DPPC   C38 6888   2.322   2.686   4.317
  138DPPC   C39 6889   2.180   2.652   4.273
  138DPPC   C40 6890   2.173   2.538   4.171
  138DPPC   C41 6891   2.028   2.523   4.123
  138DPPC   C42 6892   2.008   2.391   4.048
  138DPPC   C43 6893   1.863   2.391   4.001
  138DPPC   C44 6894   1.816   2.267   3.923
  138DPPC   C45 6895   1.664   2.269   3.943
  138DPPC   C46 6896   1.606   2.164   3.849
  138DPPC   C47 6897   1.453   2.160   3.860
  138DPPC   C48 6898   1.393   2.034   3.798
  138DPPC   C49 6899   1.246   2.009   3.831
  138DPPC   C50 6900   1.256   2.017   3.983
  139DPPC    C1 6901   8.967   3.857   5.109
  139DPPC    C2 6902   8.792   4.015   5.062
  139DPPC    C3 6903   8.791   3.882   5.258
  139DPPC    N4 6904   8.877   3.958   5.167
  139DPPC    C5 6905   8.946   4.056   5.252
  139DPPC    C6 6906   9.027   4.161   5.175
  139DPPC    O7 6907   9.097   4.245   5.269
  139DPPC    P8 6908   9.134   4.385   5.200
  139DPPC    O9 6909   9.166   4.489   5.301
  139DPPC   O10 6910   9.036   4.413   5.093
  139DPPC   O11 6911   9.263   4.341   5.115
  139DPPC   C12 6912   9.280   4.420   4.998
  139DPPC   C13 6913   9.346   4.345   4.882
  139DPPC   O14 6914   9.393   4.428   4.775
  139DPPC   C15 6915   9.506   4.504   4.785
  139DPPC   O16 6916   9.571   4.502   4.889
  139DPPC   C17 6917   9.519   4.614   4.680
  139DPPC   C18 6918   9.608   4.572   4.563
  139DPPC   C19 6919   9.607   4.667   4.443
  139DPPC   C20 6920   9.644   4.596   4.313
  139DPPC   C21 6921   9.625   4.680   4.186
  139DPPC   C22 6922   9.605   4.578   4.074
  139DPPC   C23 6923   9.614   4.652   3.940
  139DPPC   C24 6924   9.620   4.551   3.826
  139DPPC   C25 6925   9.628   4.620   3.690
  139DPPC   C26 6926   9.632   4.509   3.585
  139DPPC   C27 6927   9.688   4.559   3.452
  139DPPC   C28 6928   9.607   4.667   3.380
  139DPPC   C29 6929   9.686   4.691   3.251
  139DPPC   C30 6930   9.613   4.791   3.161
  139DPPC   C31 6931   9.674   4.806   3.022
  139DPPC   C32 6932   9.247   4.233   4.852
  139DPPC   O33 6933   9.308   4.107   4.824
  139DPPC   C34 6934   9.225   3.999   4.827
  139DPPC   O35 6935   9.112   4.020   4.871
  139DPPC   C36 6936   9.266   3.863   4.772
  139DPPC   C37 6937   9.230   3.865   4.623
  139DPPC   C38 6938   9.278   3.742   4.544
  139DPPC   C39 6939   9.232   3.771   4.401
  139DPPC   C40 6940   9.235   3.660   4.296
  139DPPC   C41 6941   9.178   3.711   4.163
  139DPPC   C42 6942   9.145   3.585   4.083
  139DPPC   C43 6943   9.123   3.618   3.935
  139DPPC   C44 6944   9.006   3.712   3.908
  139DPPC   C45 6945   8.978   3.717   3.758
  139DPPC   C46 6946   9.061   3.810   3.669
  139DPPC   C47 6947   9.041   3.779   3.520
  139DPPC   C48 6948   9.111   3.876   3.425
  139DPPC   C49 6949   9.089   3.818   3.285
  139DPPC   C50 6950   9.162   3.900   3.178
  140DPPC    C1 6951   0.061   2.499   5.122
  140DPPC    C2 6952   0.194   2.625   5.291
  140DPPC    C3 6953   0.037   2.720   5.165
  140DPPC    N4 6954   0.062   2.593   5.235
  140DPPC    C5 6955  -0.027   2.571   5.350
  140DPPC    C6 6956  -0.170   2.518   5.332
  140DPPC    O7 6957  -0.244   2.611   5.252
  140DPPC    P8 6958  -0.399   2.579   5.227
  140DPPC    O9 6959  -0.445   2.707   5.168
  140DPPC   O10 6960  -0.461   2.523   5.350
  140DPPC   O11 6961  -0.385   2.471   5.109
  140DPPC   C12 6962  -0.344   2.522   4.982
  140DPPC   C13 6963  -0.351   2.408   4.879
  140DPPC   O14 6964  -0.252   2.403   4.775
  140DPPC   C15 6965  -0.127   2.353   4.789
  140DPPC   O16 6966  -0.073   2.310   4.892
  140DPPC   C17 6967  -0.064   2.314   4.655
  140DPPC   C18 6968  -0.012   2.438   4.582
  140DPPC   C19 6969   0.022   2.400   4.437
  140DPPC   C20 6970   0.154   2.462   4.390
  140DPPC   C21 6971   0.181   2.449   4.240
  140DPPC   C22 6972   0.315   2.514   4.205
  140DPPC   C23 6973   0.393   2.444   4.093
  140DPPC   C24 6974   0.313   2.443   3.963
  140DPPC   C25 6975   0.397   2.412   3.839
  140DPPC   C26 6976   0.334   2.380   3.703
  140DPPC   C27 6977   0.440   2.360   3.594
  140DPPC   C28 6978   0.382   2.317   3.459
  140DPPC   C29 6979   0.272   2.211   3.470
  140DPPC   C30 6980   0.254   2.144   3.333
  140DPPC   C31 6981   0.155   2.028   3.346
  140DPPC   C32 6982  -0.492   2.427   4.822
  140DPPC   O33 6983  -0.517   2.563   4.788
  140DPPC   C34 6984  -0.603   2.598   4.688
  140DPPC   O35 6985  -0.620   2.532   4.585
  140DPPC   C36 6986  -0.667   2.737   4.696
  140DPPC   C37 6987  -0.812   2.688   4.703
  140DPPC   C38 6988  -0.892   2.769   4.602
  140DPPC   C39 6989  -1.043   2.751   4.626
  140DPPC   C40 6990  -1.101   2.868   4.546
  140DPPC   C41 6991  -1.069   2.855   4.397
  140DPPC   C42 6992  -1.112   2.977   4.314
  140DPPC   C43 6993  -1.089   2.955   4.165
  140DPPC   C44 6994  -1.153   3.063   4.078
  140DPPC   C45 6995  -1.128   3.022   3.933
  140DPPC   C46 6996  -1.192   2.885   3.906
  140DPPC   C47 6997  -1.135   2.838   3.773
  140DPPC   C48 6998  -1.234   2.855   3.657
  140DPPC   C49 6999  -1.212   2.748   3.550
  140DPPC   C50 7000  -1.078   2.786   3.485
  141DPPC    C1 7001   5.746   1.809   6.014
  141DPPC    C2 7002   5.592   1.676   5.904
  141DPPC    C3 7003   5.513   1.879   5.971
  141DPPC    N4 7004   5.634   1.816   5.919
  141DPPC    C5 7005   5.663   1.868   5.784
  141DPPC    C6 7006   5.707   2.015   5.780
  141DPPC    O7 7007   5.594   2.103   5.782
  141DPPC    P8 7008   5.639   2.241   5.713
  141DPPC    O9 7009   5.767   2.272   5.780
  141DPPC   O10 7010   5.518   2.327   5.716
  141DPPC   O11 7011   5.657   2.197   5.559
  141DPPC   C12 7012   5.540   2.159   5.487
  141DPPC   C13 7013   5.564   2.150   5.336
  141DPPC   O14 7014   5.646   2.048   5.276
  141DPPC   C15 7015   5.570   1.950   5.221
  141DPPC   O16 7016   5.449   1.937   5.232
  141DPPC   C17 7017   5.655   1.836   5.164
  141DPPC   C18 7018   5.663   1.850   5.012
  141DPPC   C19 7019   5.734   1.732   4.946
  141DPPC   C20 7020   5.668   1.703   4.811
  141DPPC   C21 7021   5.517   1.686   4.834
  141DPPC   C22 7022   5.438   1.632   4.714
  141DPPC   C23 7023   5.447   1.727   4.595
  141DPPC   C24 7024   5.396   1.663   4.466
  141DPPC   C25 7025   5.454   1.524   4.441
  141DPPC   C26 7026   5.413   1.469   4.304
  141DPPC   C27 7027   5.506   1.529   4.198
  141DPPC   C28 7028   5.472   1.475   4.059
  141DPPC   C29 7029   5.331   1.524   4.025
  141DPPC   C30 7030   5.323   1.659   3.954
  141DPPC   C31 7031   5.181   1.715   3.942
  141DPPC   C32 7032   5.621   2.287   5.299
  141DPPC   O33 7033   5.526   2.394   5.304
  141DPPC   C34 7034   5.574   2.520   5.289
  141DPPC   O35 7035   5.695   2.531   5.307
  141DPPC   C36 7036   5.478   2.638   5.269
  141DPPC   C37 7037   5.444   2.670   5.123
  141DPPC   C38 7038   5.385   2.553   5.046
  141DPPC   C39 7039   5.342   2.607   4.909
  141DPPC   C40 7040   5.461   2.640   4.819
  141DPPC   C41 7041   5.415   2.687   4.682
  141DPPC   C42 7042   5.527   2.677   4.578
  141DPPC   C43 7043   5.482   2.714   4.437
  141DPPC   C44 7044   5.362   2.626   4.404
  141DPPC   C45 7045   5.308   2.667   4.267
  141DPPC   C46 7046   5.250   2.808   4.268
  141DPPC   C47 7047   5.212   2.854   4.127
  141DPPC   C48 7048   5.321   2.867   4.021
  141DPPC   C49 7049   5.259   2.906   3.886
  141DPPC   C50 7050   5.154   2.809   3.832
  142DPPC    C1 7051   1.459   6.069   4.715
  142DPPC    C2 7052   1.467   6.300   4.743
  142DPPC    C3 7053   1.514   6.211   4.533
  142DPPC    N4 7054   1.425   6.196   4.648
  142DPPC    C5 7055   1.286   6.183   4.603
  142DPPC    C6 7056   1.203   6.310   4.583
  142DPPC    O7 7057   1.240   6.392   4.472
  142DPPC    P8 7058   1.189   6.544   4.493
  142DPPC    O9 7059   1.277   6.629   4.410
  142DPPC   O10 7060   1.168   6.567   4.638
  142DPPC   O11 7061   1.047   6.534   4.417
  142DPPC   C12 7062   1.064   6.495   4.280
  142DPPC   C13 7063   0.937   6.521   4.198
  142DPPC   O14 7064   0.932   6.436   4.083
  142DPPC   C15 7065   0.815   6.426   4.015
  142DPPC   O16 7066   0.704   6.455   4.059
  142DPPC   C17 7067   0.829   6.348   3.884
  142DPPC   C18 7068   0.723   6.380   3.777
  142DPPC   C19 7069   0.768   6.293   3.659
  142DPPC   C20 7070   0.670   6.269   3.545
  142DPPC   C21 7071   0.541   6.212   3.606
  142DPPC   C22 7072   0.559   6.065   3.643
  142DPPC   C23 7073   0.429   6.024   3.712
  142DPPC   C24 7074   0.433   5.888   3.782
  142DPPC   C25 7075   0.300   5.813   3.790
  142DPPC   C26 7076   0.203   5.911   3.857
  142DPPC   C27 7077   0.066   5.845   3.878
  142DPPC   C28 7078  -0.040   5.932   3.944
  142DPPC   C29 7079  -0.173   5.857   3.961
  142DPPC   C30 7080  -0.178   5.722   4.032
  142DPPC   C31 7081  -0.305   5.640   4.010
  142DPPC   C32 7082   0.931   6.670   4.165
  142DPPC   O33 7083   1.041   6.735   4.100
  142DPPC   C34 7084   1.004   6.862   4.068
  142DPPC   O35 7085   0.918   6.926   4.127
  142DPPC   C36 7086   1.115   6.927   3.984
  142DPPC   C37 7087   1.093   7.077   3.970
  142DPPC   C38 7088   0.983   7.113   3.869
  142DPPC   C39 7089   0.978   7.257   3.819
  142DPPC   C40 7090   0.864   7.287   3.721
  142DPPC   C41 7091   0.868   7.194   3.600
  142DPPC   C42 7092   0.798   7.256   3.479
  142DPPC   C43 7093   0.654   7.271   3.529
  142DPPC   C44 7094   0.568   7.357   3.435
  142DPPC   C45 7095   0.634   7.495   3.437
  142DPPC   C46 7096   0.569   7.578   3.326
  142DPPC   C47 7097   0.629   7.718   3.319
  142DPPC   C48 7098   0.578   7.809   3.207
  142DPPC   C49 7099   0.641   7.760   3.077
  142DPPC   C50 7100   0.789   7.796   3.065
  143DPPC    C1 7101   0.209   0.063   5.003
  143DPPC    C2 7102   0.029   0.207   5.087
  143DPPC    C3 7103   0.247   0.224   5.175
  143DPPC    N4 7104   0.171   0.196   5.053
  143DPPC    C5 7105   0.202   0.293   4.947
  143DPPC    C6 7106   0.163   0.441   4.952
  143DPPC    O7 7107   0.275   0.515   5.001
  143DPPC    P8 7108   0.227   0.667   5.025
  143DPPC    O9 7109   0.350   0.742   5.057
  143DPPC   O10 7110   0.117   0.652   5.123
  143DPPC   O11 7111   0.197   0.693   4.869
  143DPPC   C12 7112   0.291   0.784   4.810
  143DPPC   C13 7113   0.274   0.831   4.666
  143DPPC   O14 7114   0.185   0.943   4.658
  143DPPC   C15 7115   0.239   1.067   4.664
  143DPPC   O16 7116   0.345   1.083   4.723
  143DPPC   C17 7117   0.164   1.183   4.596
  143DPPC   C18 7118   0.060   1.132   4.496
  143DPPC   C19 7119  -0.078   1.164   4.554
  143DPPC   C20 7120  -0.194   1.129   4.461
  143DPPC   C21 7121  -0.242   1.254   4.387
  143DPPC   C22 7122  -0.372   1.227   4.311
  143DPPC   C23 7123  -0.340   1.106   4.224
  143DPPC   C24 7124  -0.472   1.066   4.157
  143DPPC   C25 7125  -0.518   1.171   4.056
  143DPPC   C26 7126  -0.655   1.147   3.994
  143DPPC   C27 7127  -0.684   1.261   3.896
  143DPPC   C28 7128  -0.597   1.278   3.771
  143DPPC   C29 7129  -0.626   1.154   3.686
  143DPPC   C30 7130  -0.538   1.161   3.561
  143DPPC   C31 7131  -0.592   1.286   3.491
  143DPPC   C32 7132   0.253   0.706   4.580
  143DPPC   O33 7133   0.203   0.728   4.447
  143DPPC   C34 7134   0.169   0.615   4.381
  143DPPC   O35 7135   0.118   0.526   4.449
  143DPPC   C36 7136   0.125   0.636   4.236
  143DPPC   C37 7137   0.057   0.510   4.182
  143DPPC   C38 7138  -0.013   0.522   4.046
  143DPPC   C39 7139  -0.129   0.621   4.063
  143DPPC   C40 7140  -0.210   0.643   3.935
  143DPPC   C41 7141  -0.118   0.708   3.831
  143DPPC   C42 7142  -0.145   0.632   3.701
  143DPPC   C43 7143  -0.064   0.686   3.583
  143DPPC   C44 7144  -0.076   0.835   3.554
  143DPPC   C45 7145   0.015   0.855   3.432
  143DPPC   C46 7146   0.050   0.999   3.395
  143DPPC   C47 7147   0.139   0.992   3.271
  143DPPC   C48 7148   0.185   1.126   3.214
  143DPPC   C49 7149   0.086   1.236   3.176
  143DPPC   C50 7150   0.155   1.358   3.113
  144DPPC    C1 7151   8.607   0.290   5.455
  144DPPC    C2 7152   8.810   0.406   5.506
  144DPPC    C3 7153   8.805   0.175   5.444
  144DPPC    N4 7154   8.747   0.307   5.416
  144DPPC    C5 7155   8.759   0.342   5.274
  144DPPC    C6 7156   8.763   0.491   5.237
  144DPPC    O7 7157   8.652   0.575   5.268
  144DPPC    P8 7158   8.697   0.726   5.235
  144DPPC    O9 7159   8.831   0.723   5.297
  144DPPC   O10 7160   8.586   0.801   5.298
  144DPPC   O11 7161   8.691   0.721   5.074
  144DPPC   C12 7162   8.556   0.738   5.032
  144DPPC   C13 7163   8.540   0.696   4.886
  144DPPC   O14 7164   8.407   0.716   4.834
  144DPPC   C15 7165   8.387   0.839   4.779
  144DPPC   O16 7166   8.433   0.946   4.818
  144DPPC   C17 7167   8.263   0.854   4.690
  144DPPC   C18 7168   8.284   0.900   4.545
  144DPPC   C19 7169   8.380   0.802   4.478
  144DPPC   C20 7170   8.415   0.841   4.334
  144DPPC   C21 7171   8.287   0.823   4.253
  144DPPC   C22 7172   8.324   0.832   4.104
  144DPPC   C23 7173   8.416   0.953   4.087
  144DPPC   C24 7174   8.440   0.996   3.942
  144DPPC   C25 7175   8.322   1.041   3.856
  144DPPC   C26 7176   8.377   1.103   3.728
  144DPPC   C27 7177   8.449   1.006   3.633
  144DPPC   C28 7178   8.520   1.096   3.532
  144DPPC   C29 7179   8.577   1.023   3.410
  144DPPC   C30 7180   8.457   0.948   3.350
  144DPPC   C31 7181   8.502   0.896   3.213
  144DPPC   C32 7182   8.603   0.557   4.875
  144DPPC   O33 7183   8.598   0.502   4.743
  144DPPC   C34 7184   8.712   0.536   4.678
  144DPPC   O35 7185   8.807   0.580   4.743
  144DPPC   C36 7186   8.735   0.474   4.540
  144DPPC   C37 7187   8.606   0.458   4.460
  144DPPC   C38 7188   8.621   0.336   4.370
  144DPPC   C39 7189   8.499   0.343   4.278
  144DPPC   C40 7190   8.500   0.220   4.187
  144DPPC   C41 7191   8.419   0.234   4.057
  144DPPC   C42 7192   8.428   0.103   3.978
  144DPPC   C43 7193   8.311   0.103   3.879
  144DPPC   C44 7194   8.343   0.010   3.762
  144DPPC   C45 7195   8.207  -0.019   3.697
  144DPPC   C46 7196   8.144   0.111   3.644
  144DPPC   C47 7197   8.007   0.106   3.576
  144DPPC   C48 7198   7.985   0.230   3.488
  144DPPC   C49 7199   8.017   0.357   3.567
  144DPPC   C50 7200   7.991   0.486   3.489
  145DPPC    C1 7201   7.939   5.627   5.344
  145DPPC    C2 7202   8.188   5.643   5.375
  145DPPC    C3 7203   8.106   5.444   5.310
  145DPPC    N4 7204   8.074   5.587   5.301
  145DPPC    C5 7205   8.078   5.615   5.157
  145DPPC    C6 7206   8.100   5.763   5.120
  145DPPC    O7 7207   8.116   5.782   4.980
  145DPPC    P8 7208   8.120   5.940   4.948
  145DPPC    O9 7209   8.183   5.945   4.815
  145DPPC   O10 7210   8.183   6.004   5.066
  145DPPC   O11 7211   7.961   5.924   4.936
  145DPPC   C12 7212   7.935   5.892   4.799
  145DPPC   C13 7213   7.792   5.846   4.767
  145DPPC   O14 7214   7.792   5.781   4.639
  145DPPC   C15 7215   7.695   5.690   4.610
  145DPPC   O16 7216   7.615   5.662   4.699
  145DPPC   C17 7217   7.669   5.663   4.462
  145DPPC   C18 7218   7.560   5.766   4.430
  145DPPC   C19 7219   7.519   5.734   4.286
  145DPPC   C20 7220   7.380   5.672   4.294
  145DPPC   C21 7221   7.342   5.613   4.158
  145DPPC   C22 7222   7.312   5.736   4.072
  145DPPC   C23 7223   7.201   5.827   4.125
  145DPPC   C24 7224   7.211   5.965   4.060
  145DPPC   C25 7225   7.078   6.039   4.045
  145DPPC   C26 7226   7.119   6.178   3.996
  145DPPC   C27 7227   7.166   6.187   3.851
  145DPPC   C28 7228   7.050   6.159   3.755
  145DPPC   C29 7229   7.099   6.133   3.612
  145DPPC   C30 7230   7.181   6.004   3.610
  145DPPC   C31 7231   7.228   5.978   3.467
  145DPPC   C32 7232   7.690   5.955   4.798
  145DPPC   O33 7233   7.696   6.069   4.712
  145DPPC   C34 7234   7.586   6.147   4.729
  145DPPC   O35 7235   7.512   6.136   4.827
  145DPPC   C36 7236   7.542   6.219   4.602
  145DPPC   C37 7237   7.447   6.134   4.516
  145DPPC   C38 7238   7.391   6.211   4.396
  145DPPC   C39 7239   7.486   6.252   4.284
  145DPPC   C40 7240   7.415   6.331   4.173
  145DPPC   C41 7241   7.499   6.386   4.057
  145DPPC   C42 7242   7.549   6.258   3.989
  145DPPC   C43 7243   7.608   6.282   3.850
  145DPPC   C44 7244   7.498   6.342   3.763
  145DPPC   C45 7245   7.549   6.365   3.621
  145DPPC   C46 7246   7.434   6.436   3.549
  145DPPC   C47 7247   7.490   6.472   3.411
  145DPPC   C48 7248   7.519   6.346   3.328
  145DPPC   C49 7249   7.576   6.364   3.187
  145DPPC   C50 7250   7.712   6.431   3.205
  146DPPC    C1 7251   6.806   4.170   5.621
  146DPPC    C2 7252   7.007   4.184   5.753
  146DPPC    C3 7253   6.817   4.125   5.859
  146DPPC    N4 7254   6.884   4.108   5.729
  146DPPC    C5 7255   6.927   3.969   5.706
  146DPPC    C6 7256   6.819   3.875   5.651
  146DPPC    O7 7257   6.862   3.740   5.629
  146DPPC    P8 7258   6.739   3.644   5.592
  146DPPC    O9 7259   6.614   3.691   5.657
  146DPPC   O10 7260   6.784   3.503   5.594
  146DPPC   O11 7261   6.721   3.682   5.436
  146DPPC   C12 7262   6.807   3.601   5.356
  146DPPC   C13 7263   6.829   3.630   5.207
  146DPPC   O14 7264   6.933   3.723   5.174
  146DPPC   C15 7265   7.065   3.695   5.195
  146DPPC   O16 7266   7.102   3.625   5.290
  146DPPC   C17 7267   7.156   3.802   5.136
  146DPPC   C18 7268   7.090   3.887   5.028
  146DPPC   C19 7269   7.114   3.821   4.892
  146DPPC   C20 7270   7.267   3.820   4.884
  146DPPC   C21 7271   7.305   3.771   4.745
  146DPPC   C22 7272   7.246   3.875   4.649
  146DPPC   C23 7273   7.301   3.848   4.509
  146DPPC   C24 7274   7.453   3.868   4.496
  146DPPC   C25 7275   7.481   3.869   4.346
  146DPPC   C26 7276   7.473   3.726   4.293
  146DPPC   C27 7277   7.513   3.741   4.146
  146DPPC   C28 7278   7.445   3.866   4.090
  146DPPC   C29 7279   7.493   3.905   3.950
  146DPPC   C30 7280   7.425   4.037   3.912
  146DPPC   C31 7281   7.409   4.041   3.760
  146DPPC   C32 7282   6.702   3.683   5.139
  146DPPC   O33 7283   6.606   3.584   5.100
  146DPPC   C34 7284   6.503   3.635   5.028
  146DPPC   O35 7285   6.505   3.745   4.975
  146DPPC   C36 7286   6.381   3.542   5.028
  146DPPC   C37 7287   6.314   3.541   4.890
  146DPPC   C38 7288   6.224   3.424   4.852
  146DPPC   C39 7289   6.132   3.481   4.743
  146DPPC   C40 7290   6.200   3.512   4.609
  146DPPC   C41 7291   6.108   3.575   4.504
  146DPPC   C42 7292   6.176   3.594   4.368
  146DPPC   C43 7293   6.078   3.671   4.279
  146DPPC   C44 7294   6.109   3.631   4.134
  146DPPC   C45 7295   5.996   3.689   4.049
  146DPPC   C46 7296   6.009   3.621   3.913
  146DPPC   C47 7297   5.906   3.689   3.821
  146DPPC   C48 7298   5.897   3.636   3.678
  146DPPC   C49 7299   5.779   3.696   3.602
  146DPPC   C50 7300   5.647   3.655   3.668
  147DPPC    C1 7301   8.162   3.117   5.937
  147DPPC    C2 7302   8.016   2.928   5.941
  147DPPC    C3 7303   7.926   3.150   5.974
  147DPPC    N4 7304   8.027   3.070   5.904
  147DPPC    C5 7305   8.005   3.066   5.758
  147DPPC    C6 7306   8.014   3.198   5.682
  147DPPC    O7 7307   7.916   3.301   5.697
  147DPPC    P8 7308   7.993   3.441   5.678
  147DPPC    O9 7309   8.112   3.414   5.762
  147DPPC   O10 7310   7.906   3.559   5.694
  147DPPC   O11 7311   8.027   3.413   5.523
  147DPPC   C12 7312   7.905   3.457   5.462
  147DPPC   C13 7313   7.948   3.447   5.315
  147DPPC   O14 7314   7.855   3.514   5.229
  147DPPC   C15 7315   7.900   3.635   5.185
  147DPPC   O16 7316   7.996   3.685   5.243
  147DPPC   C17 7317   7.802   3.700   5.087
  147DPPC   C18 7318   7.828   3.658   4.942
  147DPPC   C19 7319   7.692   3.670   4.873
  147DPPC   C20 7320   7.713   3.633   4.726
  147DPPC   C21 7321   7.811   3.736   4.667
  147DPPC   C22 7322   7.832   3.703   4.519
  147DPPC   C23 7323   7.914   3.813   4.452
  147DPPC   C24 7324   7.917   3.767   4.306
  147DPPC   C25 7325   7.943   3.890   4.219
  147DPPC   C26 7326   7.955   3.856   4.071
  147DPPC   C27 7327   7.955   3.983   3.986
  147DPPC   C28 7328   7.834   4.071   4.018
  147DPPC   C29 7329   7.842   4.206   3.947
  147DPPC   C30 7330   7.704   4.274   3.955
  147DPPC   C31 7331   7.702   4.395   3.863
  147DPPC   C32 7332   7.980   3.299   5.293
  147DPPC   O33 7333   7.874   3.214   5.337
  147DPPC   C34 7334   7.897   3.081   5.349
  147DPPC   O35 7335   8.001   3.022   5.379
  147DPPC   C36 7336   7.770   2.998   5.377
  147DPPC   C37 7337   7.776   2.858   5.316
  147DPPC   C38 7338   7.777   2.854   5.164
  147DPPC   C39 7339   7.752   2.712   5.113
  147DPPC   C40 7340   7.760   2.719   4.961
  147DPPC   C41 7341   7.657   2.806   4.888
  147DPPC   C42 7342   7.684   2.793   4.737
  147DPPC   C43 7343   7.570   2.872   4.673
  147DPPC   C44 7344   7.580   2.852   4.522
  147DPPC   C45 7345   7.463   2.929   4.461
  147DPPC   C46 7346   7.457   2.929   4.308
  147DPPC   C47 7347   7.326   3.000   4.274
  147DPPC   C48 7348   7.277   3.005   4.129
  147DPPC   C49 7349   7.128   3.033   4.107
  147DPPC   C50 7350   7.087   3.036   3.960
  148DPPC    C1 7351   2.542   6.544   5.223
  148DPPC    C2 7352   2.766   6.568   5.287
  148DPPC    C3 7353   2.698   6.596   5.056
  148DPPC    N4 7354   2.663   6.623   5.197
  148DPPC    C5 7355   2.655   6.766   5.227
  148DPPC    C6 7356   2.737   6.872   5.152
  148DPPC    O7 7357   2.877   6.846   5.144
  148DPPC    P8 7358   2.964   6.980   5.168
  148DPPC    O9 7359   3.105   6.939   5.156
  148DPPC   O10 7360   2.926   7.046   5.295
  148DPPC   O11 7361   2.903   7.056   5.040
  148DPPC   C12 7362   2.962   7.030   4.913
  148DPPC   C13 7363   2.870   7.074   4.799
  148DPPC   O14 7364   2.904   7.006   4.678
  148DPPC   C15 7365   2.882   6.874   4.653
  148DPPC   O16 7366   2.815   6.809   4.734
  148DPPC   C17 7367   2.939   6.810   4.527
  148DPPC   C18 7368   2.844   6.721   4.446
  148DPPC   C19 7369   2.907   6.646   4.328
  148DPPC   C20 7370   2.995   6.755   4.266
  148DPPC   C21 7371   3.091   6.675   4.177
  148DPPC   C22 7372   3.149   6.766   4.069
  148DPPC   C23 7373   3.054   6.849   3.983
  148DPPC   C24 7374   3.133   6.921   3.874
  148DPPC   C25 7375   3.192   6.828   3.768
  148DPPC   C26 7376   3.236   6.907   3.645
  148DPPC   C27 7377   3.348   6.825   3.580
  148DPPC   C28 7378   3.418   6.901   3.467
  148DPPC   C29 7379   3.507   6.807   3.386
  148DPPC   C30 7380   3.560   6.878   3.261
  148DPPC   C31 7381   3.684   6.794   3.226
  148DPPC   C32 7382   2.886   7.226   4.802
  148DPPC   O33 7383   3.018   7.278   4.822
  148DPPC   C34 7384   3.018   7.414   4.836
  148DPPC   O35 7385   2.910   7.472   4.834
  148DPPC   C36 7386   3.146   7.497   4.825
  148DPPC   C37 7387   3.186   7.557   4.690
  148DPPC   C38 7388   3.310   7.645   4.703
  148DPPC   C39 7389   3.383   7.667   4.570
  148DPPC   C40 7390   3.432   7.530   4.522
  148DPPC   C41 7391   3.491   7.547   4.382
  148DPPC   C42 7392   3.599   7.655   4.374
  148DPPC   C43 7393   3.647   7.668   4.230
  148DPPC   C44 7394   3.762   7.577   4.186
  148DPPC   C45 7395   3.808   7.607   4.043
  148DPPC   C46 7396   3.870   7.482   3.980
  148DPPC   C47 7397   3.896   7.519   3.833
  148DPPC   C48 7398   3.977   7.415   3.755
  148DPPC   C49 7399   3.989   7.455   3.608
  148DPPC   C50 7400   4.082   7.358   3.534
  149DPPC    C1 7401   5.105   0.550   5.051
  149DPPC    C2 7402   5.167   0.605   4.826
  149DPPC    C3 7403   5.004   0.723   4.952
  149DPPC    N4 7404   5.137   0.660   4.959
  149DPPC    C5 7405   5.232   0.760   5.008
  149DPPC    C6 7406   5.320   0.739   5.131
  149DPPC    O7 7407   5.414   0.841   5.169
  149DPPC    P8 7408   5.529   0.786   5.267
  149DPPC    O9 7409   5.488   0.654   5.319
  149DPPC   O10 7410   5.599   0.889   5.348
  149DPPC   O11 7411   5.619   0.724   5.149
  149DPPC   C12 7412   5.710   0.823   5.098
  149DPPC   C13 7413   5.735   0.808   4.948
  149DPPC   O14 7414   5.853   0.879   4.906
  149DPPC   C15 7415   5.962   0.828   4.844
  149DPPC   O16 7416   5.990   0.709   4.857
  149DPPC   C17 7417   6.060   0.934   4.794
  149DPPC   C18 7418   6.044   0.942   4.642
  149DPPC   C19 7419   6.155   1.021   4.573
  149DPPC   C20 7420   6.150   1.002   4.421
  149DPPC   C21 7421   6.235   1.096   4.336
  149DPPC   C22 7422   6.246   1.028   4.199
  149DPPC   C23 7423   6.325   1.125   4.112
  149DPPC   C24 7424   6.355   1.073   3.971
  149DPPC   C25 7425   6.459   1.177   3.928
  149DPPC   C26 7426   6.447   1.239   3.789
  149DPPC   C27 7427   6.568   1.332   3.781
  149DPPC   C28 7428   6.564   1.402   3.645
  149DPPC   C29 7429   6.663   1.520   3.643
  149DPPC   C30 7430   6.646   1.608   3.520
  149DPPC   C31 7431   6.517   1.691   3.515
  149DPPC   C32 7432   5.600   0.832   4.880
  149DPPC   O33 7433   5.599   0.821   4.738
  149DPPC   C34 7434   5.479   0.867   4.694
  149DPPC   O35 7435   5.375   0.870   4.759
  149DPPC   C36 7436   5.466   0.875   4.541
  149DPPC   C37 7437   5.479   1.018   4.489
  149DPPC   C38 7438   5.478   1.035   4.337
  149DPPC   C39 7439   5.598   0.997   4.249
  149DPPC   C40 7440   5.596   1.042   4.103
  149DPPC   C41 7441   5.715   0.988   4.024
  149DPPC   C42 7442   5.827   1.085   3.986
  149DPPC   C43 7443   5.751   1.199   3.919
  149DPPC   C44 7444   5.824   1.247   3.794
  149DPPC   C45 7445   5.748   1.367   3.737
  149DPPC   C46 7446   5.793   1.424   3.603
  149DPPC   C47 7447   5.710   1.544   3.556
  149DPPC   C48 7448   5.560   1.521   3.536
  149DPPC   C49 7449   5.486   1.654   3.520
  149DPPC   C50 7450   5.333   1.649   3.514
  150DPPC    C1 7451   4.592   0.955   5.658
  150DPPC    C2 7452   4.725   0.781   5.586
  150DPPC    C3 7453   4.634   0.941   5.427
  150DPPC    N4 7454   4.695   0.923   5.559
  150DPPC    C5 7455   4.804   1.020   5.575
  150DPPC    C6 7456   4.932   1.005   5.492
  150DPPC    O7 7457   4.924   1.036   5.353
  150DPPC    P8 7458   5.057   1.010   5.265
  150DPPC    O9 7459   5.084   0.871   5.309
  150DPPC   O10 7460   5.158   1.115   5.290
  150DPPC   O11 7461   4.991   1.007   5.119
  150DPPC   C12 7462   4.946   1.141   5.100
  150DPPC   C13 7463   4.817   1.174   5.024
  150DPPC   O14 7464   4.691   1.137   5.083
  150DPPC   C15 7465   4.606   1.239   5.110
  150DPPC   O16 7466   4.634   1.355   5.081
  150DPPC   C17 7467   4.464   1.204   5.155
  150DPPC   C18 7468   4.364   1.300   5.092
  150DPPC   C19 7469   4.284   1.216   4.992
  150DPPC   C20 7470   4.176   1.303   4.928
  150DPPC   C21 7471   4.080   1.232   4.833
  150DPPC   C22 7472   3.986   1.336   4.772
  150DPPC   C23 7473   3.854   1.259   4.755
  150DPPC   C24 7474   3.744   1.339   4.685
  150DPPC   C25 7475   3.631   1.248   4.636
  150DPPC   C26 7476   3.533   1.332   4.554
  150DPPC   C27 7477   3.415   1.238   4.525
  150DPPC   C28 7478   3.298   1.334   4.505
  150DPPC   C29 7479   3.177   1.269   4.438
  150DPPC   C30 7480   3.224   1.233   4.297
  150DPPC   C31 7481   3.111   1.151   4.233
  150DPPC   C32 7482   4.833   1.113   4.884
  150DPPC   O33 7483   4.951   1.150   4.812
  150DPPC   C34 7484   5.002   1.071   4.714
  150DPPC   O35 7485   4.964   0.954   4.710
  150DPPC   C36 7486   5.102   1.134   4.617
  150DPPC   C37 7487   5.034   1.169   4.484
  150DPPC   C38 7488   5.120   1.256   4.392
  150DPPC   C39 7489   5.051   1.288   4.259
  150DPPC   C40 7490   5.036   1.167   4.167
  150DPPC   C41 7491   4.955   1.216   4.047
  150DPPC   C42 7492   4.912   1.107   3.949
  150DPPC   C43 7493   4.780   1.139   3.877
  150DPPC   C44 7494   4.667   1.168   3.976
  150DPPC   C45 7495   4.533   1.176   3.903
  150DPPC   C46 7496   4.436   1.256   3.991
  150DPPC   C47 7497   4.295   1.225   3.942
  150DPPC   C48 7498   4.298   1.258   3.793
  150DPPC   C49 7499   4.156   1.262   3.736
  150DPPC   C50 7500   4.156   1.308   3.590
  151DPPC    C1 7501   0.888   0.961   4.936
  151DPPC    C2 7502   1.016   0.802   4.820
  151DPPC    C3 7503   0.908   0.744   5.027
  151DPPC    N4 7504   0.895   0.819   4.901
  151DPPC    C5 7505   0.784   0.788   4.809
  151DPPC    C6 7506   0.697   0.668   4.848
  151DPPC    O7 7507   0.604   0.626   4.748
  151DPPC    P8 7508   0.574   0.469   4.763
  151DPPC    O9 7509   0.438   0.423   4.726
  151DPPC   O10 7510   0.646   0.421   4.883
  151DPPC   O11 7511   0.656   0.446   4.626
  151DPPC   C12 7512   0.562   0.462   4.519
  151DPPC   C13 7513   0.615   0.490   4.378
  151DPPC   O14 7514   0.653   0.376   4.299
  151DPPC   C15 7515   0.769   0.309   4.319
  151DPPC   O16 7516   0.846   0.333   4.413
  151DPPC   C17 7517   0.790   0.194   4.221
  151DPPC   C18 7518   0.827   0.238   4.079
  151DPPC   C19 7519   0.854   0.116   3.989
  151DPPC   C20 7520   0.936   0.153   3.866
  151DPPC   C21 7521   0.859   0.243   3.769
  151DPPC   C22 7522   0.750   0.169   3.692
  151DPPC   C23 7523   0.810   0.072   3.590
  151DPPC   C24 7524   0.704  -0.008   3.514
  151DPPC   C25 7525   0.611   0.084   3.435
  151DPPC   C26 7526   0.513   0.016   3.339
  151DPPC   C27 7527   0.450   0.117   3.243
  151DPPC   C28 7528   0.373   0.224   3.321
  151DPPC   C29 7529   0.282   0.323   3.248
  151DPPC   C30 7530   0.242   0.444   3.332
  151DPPC   C31 7531   0.170   0.558   3.259
  151DPPC   C32 7532   0.716   0.605   4.389
  151DPPC   O33 7533   0.647   0.719   4.443
  151DPPC   C34 7534   0.717   0.833   4.466
  151DPPC   O35 7535   0.839   0.827   4.455
  151DPPC   C36 7536   0.641   0.965   4.477
  151DPPC   C37 7537   0.570   0.990   4.344
  151DPPC   C38 7538   0.421   1.023   4.343
  151DPPC   C39 7539   0.360   1.003   4.204
  151DPPC   C40 7540   0.209   1.018   4.190
  151DPPC   C41 7541   0.170   1.005   4.042
  151DPPC   C42 7542   0.023   1.046   4.033
  151DPPC   C43 7543  -0.028   1.054   3.889
  151DPPC   C44 7544   0.068   1.157   3.829
  151DPPC   C45 7545   0.042   1.308   3.841
  151DPPC   C46 7546   0.124   1.394   3.745
  151DPPC   C47 7547   0.074   1.386   3.601
  151DPPC   C48 7548  -0.058   1.462   3.582
  151DPPC   C49 7549  -0.096   1.477   3.434
  151DPPC   C50 7550  -0.242   1.519   3.417
  152DPPC    C1 7551   4.763   1.869   5.807
  152DPPC    C2 7552   4.975   1.882   5.685
  152DPPC    C3 7553   4.909   1.678   5.765
  152DPPC    N4 7554   4.854   1.803   5.712
  152DPPC    C5 7555   4.787   1.783   5.582
  152DPPC    C6 7556   4.677   1.682   5.551
  152DPPC    O7 7557   4.546   1.719   5.506
  152DPPC    P8 7558   4.442   1.596   5.496
  152DPPC    O9 7559   4.344   1.593   5.606
  152DPPC   O10 7560   4.513   1.477   5.444
  152DPPC   O11 7561   4.357   1.681   5.389
  152DPPC   C12 7562   4.431   1.692   5.267
  152DPPC   C13 7563   4.354   1.770   5.161
  152DPPC   O14 7564   4.359   1.707   5.032
  152DPPC   C15 7565   4.232   1.700   4.983
  152DPPC   O16 7566   4.138   1.677   5.058
  152DPPC   C17 7567   4.223   1.676   4.832
  152DPPC   C18 7568   4.258   1.804   4.756
  152DPPC   C19 7569   4.406   1.841   4.735
  152DPPC   C20 7570   4.406   1.972   4.657
  152DPPC   C21 7571   4.545   2.036   4.650
  152DPPC   C22 7572   4.586   2.068   4.506
  152DPPC   C23 7573   4.720   2.141   4.513
  152DPPC   C24 7574   4.767   2.169   4.370
  152DPPC   C25 7575   4.689   2.293   4.327
  152DPPC   C26 7576   4.719   2.318   4.179
  152DPPC   C27 7577   4.691   2.194   4.093
  152DPPC   C28 7578   4.811   2.160   4.004
  152DPPC   C29 7579   4.791   2.035   3.918
  152DPPC   C30 7580   4.880   2.023   3.794
  152DPPC   C31 7581   4.799   2.107   3.695
  152DPPC   C32 7582   4.375   1.922   5.166
  152DPPC   O33 7583   4.515   1.948   5.154
  152DPPC   C34 7584   4.557   2.072   5.116
  152DPPC   O35 7585   4.481   2.165   5.093
  152DPPC   C36 7586   4.700   2.077   5.062
  152DPPC   C37 7587   4.725   1.952   4.978
  152DPPC   C38 7588   4.863   1.954   4.910
  152DPPC   C39 7589   4.868   1.832   4.817
  152DPPC   C40 7590   4.993   1.861   4.735
  152DPPC   C41 7591   5.018   1.756   4.626
  152DPPC   C42 7592   4.905   1.773   4.523
  152DPPC   C43 7593   4.929   1.693   4.395
  152DPPC   C44 7594   4.838   1.738   4.281
  152DPPC   C45 7595   4.850   1.643   4.163
  152DPPC   C46 7596   4.779   1.698   4.038
  152DPPC   C47 7597   4.799   1.610   3.915
  152DPPC   C48 7598   4.694   1.643   3.809
  152DPPC   C49 7599   4.710   1.548   3.691
  152DPPC   C50 7600   4.591   1.550   3.596
  153DPPC    C1 7601   1.929   1.346   5.360
  153DPPC    C2 7602   2.090   1.214   5.470
  153DPPC    C3 7603   1.858   1.156   5.457
  153DPPC    N4 7604   1.973   1.207   5.381
  153DPPC    C5 7605   1.977   1.140   5.250
  153DPPC    C6 7606   2.017   0.992   5.254
  153DPPC    O7 7607   2.154   0.971   5.289
  153DPPC    P8 7608   2.161   0.823   5.353
  153DPPC    O9 7609   2.023   0.788   5.394
  153DPPC   O10 7610   2.281   0.815   5.438
  153DPPC   O11 7611   2.193   0.750   5.213
  153DPPC   C12 7612   2.320   0.790   5.161
  153DPPC   C13 7613   2.389   0.690   5.067
  153DPPC   O14 7614   2.509   0.738   5.006
  153DPPC   C15 7615   2.595   0.651   4.946
  153DPPC   O16 7616   2.592   0.532   4.976
  153DPPC   C17 7617   2.688   0.698   4.833
  153DPPC   C18 7618   2.638   0.645   4.699
  153DPPC   C19 7619   2.729   0.679   4.580
  153DPPC   C20 7620   2.667   0.625   4.451
  153DPPC   C21 7621   2.795   0.611   4.367
  153DPPC   C22 7622   2.780   0.525   4.241
  153DPPC   C23 7623   2.900   0.531   4.147
  153DPPC   C24 7624   2.861   0.449   4.024
  153DPPC   C25 7625   2.928   0.488   3.893
  153DPPC   C26 7626   2.886   0.418   3.763
  153DPPC   C27 7627   2.954   0.483   3.643
  153DPPC   C28 7628   2.916   0.421   3.508
  153DPPC   C29 7629   2.932   0.495   3.374
  153DPPC   C30 7630   2.848   0.428   3.265
  153DPPC   C31 7631   2.914   0.295   3.226
  153DPPC   C32 7632   2.279   0.658   4.966
  153DPPC   O33 7633   2.309   0.565   4.861
  153DPPC   C34 7634   2.206   0.511   4.790
  153DPPC   O35 7635   2.092   0.542   4.824
  153DPPC   C36 7636   2.231   0.442   4.656
  153DPPC   C37 7637   2.140   0.468   4.536
  153DPPC   C38 7638   2.198   0.406   4.409
  153DPPC   C39 7639   2.093   0.404   4.298
  153DPPC   C40 7640   2.104   0.520   4.199
  153DPPC   C41 7641   1.991   0.512   4.097
  153DPPC   C42 7642   1.994   0.632   4.003
  153DPPC   C43 7643   1.849   0.636   3.953
  153DPPC   C44 7644   1.746   0.668   4.061
  153DPPC   C45 7645   1.610   0.648   3.995
  153DPPC   C46 7646   1.507   0.725   4.078
  153DPPC   C47 7647   1.542   0.874   4.069
  153DPPC   C48 7648   1.454   0.969   4.150
  153DPPC   C49 7649   1.486   1.107   4.092
  153DPPC   C50 7650   1.391   1.205   4.161
  154DPPC    C1 7651   8.999   7.657   5.258
  154DPPC    C2 7652   9.087   7.870   5.224
  154DPPC    C3 7653   8.945   7.773   5.059
  154DPPC    N4 7654   8.966   7.790   5.204
  154DPPC    C5 7655   8.848   7.838   5.277
  154DPPC    C6 7656   8.792   7.980   5.265
  154DPPC    O7 7657   8.713   7.995   5.146
  154DPPC    P8 7658   8.689   8.150   5.111
  154DPPC    O9 7659   8.666   8.225   5.237
  154DPPC   O10 7660   8.600   8.173   4.994
  154DPPC   O11 7661   8.840   8.174   5.061
  154DPPC   C12 7662   8.845   8.227   4.928
  154DPPC   C13 7663   8.981   8.285   4.886
  154DPPC   O14 7664   8.976   8.364   4.766
  154DPPC   C15 7665   9.082   8.437   4.722
  154DPPC   O16 7666   9.184   8.462   4.787
  154DPPC   C17 7667   9.055   8.498   4.585
  154DPPC   C18 7668   9.143   8.615   4.541
  154DPPC   C19 7669   9.090   8.690   4.419
  154DPPC   C20 7670   9.192   8.788   4.361
  154DPPC   C21 7671   9.198   8.759   4.211
  154DPPC   C22 7672   9.055   8.796   4.169
  154DPPC   C23 7673   9.044   8.789   4.016
  154DPPC   C24 7674   8.903   8.804   3.958
  154DPPC   C25 7675   8.904   8.744   3.818
  154DPPC   C26 7676   8.767   8.776   3.757
  154DPPC   C27 7677   8.730   8.701   3.628
  154DPPC   C28 7678   8.819   8.748   3.513
  154DPPC   C29 7679   8.787   8.673   3.384
  154DPPC   C30 7680   8.804   8.525   3.418
  154DPPC   C31 7681   8.785   8.435   3.296
  154DPPC   C32 7682   9.058   8.155   4.862
  154DPPC   O33 7683   8.997   8.060   4.774
  154DPPC   C34 7684   9.060   7.950   4.726
  154DPPC   O35 7685   9.176   7.917   4.751
  154DPPC   C36 7686   8.979   7.865   4.627
  154DPPC   C37 7687   8.905   7.948   4.522
  154DPPC   C38 7688   8.836   7.861   4.417
  154DPPC   C39 7689   8.748   7.932   4.314
  154DPPC   C40 7690   8.677   7.832   4.223
  154DPPC   C41 7691   8.550   7.886   4.157
  154DPPC   C42 7692   8.497   7.821   4.029
  154DPPC   C43 7693   8.604   7.794   3.923
  154DPPC   C44 7694   8.560   7.721   3.796
  154DPPC   C45 7695   8.691   7.696   3.720
  154DPPC   C46 7696   8.692   7.556   3.659
  154DPPC   C47 7697   8.822   7.540   3.579
  154DPPC   C48 7698   8.825   7.633   3.457
  154DPPC   C49 7699   8.970   7.635   3.407
  154DPPC   C50 7700   8.998   7.719   3.282
  155DPPC    C1 7701   3.591   4.177   6.264
  155DPPC    C2 7702   3.551   3.938   6.257
  155DPPC    C3 7703   3.393   4.090   6.342
  155DPPC    N4 7704   3.492   4.071   6.236
  155DPPC    C5 7705   3.454   4.105   6.098
  155DPPC    C6 7706   3.341   4.029   6.030
  155DPPC    O7 7707   3.312   4.092   5.905
  155DPPC    P8 7708   3.176   4.041   5.836
  155DPPC    O9 7709   3.122   4.158   5.764
  155DPPC   O10 7710   3.107   3.954   5.935
  155DPPC   O11 7711   3.255   3.943   5.736
  155DPPC   C12 7712   3.348   4.005   5.647
  155DPPC   C13 7713   3.396   3.911   5.536
  155DPPC   O14 7714   3.481   3.986   5.448
  155DPPC   C15 7715   3.596   3.932   5.398
  155DPPC   O16 7716   3.671   3.875   5.476
  155DPPC   C17 7717   3.642   3.990   5.264
  155DPPC   C18 7718   3.555   3.957   5.143
  155DPPC   C19 7719   3.622   4.017   5.019
  155DPPC   C20 7720   3.553   3.979   4.888
  155DPPC   C21 7721   3.616   4.071   4.783
  155DPPC   C22 7722   3.510   4.080   4.673
  155DPPC   C23 7723   3.577   4.160   4.562
  155DPPC   C24 7724   3.502   4.161   4.429
  155DPPC   C25 7725   3.605   4.210   4.327
  155DPPC   C26 7726   3.572   4.197   4.178
  155DPPC   C27 7727   3.701   4.191   4.096
  155DPPC   C28 7728   3.675   4.167   3.947
  155DPPC   C29 7729   3.633   4.275   3.847
  155DPPC   C30 7730   3.621   4.213   3.707
  155DPPC   C31 7731   3.604   4.334   3.615
  155DPPC   C32 7732   3.275   3.851   5.465
  155DPPC   O33 7733   3.299   3.747   5.370
  155DPPC   C34 7734   3.190   3.693   5.308
  155DPPC   O35 7735   3.078   3.715   5.353
  155DPPC   C36 7736   3.221   3.590   5.199
  155DPPC   C37 7737   3.271   3.646   5.066
  155DPPC   C38 7738   3.278   3.531   4.965
  155DPPC   C39 7739   3.292   3.586   4.823
  155DPPC   C40 7740   3.301   3.471   4.722
  155DPPC   C41 7741   3.274   3.522   4.580
  155DPPC   C42 7742   3.296   3.396   4.495
  155DPPC   C43 7743   3.326   3.445   4.353
  155DPPC   C44 7744   3.346   3.340   4.244
  155DPPC   C45 7745   3.397   3.390   4.109
  155DPPC   C46 7746   3.422   3.274   4.013
  155DPPC   C47 7747   3.473   3.314   3.874
  155DPPC   C48 7748   3.518   3.186   3.804
  155DPPC   C49 7749   3.547   3.222   3.658
  155DPPC   C50 7750   3.430   3.252   3.565
  156DPPC    C1 7751   7.282   2.694   5.879
  156DPPC    C2 7752   7.061   2.685   5.976
  156DPPC    C3 7753   7.126   2.862   5.833
  156DPPC    N4 7754   7.139   2.718   5.856
  156DPPC    C5 7755   7.106   2.644   5.732
  156DPPC    C6 7756   7.125   2.493   5.729
  156DPPC    O7 7757   7.046   2.443   5.620
  156DPPC    P8 7758   7.099   2.295   5.587
  156DPPC    O9 7759   7.012   2.232   5.484
  156DPPC   O10 7760   7.145   2.232   5.713
  156DPPC   O11 7761   7.226   2.336   5.498
  156DPPC   C12 7762   7.185   2.431   5.399
  156DPPC   C13 7763   7.294   2.471   5.299
  156DPPC   O14 7764   7.249   2.557   5.193
  156DPPC   C15 7765   7.243   2.689   5.223
  156DPPC   O16 7766   7.261   2.713   5.343
  156DPPC   C17 7767   7.205   2.789   5.114
  156DPPC   C18 7768   7.302   2.803   4.996
  156DPPC   C19 7769   7.218   2.886   4.897
  156DPPC   C20 7770   7.092   2.809   4.857
  156DPPC   C21 7771   6.988   2.885   4.775
  156DPPC   C22 7772   6.893   2.781   4.715
  156DPPC   C23 7773   6.791   2.853   4.627
  156DPPC   C24 7774   6.875   2.928   4.524
  156DPPC   C25 7775   6.807   3.008   4.413
  156DPPC   C26 7776   6.710   3.113   4.466
  156DPPC   C27 7777   6.723   3.255   4.410
  156DPPC   C28 7778   6.610   3.279   4.309
  156DPPC   C29 7779   6.640   3.404   4.226
  156DPPC   C30 7780   6.529   3.426   4.123
  156DPPC   C31 7781   6.552   3.551   4.036
  156DPPC   C32 7782   7.384   2.350   5.272
  156DPPC   O33 7783   7.323   2.229   5.228
  156DPPC   C34 7784   7.409   2.126   5.208
  156DPPC   O35 7785   7.521   2.126   5.260
  156DPPC   C36 7786   7.363   2.006   5.125
  156DPPC   C37 7787   7.482   1.953   5.045
  156DPPC   C38 7788   7.444   1.831   4.960
  156DPPC   C39 7789   7.355   1.871   4.842
  156DPPC   C40 7790   7.304   1.753   4.759
  156DPPC   C41 7791   7.209   1.798   4.649
  156DPPC   C42 7792   7.074   1.842   4.707
  156DPPC   C43 7793   6.983   1.911   4.606
  156DPPC   C44 7794   6.833   1.926   4.634
  156DPPC   C45 7795   6.778   2.012   4.520
  156DPPC   C46 7796   6.626   1.997   4.522
  156DPPC   C47 7797   6.564   2.044   4.390
  156DPPC   C48 7798   6.589   1.932   4.289
  156DPPC   C49 7799   6.542   1.971   4.148
  156DPPC   C50 7800   6.579   2.112   4.103
  157DPPC    C1 7801   0.175   1.022   5.130
  157DPPC    C2 7802   0.090   1.196   5.246
  157DPPC    C3 7803   0.330   1.165   5.240
  157DPPC    N4 7804   0.205   1.162   5.162
  157DPPC    C5 7805   0.222   1.233   5.034
  157DPPC    C6 7806   0.258   1.381   5.041
  157DPPC    O7 7807   0.167   1.474   5.101
  157DPPC    P8 7808   0.254   1.584   5.180
  157DPPC    O9 7809   0.333   1.501   5.273
  157DPPC   O10 7810   0.150   1.686   5.212
  157DPPC   O11 7811   0.350   1.646   5.067
  157DPPC   C12 7812   0.282   1.755   5.006
  157DPPC   C13 7813   0.358   1.813   4.887
  157DPPC   O14 7814   0.303   1.930   4.824
  157DPPC   C15 7815   0.299   2.047   4.894
  157DPPC   O16 7816   0.331   2.058   5.012
  157DPPC   C17 7817   0.251   2.167   4.812
  157DPPC   C18 7818   0.273   2.158   4.661
  157DPPC   C19 7819   0.415   2.198   4.617
  157DPPC   C20 7820   0.420   2.184   4.465
  157DPPC   C21 7821   0.427   2.036   4.427
  157DPPC   C22 7822   0.452   2.024   4.276
  157DPPC   C23 7823   0.453   1.880   4.223
  157DPPC   C24 7824   0.453   1.891   4.070
  157DPPC   C25 7825   0.347   1.990   4.020
  157DPPC   C26 7826   0.335   1.981   3.868
  157DPPC   C27 7827   0.336   1.836   3.820
  157DPPC   C28 7828   0.335   1.842   3.667
  157DPPC   C29 7829   0.317   1.697   3.620
  157DPPC   C30 7830   0.302   1.682   3.468
  157DPPC   C31 7831   0.307   1.538   3.419
  157DPPC   C32 7832   0.366   1.695   4.790
  157DPPC   O33 7833   0.234   1.650   4.757
  157DPPC   C34 7834   0.221   1.544   4.672
  157DPPC   O35 7835   0.311   1.462   4.657
  157DPPC   C36 7836   0.080   1.522   4.617
  157DPPC   C37 7837  -0.002   1.648   4.590
  157DPPC   C38 7838   0.069   1.750   4.500
  157DPPC   C39 7839  -0.022   1.874   4.496
  157DPPC   C40 7840   0.031   1.987   4.408
  157DPPC   C41 7841  -0.081   2.076   4.353
  157DPPC   C42 7842  -0.180   1.996   4.269
  157DPPC   C43 7843  -0.286   2.078   4.195
  157DPPC   C44 7844  -0.385   1.999   4.109
  157DPPC   C45 7845  -0.467   2.099   4.028
  157DPPC   C46 7846  -0.557   2.025   3.929
  157DPPC   C47 7847  -0.642   2.132   3.860
  157DPPC   C48 7848  -0.567   2.227   3.765
  157DPPC   C49 7849  -0.663   2.330   3.705
  157DPPC   C50 7850  -0.757   2.253   3.612
  158DPPC    C1 7851   2.774   0.843   5.249
  158DPPC    C2 7852   2.863   0.618   5.302
  158DPPC    C3 7853   2.938   0.724   5.123
  158DPPC    N4 7854   2.891   0.755   5.259
  158DPPC    C5 7855   2.987   0.813   5.355
  158DPPC    C6 7856   3.086   0.925   5.321
  158DPPC    O7 7857   3.038   1.058   5.338
  158DPPC    P8 7858   3.158   1.142   5.406
  158DPPC    O9 7859   3.220   1.053   5.507
  158DPPC   O10 7860   3.129   1.285   5.431
  158DPPC   O11 7861   3.263   1.135   5.284
  158DPPC   C12 7862   3.220   1.226   5.183
  158DPPC   C13 7863   3.331   1.263   5.084
  158DPPC   O14 7864   3.317   1.392   5.024
  158DPPC   C15 7865   3.431   1.460   4.998
  158DPPC   O16 7866   3.545   1.416   5.014
  158DPPC   C17 7867   3.417   1.545   4.872
  158DPPC   C18 7868   3.357   1.683   4.903
  158DPPC   C19 7869   3.349   1.777   4.782
  158DPPC   C20 7870   3.278   1.713   4.663
  158DPPC   C21 7871   3.284   1.802   4.539
  158DPPC   C22 7872   3.182   1.740   4.442
  158DPPC   C23 7873   3.206   1.776   4.296
  158DPPC   C24 7874   3.107   1.708   4.201
  158DPPC   C25 7875   3.135   1.747   4.056
  158DPPC   C26 7876   3.043   1.670   3.961
  158DPPC   C27 7877   3.093   1.698   3.819
  158DPPC   C28 7878   3.008   1.632   3.711
  158DPPC   C29 7879   3.052   1.666   3.568
  158DPPC   C30 7880   3.197   1.631   3.534
  158DPPC   C31 7881   3.240   1.711   3.411
  158DPPC   C32 7882   3.354   1.145   4.989
  158DPPC   O33 7883   3.238   1.092   4.923
  158DPPC   C34 7884   3.272   0.994   4.834
  158DPPC   O35 7885   3.384   0.947   4.820
  158DPPC   C36 7886   3.148   0.966   4.748
  158DPPC   C37 7887   3.088   0.830   4.783
  158DPPC   C38 7888   3.155   0.708   4.720
  158DPPC   C39 7889   3.067   0.584   4.707
  158DPPC   C40 7890   3.138   0.499   4.601
  158DPPC   C41 7891   3.161   0.578   4.472
  158DPPC   C42 7892   3.235   0.482   4.379
  158DPPC   C43 7893   3.273   0.551   4.248
  158DPPC   C44 7894   3.378   0.658   4.279
  158DPPC   C45 7895   3.462   0.701   4.159
  158DPPC   C46 7896   3.544   0.821   4.208
  158DPPC   C47 7897   3.636   0.876   4.099
  158DPPC   C48 7898   3.720   0.995   4.145
  158DPPC   C49 7899   3.820   1.040   4.038
  158DPPC   C50 7900   3.915   0.924   4.008
  159DPPC    C1 7901   3.423   8.287   4.653
  159DPPC    C2 7902   3.341   8.061   4.639
  159DPPC    C3 7903   3.502   8.116   4.798
  159DPPC    N4 7904   3.382   8.169   4.731
  159DPPC    C5 7905   3.264   8.193   4.815
  159DPPC    C6 7906   3.232   8.323   4.889
  159DPPC    O7 7907   3.169   8.424   4.809
  159DPPC    P8 7908   3.175   8.565   4.886
  159DPPC    O9 7909   3.174   8.528   5.029
  159DPPC   O10 7910   3.070   8.647   4.822
  159DPPC   O11 7911   3.321   8.603   4.828
  159DPPC   C12 7912   3.328   8.716   4.740
  159DPPC   C13 7913   3.469   8.748   4.688
  159DPPC   O14 7914   3.496   8.885   4.657
  159DPPC   C15 7915   3.509   8.986   4.748
  159DPPC   O16 7916   3.489   8.961   4.867
  159DPPC   C17 7917   3.529   9.127   4.694
  159DPPC   C18 7918   3.652   9.146   4.605
  159DPPC   C19 7919   3.673   9.290   4.560
  159DPPC   C20 7920   3.819   9.320   4.527
  159DPPC   C21 7921   3.838   9.465   4.483
  159DPPC   C22 7922   3.989   9.493   4.487
  159DPPC   C23 7923   4.068   9.476   4.356
  159DPPC   C24 7924   4.216   9.501   4.382
  159DPPC   C25 7925   4.295   9.502   4.251
  159DPPC   C26 7926   4.292   9.362   4.189
  159DPPC   C27 7927   4.342   9.369   4.045
  159DPPC   C28 7928   4.308   9.232   3.986
  159DPPC   C29 7929   4.390   9.193   3.863
  159DPPC   C30 7930   4.377   9.294   3.748
  159DPPC   C31 7931   4.243   9.308   3.676
  159DPPC   C32 7932   3.495   8.651   4.572
  159DPPC   O33 7933   3.405   8.663   4.462
  159DPPC   C34 7934   3.440   8.583   4.358
  159DPPC   O35 7935   3.536   8.506   4.359
  159DPPC   C36 7936   3.347   8.604   4.238
  159DPPC   C37 7937   3.428   8.655   4.119
  159DPPC   C38 7938   3.330   8.736   4.034
  159DPPC   C39 7939   3.403   8.791   3.911
  159DPPC   C40 7940   3.312   8.798   3.788
  159DPPC   C41 7941   3.394   8.861   3.675
  159DPPC   C42 7942   3.496   8.767   3.612
  159DPPC   C43 7943   3.556   8.847   3.496
  159DPPC   C44 7944   3.658   8.762   3.421
  159DPPC   C45 7945   3.705   8.826   3.290
  159DPPC   C46 7946   3.589   8.876   3.205
  159DPPC   C47 7947   3.654   8.987   3.122
  159DPPC   C48 7948   3.787   8.932   3.069
  159DPPC   C49 7949   3.855   9.053   3.006
  159DPPC   C50 7950   3.775   9.113   2.890
  160DPPC    C1 7951   0.918   3.520   5.532
  160DPPC    C2 7952   0.823   3.422   5.339
  160DPPC    C3 7953   0.921   3.625   5.313
  160DPPC    N4 7954   0.938   3.499   5.388
  160DPPC    C5 7955   1.062   3.424   5.361
  160DPPC    C6 7956   1.197   3.481   5.405
  160DPPC    O7 7957   1.312   3.412   5.357
  160DPPC    P8 7958   1.451   3.489   5.384
  160DPPC    O9 7959   1.554   3.389   5.423
  160DPPC   O10 7960   1.408   3.603   5.468
  160DPPC   O11 7961   1.464   3.534   5.230
  160DPPC   C12 7962   1.506   3.419   5.156
  160DPPC   C13 7963   1.527   3.435   5.005
  160DPPC   O14 7964   1.659   3.398   4.964
  160DPPC   C15 7965   1.674   3.278   4.901
  160DPPC   O16 7966   1.611   3.185   4.951
  160DPPC   C17 7967   1.804   3.266   4.821
  160DPPC   C18 7968   1.776   3.202   4.685
  160DPPC   C19 7969   1.910   3.204   4.612
  160DPPC   C20 7970   1.916   3.111   4.491
  160DPPC   C21 7971   1.925   2.963   4.528
  160DPPC   C22 7972   1.916   2.878   4.400
  160DPPC   C23 7973   1.787   2.907   4.322
  160DPPC   C24 7974   1.749   2.785   4.238
  160DPPC   C25 7975   1.618   2.805   4.163
  160DPPC   C26 7976   1.582   2.703   4.054
  160DPPC   C27 7977   1.677   2.700   3.934
  160DPPC   C28 7978   1.617   2.611   3.825
  160DPPC   C29 7979   1.718   2.625   3.711
  160DPPC   C30 7980   1.658   2.544   3.596
  160DPPC   C31 7981   1.738   2.521   3.467
  160DPPC   C32 7982   1.482   3.580   4.981
  160DPPC   O33 7983   1.462   3.622   4.846
  160DPPC   C34 7984   1.479   3.757   4.845
  160DPPC   O35 7985   1.514   3.816   4.947
  160DPPC   C36 7986   1.446   3.828   4.713
  160DPPC   C37 7987   1.435   3.721   4.605
  160DPPC   C38 7988   1.413   3.777   4.464
  160DPPC   C39 7989   1.359   3.664   4.376
  160DPPC   C40 7990   1.349   3.696   4.227
  160DPPC   C41 7991   1.264   3.591   4.155
  160DPPC   C42 7992   1.220   3.638   4.016
  160DPPC   C43 7993   1.134   3.535   3.944
  160DPPC   C44 7994   1.056   3.595   3.826
  160DPPC   C45 7995   1.106   3.550   3.688
  160DPPC   C46 7996   1.028   3.599   3.566
  160DPPC   C47 7997   1.088   3.530   3.444
  160DPPC   C48 7998   1.022   3.587   3.319
  160DPPC   C49 7999   1.072   3.529   3.186
  160DPPC   C50 8000   1.224   3.543   3.173
  161DPPC    C1 8001   4.567   5.710   5.534
  161DPPC    C2 8002   4.344   5.651   5.561
  161DPPC    C3 8003   4.438   5.846   5.683
  161DPPC    N4 8004   4.434   5.767   5.559
  161DPPC    C5 8005   4.420   5.846   5.436
  161DPPC    C6 8006   4.314   5.957   5.438
  161DPPC    O7 8007   4.321   6.026   5.313
  161DPPC    P8 8008   4.179   6.096   5.283
  161DPPC    O9 8009   4.185   6.243   5.286
  161DPPC   O10 8010   4.074   6.012   5.345
  161DPPC   O11 8011   4.196   6.068   5.126
  161DPPC   C12 8012   4.289   6.155   5.060
  161DPPC   C13 8013   4.323   6.104   4.920
  161DPPC   O14 8014   4.236   6.134   4.810
  161DPPC   C15 8015   4.205   6.262   4.778
  161DPPC   O16 8016   4.227   6.360   4.850
  161DPPC   C17 8017   4.119   6.292   4.655
  161DPPC   C18 8018   4.096   6.442   4.631
  161DPPC   C19 8019   4.024   6.459   4.497
  161DPPC   C20 8020   3.895   6.378   4.504
  161DPPC   C21 8021   3.840   6.379   4.361
  161DPPC   C22 8022   3.951   6.325   4.271
  161DPPC   C23 8023   3.904   6.261   4.141
  161DPPC   C24 8024   4.008   6.171   4.074
  161DPPC   C25 8025   3.961   6.135   3.933
  161DPPC   C26 8026   4.067   6.054   3.857
  161DPPC   C27 8027   3.998   5.999   3.732
  161DPPC   C28 8028   3.988   6.090   3.609
  161DPPC   C29 8029   3.958   6.009   3.483
  161DPPC   C30 8030   3.831   5.929   3.512
  161DPPC   C31 8031   3.707   6.015   3.485
  161DPPC   C32 8032   4.357   5.957   4.947
  161DPPC   O33 8033   4.449   5.887   4.863
  161DPPC   C34 8034   4.456   5.753   4.886
  161DPPC   O35 8035   4.391   5.701   4.977
  161DPPC   C36 8036   4.529   5.667   4.782
  161DPPC   C37 8037   4.486   5.709   4.641
  161DPPC   C38 8038   4.594   5.663   4.543
  161DPPC   C39 8039   4.565   5.732   4.410
  161DPPC   C40 8040   4.650   5.679   4.295
  161DPPC   C41 8041   4.642   5.757   4.163
  161DPPC   C42 8042   4.752   5.699   4.073
  161DPPC   C43 8043   4.750   5.760   3.933
  161DPPC   C44 8044   4.865   5.706   3.847
  161DPPC   C45 8045   4.993   5.783   3.877
  161DPPC   C46 8046   5.097   5.739   3.775
  161DPPC   C47 8047   5.232   5.810   3.793
  161DPPC   C48 8048   5.333   5.744   3.700
  161DPPC   C49 8049   5.475   5.794   3.730
  161DPPC   C50 8050   5.471   5.946   3.727
  162DPPC    C1 8051   6.098   6.155   4.957
  162DPPC    C2 8052   6.331   6.117   4.986
  162DPPC    C3 8053   6.210   6.213   5.167
  162DPPC    N4 8054   6.202   6.119   5.055
  162DPPC    C5 8055   6.191   5.985   5.115
  162DPPC    C6 8056   6.140   5.871   5.027
  162DPPC    O7 8057   6.216   5.840   4.910
  162DPPC    P8 8058   6.144   5.722   4.826
  162DPPC    O9 8059   6.030   5.810   4.791
  162DPPC   O10 8060   6.142   5.608   4.920
  162DPPC   O11 8061   6.263   5.717   4.717
  162DPPC   C12 8062   6.236   5.829   4.632
  162DPPC   C13 8063   6.348   5.873   4.538
  162DPPC   O14 8064   6.325   5.826   4.405
  162DPPC   C15 8065   6.235   5.899   4.333
  162DPPC   O16 8066   6.154   5.973   4.387
  162DPPC   C17 8067   6.248   5.901   4.181
  162DPPC   C18 8068   6.366   5.814   4.136
  162DPPC   C19 8069   6.395   5.835   3.987
  162DPPC   C20 8070   6.276   5.810   3.894
  162DPPC   C21 8071   6.315   5.820   3.747
  162DPPC   C22 8072   6.342   5.966   3.709
  162DPPC   C23 8073   6.387   5.967   3.563
  162DPPC   C24 8074   6.392   6.108   3.504
  162DPPC   C25 8075   6.475   6.118   3.376
  162DPPC   C26 8076   6.610   6.048   3.398
  162DPPC   C27 8077   6.679   6.072   3.263
  162DPPC   C28 8078   6.606   5.997   3.152
  162DPPC   C29 8079   6.578   5.847   3.169
  162DPPC   C30 8080   6.439   5.819   3.112
  162DPPC   C31 8081   6.434   5.824   2.959
  162DPPC   C32 8082   6.475   5.819   4.604
  162DPPC   O33 8083   6.595   5.873   4.548
  162DPPC   C34 8084   6.711   5.803   4.568
  162DPPC   O35 8085   6.705   5.709   4.647
  162DPPC   C36 8086   6.834   5.857   4.496
  162DPPC   C37 8087   6.874   5.773   4.374
  162DPPC   C38 8088   6.788   5.803   4.251
  162DPPC   C39 8089   6.853   5.741   4.127
  162DPPC   C40 8090   6.772   5.756   3.998
  162DPPC   C41 8091   6.852   5.705   3.878
  162DPPC   C42 8092   6.763   5.710   3.753
  162DPPC   C43 8093   6.833   5.657   3.628
  162DPPC   C44 8094   6.767   5.673   3.491
  162DPPC   C45 8095   6.856   5.626   3.375
  162DPPC   C46 8096   6.967   5.725   3.337
  162DPPC   C47 8097   7.051   5.667   3.224
  162DPPC   C48 8098   7.167   5.762   3.195
  162DPPC   C49 8099   7.119   5.853   3.081
  162DPPC   C50 8100   7.234   5.952   3.061
  163DPPC    C1 8101   6.075   5.117   1.114
  163DPPC    C2 8102   6.058   5.187   1.342
  163DPPC    C3 8103   5.904   5.029   1.241
  163DPPC    N4 8104   6.044   5.072   1.251
  163DPPC    C5 8105   6.139   4.969   1.293
  163DPPC    C6 8106   6.121   4.884   1.419
  163DPPC    O7 8107   6.235   4.804   1.452
  163DPPC    P8 8108   6.186   4.687   1.552
  163DPPC    O9 8109   6.299   4.603   1.598
  163DPPC   O10 8110   6.068   4.617   1.497
  163DPPC   O11 8111   6.122   4.777   1.669
  163DPPC   C12 8112   6.222   4.803   1.768
  163DPPC   C13 8113   6.174   4.920   1.853
  163DPPC   O14 8114   6.280   4.975   1.933
  163DPPC   C15 8115   6.379   5.046   1.873
  163DPPC   O16 8116   6.390   5.044   1.751
  163DPPC   C17 8117   6.497   5.095   1.958
  163DPPC   C18 8118   6.458   5.227   2.024
  163DPPC   C19 8119   6.577   5.276   2.107
  163DPPC   C20 8120   6.547   5.406   2.183
  163DPPC   C21 8121   6.652   5.411   2.294
  163DPPC   C22 8122   6.648   5.550   2.358
  163DPPC   C23 8123   6.511   5.600   2.403
  163DPPC   C24 8124   6.538   5.731   2.476
  163DPPC   C25 8125   6.586   5.841   2.381
  163DPPC   C26 8126   6.603   5.970   2.463
  163DPPC   C27 8127   6.694   5.941   2.582
  163DPPC   C28 8128   6.697   6.060   2.678
  163DPPC   C29 8129   6.806   6.052   2.785
  163DPPC   C30 8130   6.846   6.189   2.841
  163DPPC   C31 8131   6.951   6.189   2.952
  163DPPC   C32 8132   6.055   4.865   1.931
  163DPPC   O33 8133   5.980   4.978   1.977
  163DPPC   C34 8134   5.870   4.936   2.045
  163DPPC   O35 8135   5.848   4.815   2.044
  163DPPC   C36 8136   5.788   5.034   2.129
  163DPPC   C37 8137   5.811   5.034   2.280
  163DPPC   C38 8138   5.719   5.138   2.343
  163DPPC   C39 8139   5.745   5.147   2.494
  163DPPC   C40 8140   5.637   5.234   2.558
  163DPPC   C41 8141   5.636   5.212   2.709
  163DPPC   C42 8142   5.536   5.311   2.769
  163DPPC   C43 8143   5.534   5.318   2.921
  163DPPC   C44 8144   5.489   5.453   2.980
  163DPPC   C45 8145   5.524   5.459   3.128
  163DPPC   C46 8146   5.498   5.604   3.169
  163DPPC   C47 8147   5.523   5.632   3.317
  163DPPC   C48 8148   5.529   5.783   3.339
  163DPPC   C49 8149   5.626   5.836   3.233
  163DPPC   C50 8150   5.642   5.986   3.208
  164DPPC    C1 8151   2.486   2.236   2.100
  164DPPC    C2 8152   2.679   2.232   2.242
  164DPPC    C3 8153   2.591   2.029   2.169
  164DPPC    N4 8154   2.614   2.168   2.127
  164DPPC    C5 8155   2.698   2.162   2.007
  164DPPC    C6 8156   2.738   2.276   1.913
  164DPPC    O7 8157   2.828   2.362   1.982
  164DPPC    P8 8158   2.859   2.480   1.876
  164DPPC    O9 8159   2.723   2.514   1.829
  164DPPC   O10 8160   2.963   2.411   1.797
  164DPPC   O11 8161   2.929   2.583   1.978
  164DPPC   C12 8162   2.842   2.603   2.090
  164DPPC   C13 8163   2.925   2.670   2.200
  164DPPC   O14 8164   2.860   2.695   2.325
  164DPPC   C15 8165   2.865   2.589   2.410
  164DPPC   O16 8166   2.903   2.475   2.382
  164DPPC   C17 8167   2.791   2.596   2.544
  164DPPC   C18 8168   2.848   2.506   2.654
  164DPPC   C19 8169   2.773   2.514   2.787
  164DPPC   C20 8170   2.651   2.422   2.785
  164DPPC   C21 8171   2.553   2.460   2.896
  164DPPC   C22 8172   2.507   2.606   2.894
  164DPPC   C23 8173   2.366   2.601   2.951
  164DPPC   C24 8174   2.400   2.592   3.099
  164DPPC   C25 8175   2.274   2.605   3.186
  164DPPC   C26 8176   2.294   2.596   3.338
  164DPPC   C27 8177   2.164   2.600   3.418
  164DPPC   C28 8178   2.173   2.579   3.569
  164DPPC   C29 8179   2.263   2.683   3.635
  164DPPC   C30 8180   2.195   2.819   3.623
  164DPPC   C31 8181   2.281   2.934   3.676
  164DPPC   C32 8182   2.989   2.790   2.130
  164DPPC   O33 8183   2.897   2.895   2.098
  164DPPC   C34 8184   2.946   2.998   2.024
  164DPPC   O35 8185   3.064   2.999   1.989
  164DPPC   C36 8186   2.863   3.126   2.017
  164DPPC   C37 8187   2.866   3.190   2.156
  164DPPC   C38 8188   2.731   3.260   2.170
  164DPPC   C39 8189   2.715   3.349   2.294
  164DPPC   C40 8190   2.695   3.244   2.404
  164DPPC   C41 8191   2.670   3.318   2.535
  164DPPC   C42 8192   2.692   3.221   2.651
  164DPPC   C43 8193   2.667   3.285   2.787
  164DPPC   C44 8194   2.689   3.178   2.895
  164DPPC   C45 8195   2.685   3.238   3.036
  164DPPC   C46 8196   2.731   3.128   3.131
  164DPPC   C47 8197   2.762   3.193   3.266
  164DPPC   C48 8198   2.793   3.093   3.377
  164DPPC   C49 8199   2.685   3.002   3.435
  164DPPC   C50 8200   2.738   2.966   3.574
  165DPPC    C1 8201   0.053   3.368   1.110
  165DPPC    C2 8202   0.234   3.490   1.235
  165DPPC    C3 8203   0.020   3.577   1.212
  165DPPC    N4 8204   0.093   3.450   1.225
  165DPPC    C5 8205   0.044   3.375   1.342
  165DPPC    C6 8206   0.107   3.238   1.368
  165DPPC    O7 8207   0.028   3.128   1.321
  165DPPC    P8 8208   0.112   2.993   1.297
  165DPPC    O9 8209   0.216   3.049   1.207
  165DPPC   O10 8210   0.009   2.891   1.265
  165DPPC   O11 8211   0.164   2.978   1.448
  165DPPC   C12 8212   0.052   2.935   1.527
  165DPPC   C13 8213   0.055   2.987   1.671
  165DPPC   O14 8214   0.051   3.129   1.692
  165DPPC   C15 8215  -0.070   3.184   1.722
  165DPPC   O16 8216  -0.177   3.129   1.697
  165DPPC   C17 8217  -0.063   3.334   1.750
  165DPPC   C18 8218   0.008   3.371   1.880
  165DPPC   C19 8219  -0.074   3.340   2.006
  165DPPC   C20 8220  -0.016   3.388   2.139
  165DPPC   C21 8221  -0.117   3.379   2.253
  165DPPC   C22 8222  -0.063   3.384   2.396
  165DPPC   C23 8223  -0.179   3.366   2.494
  165DPPC   C24 8224  -0.102   3.367   2.626
  165DPPC   C25 8225  -0.191   3.305   2.733
  165DPPC   C26 8226  -0.141   3.373   2.861
  165DPPC   C27 8227  -0.203   3.293   2.976
  165DPPC   C28 8228  -0.356   3.284   2.966
  165DPPC   C29 8229  -0.419   3.228   3.094
  165DPPC   C30 8230  -0.483   3.336   3.181
  165DPPC   C31 8231  -0.541   3.265   3.304
  165DPPC   C32 8232   0.184   2.928   1.730
  165DPPC   O33 8233   0.180   2.875   1.863
  165DPPC   C34 8234   0.136   2.748   1.879
  165DPPC   O35 8235   0.154   2.668   1.787
  165DPPC   C36 8236   0.145   2.703   2.025
  165DPPC   C37 8237   0.092   2.562   2.050
  165DPPC   C38 8238   0.133   2.539   2.196
  165DPPC   C39 8239   0.005   2.500   2.271
  165DPPC   C40 8240   0.023   2.513   2.422
  165DPPC   C41 8241  -0.100   2.472   2.503
  165DPPC   C42 8242  -0.083   2.503   2.652
  165DPPC   C43 8243  -0.201   2.473   2.744
  165DPPC   C44 8244  -0.189   2.567   2.864
  165DPPC   C45 8245  -0.302   2.529   2.960
  165DPPC   C46 8246  -0.293   2.618   3.084
  165DPPC   C47 8247  -0.399   2.566   3.180
  165DPPC   C48 8248  -0.377   2.424   3.233
  165DPPC   C49 8249  -0.483   2.363   3.325
  165DPPC   C50 8250  -0.428   2.235   3.388
  166DPPC    C1 8251   2.216   3.422   1.114
  166DPPC    C2 8252   2.439   3.448   1.213
  166DPPC    C3 8253   2.261   3.350   1.336
  166DPPC    N4 8254   2.318   3.364   1.201
  166DPPC    C5 8255   2.374   3.236   1.153
  166DPPC    C6 8256   2.314   3.100   1.187
  166DPPC    O7 8257   2.186   3.094   1.123
  166DPPC    P8 8258   2.106   2.960   1.161
  166DPPC    O9 8259   2.198   2.845   1.143
  166DPPC   O10 8260   1.974   2.962   1.095
  166DPPC   O11 8261   2.076   3.003   1.314
  166DPPC   C12 8262   1.982   2.906   1.361
  166DPPC   C13 8263   1.922   2.938   1.498
  166DPPC   O14 8264   1.805   2.862   1.532
  166DPPC   C15 8265   1.814   2.732   1.569
  166DPPC   O16 8266   1.920   2.670   1.581
  166DPPC   C17 8267   1.686   2.681   1.636
  166DPPC   C18 8268   1.716   2.644   1.781
  166DPPC   C19 8269   1.599   2.570   1.845
  166DPPC   C20 8270   1.613   2.589   1.996
  166DPPC   C21 8271   1.542   2.486   2.084
  166DPPC   C22 8272   1.571   2.511   2.232
  166DPPC   C23 8273   1.545   2.654   2.282
  166DPPC   C24 8274   1.543   2.655   2.435
  166DPPC   C25 8275   1.589   2.794   2.479
  166DPPC   C26 8276   1.609   2.799   2.631
  166DPPC   C27 8277   1.478   2.754   2.696
  166DPPC   C28 8278   1.500   2.746   2.847
  166DPPC   C29 8279   1.384   2.661   2.897
  166DPPC   C30 8280   1.367   2.663   3.049
  166DPPC   C31 8281   1.255   2.562   3.077
  166DPPC   C32 8282   1.910   3.091   1.494
  166DPPC   O33 8283   1.876   3.160   1.614
  166DPPC   C34 8284   1.884   3.296   1.605
  166DPPC   O35 8285   1.954   3.355   1.523
  166DPPC   C36 8286   1.807   3.380   1.707
  166DPPC   C37 8287   1.900   3.414   1.824
  166DPPC   C38 8288   1.840   3.504   1.931
  166DPPC   C39 8289   1.948   3.510   2.040
  166DPPC   C40 8290   1.887   3.608   2.141
  166DPPC   C41 8291   1.971   3.606   2.269
  166DPPC   C42 8292   1.870   3.590   2.383
  166DPPC   C43 8293   1.927   3.595   2.525
  166DPPC   C44 8294   1.819   3.548   2.623
  166DPPC   C45 8295   1.787   3.658   2.725
  166DPPC   C46 8296   1.761   3.795   2.663
  166DPPC   C47 8297   1.741   3.896   2.776
  166DPPC   C48 8298   1.862   3.918   2.868
  166DPPC   C49 8299   1.829   4.018   2.980
  166DPPC   C50 8300   1.947   4.029   3.076
  167DPPC    C1 8301   2.185   2.318   1.249
  167DPPC    C2 8302   2.361   2.176   1.327
  167DPPC    C3 8303   2.337   2.400   1.401
  167DPPC    N4 8304   2.262   2.278   1.367
  167DPPC    C5 8305   2.179   2.235   1.481
  167DPPC    C6 8306   2.077   2.122   1.468
  167DPPC    O7 8307   2.146   1.999   1.489
  167DPPC    P8 8308   2.039   1.885   1.451
  167DPPC    O9 8309   2.124   1.767   1.425
  167DPPC   O10 8310   1.959   1.951   1.345
  167DPPC   O11 8311   1.977   1.914   1.597
  167DPPC   C12 8312   2.049   1.864   1.710
  167DPPC   C13 8313   1.977   1.899   1.840
  167DPPC   O14 8314   1.862   1.819   1.869
  167DPPC   C15 8315   1.882   1.691   1.911
  167DPPC   O16 8316   1.977   1.625   1.871
  167DPPC   C17 8317   1.779   1.643   2.013
  167DPPC   C18 8318   1.833   1.660   2.155
  167DPPC   C19 8319   1.750   1.605   2.272
  167DPPC   C20 8320   1.801   1.646   2.410
  167DPPC   C21 8321   1.949   1.613   2.429
  167DPPC   C22 8322   2.006   1.699   2.542
  167DPPC   C23 8323   2.144   1.631   2.539
  167DPPC   C24 8324   2.223   1.728   2.626
  167DPPC   C25 8325   2.339   1.660   2.699
  167DPPC   C26 8326   2.280   1.576   2.812
  167DPPC   C27 8327   2.379   1.500   2.901
  167DPPC   C28 8328   2.335   1.365   2.958
  167DPPC   C29 8329   2.455   1.311   3.036
  167DPPC   C30 8330   2.415   1.190   3.120
  167DPPC   C31 8331   2.296   1.233   3.205
  167DPPC   C32 8332   1.964   2.051   1.825
  167DPPC   O33 8333   1.966   2.122   1.949
  167DPPC   C34 8334   1.899   2.241   1.951
  167DPPC   O35 8335   1.824   2.282   1.863
  167DPPC   C36 8336   1.898   2.318   2.083
  167DPPC   C37 8337   2.012   2.419   2.093
  167DPPC   C38 8338   1.978   2.519   2.203
  167DPPC   C39 8339   1.962   2.450   2.338
  167DPPC   C40 8340   1.960   2.565   2.439
  167DPPC   C41 8341   1.964   2.529   2.588
  167DPPC   C42 8342   1.960   2.656   2.674
  167DPPC   C43 8343   1.919   2.622   2.818
  167DPPC   C44 8344   1.896   2.744   2.908
  167DPPC   C45 8345   1.866   2.708   3.054
  167DPPC   C46 8346   1.865   2.839   3.132
  167DPPC   C47 8347   1.798   2.827   3.269
  167DPPC   C48 8348   1.834   2.954   3.347
  167DPPC   C49 8349   1.761   2.947   3.481
  167DPPC   C50 8350   1.820   3.041   3.585
  168DPPC    C1 8351   2.694   8.031   1.207
  168DPPC    C2 8352   2.473   7.992   1.129
  168DPPC    C3 8353   2.535   7.937   1.352
  168DPPC    N4 8354   2.552   8.036   1.245
  168DPPC    C5 8355   2.519   8.172   1.287
  168DPPC    C6 8356   2.584   8.246   1.404
  168DPPC    O7 8357   2.553   8.386   1.411
  168DPPC    P8 8358   2.641   8.455   1.526
  168DPPC    O9 8359   2.624   8.602   1.528
  168DPPC   O10 8360   2.770   8.387   1.500
  168DPPC   O11 8361   2.598   8.374   1.659
  168DPPC   C12 8362   2.476   8.427   1.713
  168DPPC   C13 8363   2.445   8.380   1.855
  168DPPC   O14 8364   2.318   8.431   1.899
  168DPPC   C15 8365   2.209   8.352   1.885
  168DPPC   O16 8366   2.195   8.291   1.779
  168DPPC   C17 8367   2.090   8.368   1.979
  168DPPC   C18 8368   2.076   8.515   2.019
  168DPPC   C19 8369   2.005   8.525   2.155
  168DPPC   C20 8370   1.982   8.674   2.180
  168DPPC   C21 8371   1.921   8.714   2.315
  168DPPC   C22 8372   1.839   8.842   2.296
  168DPPC   C23 8373   1.786   8.895   2.429
  168DPPC   C24 8374   1.669   8.815   2.487
  168DPPC   C25 8375   1.619   8.881   2.615
  168DPPC   C26 8376   1.541   8.784   2.704
  168DPPC   C27 8377   1.625   8.658   2.727
  168DPPC   C28 8378   1.575   8.544   2.817
  168DPPC   C29 8379   1.425   8.518   2.814
  168DPPC   C30 8380   1.403   8.411   2.921
  168DPPC   C31 8381   1.253   8.384   2.929
  168DPPC   C32 8382   2.566   8.428   1.934
  168DPPC   O33 8383   2.592   8.569   1.924
  168DPPC   C34 8384   2.721   8.611   1.933
  168DPPC   O35 8385   2.810   8.535   1.969
  168DPPC   C36 8386   2.733   8.762   1.915
  168DPPC   C37 8387   2.695   8.843   2.039
  168DPPC   C38 8388   2.699   8.986   1.985
  168DPPC   C39 8389   2.670   9.090   2.093
  168DPPC   C40 8390   2.754   9.067   2.218
  168DPPC   C41 8391   2.723   9.172   2.326
  168DPPC   C42 8392   2.807   9.144   2.450
  168DPPC   C43 8393   2.804   9.263   2.546
  168DPPC   C44 8394   2.890   9.242   2.671
  168DPPC   C45 8395   3.038   9.213   2.649
  168DPPC   C46 8396   3.112   9.219   2.783
  168DPPC   C47 8397   3.257   9.171   2.776
  168DPPC   C48 8398   3.323   9.271   2.681
  168DPPC   C49 8399   3.473   9.241   2.678
  168DPPC   C50 8400   3.517   9.138   2.574
  169DPPC    C1 8401   0.035   2.558   1.489
  169DPPC    C2 8402   0.253   2.500   1.473
  169DPPC    C3 8403   0.095   2.346   1.374
  169DPPC    N4 8404   0.127   2.488   1.398
  169DPPC    C5 8405   0.129   2.570   1.276
  169DPPC    C6 8406   0.223   2.545   1.158
  169DPPC    O7 8407   0.355   2.599   1.171
  169DPPC    P8 8408   0.376   2.745   1.106
  169DPPC    O9 8409   0.263   2.789   1.022
  169DPPC   O10 8410   0.510   2.724   1.046
  169DPPC   O11 8411   0.396   2.806   1.254
  169DPPC   C12 8412   0.524   2.777   1.312
  169DPPC   C13 8413   0.546   2.850   1.445
  169DPPC   O14 8414   0.494   2.789   1.563
  169DPPC   C15 8415   0.581   2.730   1.650
  169DPPC   O16 8416   0.684   2.678   1.608
  169DPPC   C17 8417   0.525   2.683   1.784
  169DPPC   C18 8418   0.592   2.555   1.834
  169DPPC   C19 8419   0.588   2.541   1.987
  169DPPC   C20 8420   0.661   2.416   2.034
  169DPPC   C21 8421   0.573   2.291   2.021
  169DPPC   C22 8422   0.458   2.310   2.120
  169DPPC   C23 8423   0.516   2.300   2.262
  169DPPC   C24 8424   0.406   2.327   2.365
  169DPPC   C25 8425   0.459   2.320   2.508
  169DPPC   C26 8426   0.352   2.335   2.616
  169DPPC   C27 8427   0.294   2.194   2.625
  169DPPC   C28 8428   0.181   2.193   2.727
  169DPPC   C29 8429   0.226   2.201   2.873
  169DPPC   C30 8430   0.105   2.201   2.966
  169DPPC   C31 8431   0.024   2.080   2.917
  169DPPC   C32 8432   0.508   2.996   1.416
  169DPPC   O33 8433   0.531   3.085   1.525
  169DPPC   C34 8434   0.488   3.214   1.514
  169DPPC   O35 8435   0.454   3.267   1.408
  169DPPC   C36 8436   0.509   3.294   1.642
  169DPPC   C37 8437   0.431   3.245   1.764
  169DPPC   C38 8438   0.432   3.364   1.860
  169DPPC   C39 8439   0.358   3.322   1.987
  169DPPC   C40 8440   0.337   3.441   2.080
  169DPPC   C41 8441   0.467   3.520   2.097
  169DPPC   C42 8442   0.548   3.469   2.216
  169DPPC   C43 8443   0.695   3.508   2.207
  169DPPC   C44 8444   0.776   3.480   2.334
  169DPPC   C45 8445   0.926   3.478   2.305
  169DPPC   C46 8446   0.975   3.616   2.261
  169DPPC   C47 8447   1.125   3.642   2.268
  169DPPC   C48 8448   1.164   3.779   2.214
  169DPPC   C49 8449   1.129   3.770   2.065
  169DPPC   C50 8450   1.109   3.899   1.985
  170DPPC    C1 8451   6.781   8.424   1.305
  170DPPC    C2 8452   6.957   8.311   1.239
  170DPPC    C3 8453   6.972   8.471   1.426
  170DPPC    N4 8454   6.898   8.359   1.365
  170DPPC    C5 8455   6.848   8.248   1.447
  170DPPC    C6 8456   6.946   8.158   1.523
  170DPPC    O7 8457   6.872   8.048   1.576
  170DPPC    P8 8458   6.959   7.913   1.565
  170DPPC    O9 8459   7.049   7.929   1.449
  170DPPC   O10 8460   6.869   7.796   1.576
  170DPPC   O11 8461   7.061   7.923   1.689
  170DPPC   C12 8462   6.974   7.892   1.798
  170DPPC   C13 8463   7.047   7.884   1.932
  170DPPC   O14 8464   6.976   7.808   2.032
  170DPPC   C15 8465   6.983   7.672   2.032
  170DPPC   O16 8466   7.019   7.610   1.932
  170DPPC   C17 8467   6.908   7.598   2.143
  170DPPC   C18 8468   6.875   7.676   2.270
  170DPPC   C19 8469   6.825   7.586   2.383
  170DPPC   C20 8470   6.766   7.669   2.498
  170DPPC   C21 8471   6.695   7.584   2.604
  170DPPC   C22 8472   6.646   7.665   2.724
  170DPPC   C23 8473   6.759   7.753   2.778
  170DPPC   C24 8474   6.702   7.846   2.885
  170DPPC   C25 8475   6.580   7.925   2.836
  170DPPC   C26 8476   6.516   8.007   2.949
  170DPPC   C27 8477   6.473   7.896   3.044
  170DPPC   C28 8478   6.397   7.953   3.164
  170DPPC   C29 8479   6.333   7.836   3.240
  170DPPC   C30 8480   6.441   7.738   3.284
  170DPPC   C31 8481   6.361   7.614   3.326
  170DPPC   C32 8482   7.086   8.024   1.979
  170DPPC   O33 8483   7.172   8.031   2.093
  170DPPC   C34 8484   7.198   8.153   2.146
  170DPPC   O35 8485   7.126   8.250   2.118
  170DPPC   C36 8486   7.318   8.167   2.239
  170DPPC   C37 8487   7.434   8.209   2.148
  170DPPC   C38 8488   7.566   8.211   2.224
  170DPPC   C39 8489   7.561   8.318   2.334
  170DPPC   C40 8490   7.695   8.339   2.405
  170DPPC   C41 8491   7.690   8.465   2.490
  170DPPC   C42 8492   7.837   8.492   2.522
  170DPPC   C43 8493   7.865   8.606   2.621
  170DPPC   C44 8494   8.010   8.593   2.667
  170DPPC   C45 8495   8.028   8.688   2.785
  170DPPC   C46 8496   8.161   8.678   2.860
  170DPPC   C47 8497   8.157   8.746   2.997
  170DPPC   C48 8498   8.280   8.693   3.071
  170DPPC   C49 8499   8.269   8.749   3.213
  170DPPC   C50 8500   8.386   8.722   3.308
  171DPPC    C1 8501   5.718   7.418   1.209
  171DPPC    C2 8502   5.654   7.213   1.138
  171DPPC    C3 8503   5.877   7.243   1.244
  171DPPC    N4 8504   5.734   7.276   1.245
  171DPPC    C5 8505   5.682   7.233   1.375
  171DPPC    C6 8506   5.562   7.310   1.430
  171DPPC    O7 8507   5.516   7.242   1.547
  171DPPC    P8 8508   5.389   7.292   1.632
  171DPPC    O9 8509   5.362   7.186   1.731
  171DPPC   O10 8510   5.287   7.311   1.526
  171DPPC   O11 8511   5.461   7.430   1.672
  171DPPC   C12 8512   5.526   7.406   1.797
  171DPPC   C13 8513   5.639   7.505   1.823
  171DPPC   O14 8514   5.733   7.465   1.924
  171DPPC   C15 8515   5.852   7.523   1.954
  171DPPC   O16 8516   5.906   7.608   1.884
  171DPPC   C17 8517   5.945   7.447   2.049
  171DPPC   C18 8518   6.073   7.527   2.072
  171DPPC   C19 8519   6.180   7.469   2.164
  171DPPC   C20 8520   6.139   7.515   2.304
  171DPPC   C21 8521   6.240   7.486   2.415
  171DPPC   C22 8522   6.196   7.564   2.539
  171DPPC   C23 8523   6.269   7.510   2.662
  171DPPC   C24 8524   6.246   7.362   2.691
  171DPPC   C25 8525   6.282   7.321   2.834
  171DPPC   C26 8526   6.172   7.347   2.937
  171DPPC   C27 8527   6.237   7.314   3.072
  171DPPC   C28 8528   6.134   7.316   3.185
  171DPPC   C29 8529   6.171   7.206   3.285
  171DPPC   C30 8530   6.045   7.154   3.353
  171DPPC   C31 8531   6.068   7.047   3.461
  171DPPC   C32 8532   5.582   7.641   1.864
  171DPPC   O33 8533   5.489   7.633   1.972
  171DPPC   C34 8534   5.436   7.751   2.014
  171DPPC   O35 8535   5.468   7.860   1.968
  171DPPC   C36 8536   5.351   7.756   2.141
  171DPPC   C37 8537   5.409   7.847   2.250
  171DPPC   C38 8538   5.318   7.849   2.373
  171DPPC   C39 8539   5.380   7.937   2.481
  171DPPC   C40 8540   5.396   8.080   2.431
  171DPPC   C41 8541   5.479   8.173   2.520
  171DPPC   C42 8542   5.464   8.315   2.467
  171DPPC   C43 8543   5.441   8.414   2.581
  171DPPC   C44 8544   5.564   8.417   2.673
  171DPPC   C45 8545   5.517   8.456   2.813
  171DPPC   C46 8546   5.401   8.364   2.854
  171DPPC   C47 8547   5.335   8.411   2.983
  171DPPC   C48 8548   5.193   8.357   3.003
  171DPPC   C49 8549   5.129   8.443   3.112
  171DPPC   C50 8550   4.979   8.425   3.091
  172DPPC    C1 8551   2.928   5.031   1.493
  172DPPC    C2 8552   2.915   5.024   1.746
  172DPPC    C3 8553   3.028   4.876   1.623
  172DPPC    N4 8554   2.996   5.019   1.623
  172DPPC    C5 8555   3.125   5.086   1.643
  172DPPC    C6 8556   3.122   5.238   1.634
  172DPPC    O7 8557   3.246   5.309   1.638
  172DPPC    P8 8558   3.217   5.457   1.581
  172DPPC    O9 8559   3.075   5.473   1.544
  172DPPC   O10 8560   3.326   5.527   1.509
  172DPPC   O11 8561   3.205   5.534   1.721
  172DPPC   C12 8562   3.339   5.507   1.764
  172DPPC   C13 8563   3.372   5.539   1.910
  172DPPC   O14 8564   3.348   5.428   1.997
  172DPPC   C15 8565   3.458   5.405   2.074
  172DPPC   O16 8566   3.567   5.399   2.017
  172DPPC   C17 8567   3.437   5.307   2.190
  172DPPC   C18 8568   3.392   5.376   2.318
  172DPPC   C19 8569   3.488   5.484   2.369
  172DPPC   C20 8570   3.447   5.535   2.507
  172DPPC   C21 8571   3.534   5.652   2.551
  172DPPC   C22 8572   3.490   5.714   2.684
  172DPPC   C23 8573   3.569   5.841   2.714
  172DPPC   C24 8574   3.491   5.924   2.816
  172DPPC   C25 8575   3.581   6.046   2.839
  172DPPC   C26 8576   3.526   6.132   2.952
  172DPPC   C27 8577   3.581   6.274   2.937
  172DPPC   C28 8578   3.534   6.356   3.058
  172DPPC   C29 8579   3.548   6.276   3.188
  172DPPC   C30 8580   3.564   6.355   3.318
  172DPPC   C31 8581   3.441   6.447   3.326
  172DPPC   C32 8582   3.296   5.669   1.940
  172DPPC   O33 8583   3.298   5.706   2.078
  172DPPC   C34 8584   3.219   5.804   2.129
  172DPPC   O35 8585   3.177   5.889   2.051
  172DPPC   C36 8586   3.217   5.836   2.279
  172DPPC   C37 8587   3.155   5.728   2.368
  172DPPC   C38 8588   3.136   5.778   2.512
  172DPPC   C39 8589   3.049   5.692   2.603
  172DPPC   C40 8590   3.051   5.745   2.746
  172DPPC   C41 8591   2.977   5.653   2.843
  172DPPC   C42 8592   2.997   5.691   2.990
  172DPPC   C43 8593   3.142   5.652   3.020
  172DPPC   C44 8594   3.190   5.719   3.149
  172DPPC   C45 8595   3.157   5.639   3.275
  172DPPC   C46 8596   3.203   5.715   3.400
  172DPPC   C47 8597   3.352   5.747   3.387
  172DPPC   C48 8598   3.407   5.824   3.507
  172DPPC   C49 8599   3.417   5.735   3.631
  172DPPC   C50 8600   3.508   5.612   3.615
  173DPPC    C1 8601   6.000   2.029   2.060
  173DPPC    C2 8602   5.867   2.044   1.869
  173DPPC    C3 8603   5.875   2.236   2.020
  173DPPC    N4 8604   5.951   2.125   1.960
  173DPPC    C5 8605   6.076   2.176   1.903
  173DPPC    C6 8606   6.079   2.282   1.792
  173DPPC    O7 8607   6.201   2.336   1.741
  173DPPC    P8 8608   6.192   2.481   1.672
  173DPPC    O9 8609   6.070   2.457   1.591
  173DPPC   O10 8610   6.318   2.537   1.619
  173DPPC   O11 8611   6.149   2.560   1.806
  173DPPC   C12 8612   6.268   2.619   1.859
  173DPPC   C13 8613   6.247   2.694   1.991
  173DPPC   O14 8614   6.368   2.740   2.053
  173DPPC   C15 8615   6.348   2.853   2.126
  173DPPC   O16 8616   6.261   2.928   2.083
  173DPPC   C17 8617   6.474   2.914   2.189
  173DPPC   C18 8618   6.445   3.000   2.312
  173DPPC   C19 8619   6.535   2.969   2.431
  173DPPC   C20 8620   6.520   2.831   2.495
  173DPPC   C21 8621   6.615   2.819   2.615
  173DPPC   C22 8622   6.586   2.688   2.688
  173DPPC   C23 8623   6.673   2.651   2.809
  173DPPC   C24 8624   6.618   2.744   2.917
  173DPPC   C25 8625   6.689   2.721   3.051
  173DPPC   C26 8626   6.598   2.798   3.147
  173DPPC   C27 8627   6.667   2.818   3.282
  173DPPC   C28 8628   6.696   2.690   3.361
  173DPPC   C29 8629   6.747   2.737   3.498
  173DPPC   C30 8630   6.637   2.821   3.562
  173DPPC   C31 8631   6.673   2.877   3.700
  173DPPC   C32 8632   6.192   2.575   2.070
  173DPPC   O33 8633   6.155   2.589   2.208
  173DPPC   C34 8634   6.133   2.478   2.283
  173DPPC   O35 8635   6.108   2.372   2.226
  173DPPC   C36 8636   6.099   2.499   2.431
  173DPPC   C37 8637   6.207   2.516   2.538
  173DPPC   C38 8638   6.151   2.590   2.660
  173DPPC   C39 8639   6.235   2.596   2.788
  173DPPC   C40 8640   6.188   2.700   2.889
  173DPPC   C41 8641   6.232   2.669   3.033
  173DPPC   C42 8642   6.167   2.770   3.127
  173DPPC   C43 8643   6.231   2.774   3.266
  173DPPC   C44 8644   6.218   2.631   3.319
  173DPPC   C45 8645   6.264   2.637   3.465
  173DPPC   C46 8646   6.186   2.742   3.544
  173DPPC   C47 8647   6.231   2.751   3.690
  173DPPC   C48 8648   6.184   2.885   3.748
  173DPPC   C49 8649   6.274   3.007   3.728
  173DPPC   C50 8650   6.203   3.141   3.742
  174DPPC    C1 8651   8.919   4.934   0.977
  174DPPC    C2 8652   9.065   4.876   1.137
  174DPPC    C3 8653   8.926   4.697   1.059
  174DPPC    N4 8654   8.999   4.819   1.019
  174DPPC    C5 8655   9.084   4.805   0.900
  174DPPC    C6 8656   9.172   4.680   0.899
  174DPPC    O7 8657   9.247   4.669   1.021
  174DPPC    P8 8658   9.317   4.525   1.001
  174DPPC    O9 8659   9.403   4.530   0.880
  174DPPC   O10 8660   9.202   4.432   1.002
  174DPPC   O11 8661   9.403   4.533   1.137
  174DPPC   C12 8662   9.319   4.496   1.247
  174DPPC   C13 8663   9.389   4.513   1.381
  174DPPC   O14 8664   9.309   4.479   1.495
  174DPPC   C15 8665   9.320   4.347   1.527
  174DPPC   O16 8666   9.369   4.264   1.450
  174DPPC   C17 8667   9.259   4.297   1.658
  174DPPC   C18 8668   9.253   4.403   1.768
  174DPPC   C19 8669   9.194   4.341   1.895
  174DPPC   C20 8670   9.186   4.437   2.014
  174DPPC   C21 8671   9.102   4.391   2.133
  174DPPC   C22 8672   9.103   4.481   2.257
  174DPPC   C23 8673   9.042   4.398   2.370
  174DPPC   C24 8674   9.043   4.463   2.509
  174DPPC   C25 8675   9.031   4.356   2.618
  174DPPC   C26 8676   9.005   4.410   2.759
  174DPPC   C27 8677   8.966   4.299   2.857
  174DPPC   C28 8678   8.837   4.230   2.812
  174DPPC   C29 8679   8.803   4.136   2.928
  174DPPC   C30 8680   8.684   4.045   2.895
  174DPPC   C31 8681   8.600   4.013   3.018
  174DPPC   C32 8682   9.458   4.650   1.382
  174DPPC   O33 8683   9.371   4.760   1.355
  174DPPC   C34 8684   9.433   4.881   1.361
  174DPPC   O35 8685   9.556   4.886   1.355
  174DPPC   C36 8686   9.337   5.000   1.356
  174DPPC   C37 8687   9.377   5.100   1.464
  174DPPC   C38 8688   9.283   5.221   1.461
  174DPPC   C39 8689   9.294   5.323   1.574
  174DPPC   C40 8690   9.285   5.261   1.714
  174DPPC   C41 8691   9.268   5.371   1.820
  174DPPC   C42 8692   9.250   5.302   1.955
  174DPPC   C43 8693   9.280   5.401   2.068
  174DPPC   C44 8694   9.244   5.338   2.203
  174DPPC   C45 8695   9.283   5.434   2.316
  174DPPC   C46 8696   9.225   5.390   2.451
  174DPPC   C47 8697   9.267   5.499   2.550
  174DPPC   C48 8698   9.195   5.466   2.681
  174DPPC   C49 8699   9.045   5.477   2.651
  174DPPC   C50 8700   8.952   5.430   2.763
  175DPPC    C1 8701   3.688   1.766   1.760
  175DPPC    C2 8702   3.878   1.882   1.837
  175DPPC    C3 8703   3.672   1.976   1.876
  175DPPC    N4 8704   3.740   1.846   1.872
  175DPPC    C5 8705   3.748   1.781   2.004
  175DPPC    C6 8706   3.617   1.712   2.046
  175DPPC    O7 8707   3.504   1.797   2.064
  175DPPC    P8 8708   3.366   1.716   2.083
  175DPPC    O9 8709   3.406   1.576   2.109
  175DPPC   O10 8710   3.266   1.768   1.986
  175DPPC   O11 8711   3.345   1.787   2.226
  175DPPC   C12 8712   3.378   1.692   2.328
  175DPPC   C13 8713   3.402   1.758   2.464
  175DPPC   O14 8714   3.485   1.690   2.559
  175DPPC   C15 8715   3.618   1.675   2.536
  175DPPC   O16 8716   3.678   1.743   2.453
  175DPPC   C17 8717   3.688   1.596   2.647
  175DPPC   C18 8718   3.672   1.680   2.774
  175DPPC   C19 8719   3.721   1.624   2.908
  175DPPC   C20 8720   3.734   1.734   3.014
  175DPPC   C21 8721   3.772   1.683   3.153
  175DPPC   C22 8722   3.904   1.608   3.171
  175DPPC   C23 8723   3.931   1.575   3.318
  175DPPC   C24 8724   3.943   1.689   3.419
  175DPPC   C25 8725   3.963   1.645   3.564
  175DPPC   C26 8726   3.991   1.771   3.647
  175DPPC   C27 8727   4.034   1.730   3.788
  175DPPC   C28 8728   4.103   1.844   3.864
  175DPPC   C29 8729   4.122   1.819   4.014
  175DPPC   C30 8730   4.214   1.697   4.017
  175DPPC   C31 8731   4.352   1.720   3.956
  175DPPC   C32 8732   3.267   1.815   2.509
  175DPPC   O33 8733   3.173   1.708   2.520
  175DPPC   C34 8734   3.057   1.727   2.589
  175DPPC   O35 8735   2.984   1.813   2.539
  175DPPC   C36 8736   3.002   1.589   2.626
  175DPPC   C37 8737   2.862   1.612   2.683
  175DPPC   C38 8738   2.797   1.477   2.716
  175DPPC   C39 8739   2.882   1.386   2.805
  175DPPC   C40 8740   2.805   1.255   2.819
  175DPPC   C41 8741   2.886   1.161   2.909
  175DPPC   C42 8742   2.911   1.226   3.045
  175DPPC   C43 8743   3.023   1.159   3.124
  175DPPC   C44 8744   3.080   1.236   3.243
  175DPPC   C45 8745   3.194   1.140   3.277
  175DPPC   C46 8746   3.282   1.196   3.388
  175DPPC   C47 8747   3.216   1.233   3.521
  175DPPC   C48 8748   3.332   1.233   3.621
  175DPPC   C49 8749   3.283   1.281   3.758
  175DPPC   C50 8750   3.377   1.253   3.875
  176DPPC    C1 8751   8.260   4.759   1.037
  176DPPC    C2 8752   8.329   4.786   0.806
  176DPPC    C3 8753   8.096   4.765   0.870
  176DPPC    N4 8754   8.228   4.820   0.907
  176DPPC    C5 8755   8.213   4.966   0.918
  176DPPC    C6 8756   8.343   5.047   0.930
  176DPPC    O7 8757   8.387   5.062   1.065
  176DPPC    P8 8758   8.543   5.101   1.074
  176DPPC    O9 8759   8.552   5.233   1.139
  176DPPC   O10 8760   8.599   5.093   0.937
  176DPPC   O11 8761   8.594   4.974   1.159
  176DPPC   C12 8762   8.523   4.952   1.282
  176DPPC   C13 8763   8.587   4.848   1.374
  176DPPC   O14 8764   8.505   4.815   1.487
  176DPPC   C15 8765   8.531   4.693   1.543
  176DPPC   O16 8766   8.590   4.608   1.478
  176DPPC   C17 8767   8.454   4.659   1.671
  176DPPC   C18 8768   8.313   4.601   1.655
  176DPPC   C19 8769   8.249   4.577   1.792
  176DPPC   C20 8770   8.104   4.528   1.802
  176DPPC   C21 8771   8.079   4.468   1.941
  176DPPC   C22 8772   7.936   4.416   1.950
  176DPPC   C23 8773   7.900   4.356   2.087
  176DPPC   C24 8774   7.867   4.468   2.186
  176DPPC   C25 8775   7.841   4.419   2.329
  176DPPC   C26 8776   7.769   4.520   2.418
  176DPPC   C27 8777   7.749   4.474   2.563
  176DPPC   C28 8778   7.670   4.579   2.641
  176DPPC   C29 8779   7.687   4.549   2.790
  176DPPC   C30 8780   7.838   4.569   2.801
  176DPPC   C31 8781   7.892   4.496   2.925
  176DPPC   C32 8782   8.730   4.893   1.402
  176DPPC   O33 8783   8.734   5.024   1.461
  176DPPC   C34 8784   8.858   5.074   1.488
  176DPPC   O35 8785   8.957   5.008   1.457
  176DPPC   C36 8786   8.848   5.197   1.578
  176DPPC   C37 8787   8.844   5.166   1.728
  176DPPC   C38 8788   8.858   5.301   1.797
  176DPPC   C39 8789   8.828   5.285   1.946
  176DPPC   C40 8790   8.862   5.408   2.031
  176DPPC   C41 8791   8.810   5.395   2.174
  176DPPC   C42 8792   8.797   5.526   2.251
  176DPPC   C43 8793   8.742   5.491   2.389
  176DPPC   C44 8794   8.706   5.628   2.447
  176DPPC   C45 8795   8.645   5.618   2.587
  176DPPC   C46 8796   8.519   5.531   2.593
  176DPPC   C47 8797   8.393   5.608   2.555
  176DPPC   C48 8798   8.270   5.517   2.545
  176DPPC   C49 8799   8.172   5.595   2.457
  176DPPC   C50 8800   8.132   5.715   2.543
  177DPPC    C1 8801   9.102   2.613   1.469
  177DPPC    C2 8802   8.913   2.618   1.316
  177DPPC    C3 8803   8.907   2.695   1.538
  177DPPC    N4 8804   8.990   2.692   1.416
  177DPPC    C5 8805   9.044   2.822   1.374
  177DPPC    C6 8806   8.982   2.894   1.255
  177DPPC    O7 8807   8.850   2.941   1.286
  177DPPC    P8 8808   8.862   3.098   1.320
  177DPPC    O9 8809   8.782   3.185   1.231
  177DPPC   O10 8810   8.999   3.127   1.368
  177DPPC   O11 8811   8.778   3.092   1.457
  177DPPC   C12 8812   8.862   3.097   1.573
  177DPPC   C13 8813   8.799   3.128   1.709
  177DPPC   O14 8814   8.744   3.012   1.772
  177DPPC   C15 8815   8.816   2.925   1.848
  177DPPC   O16 8816   8.939   2.918   1.846
  177DPPC   C17 8817   8.736   2.817   1.921
  177DPPC   C18 8818   8.716   2.852   2.069
  177DPPC   C19 8819   8.633   2.755   2.154
  177DPPC   C20 8820   8.606   2.812   2.293
  177DPPC   C21 8821   8.514   2.714   2.367
  177DPPC   C22 8822   8.527   2.719   2.519
  177DPPC   C23 8823   8.439   2.615   2.588
  177DPPC   C24 8824   8.426   2.620   2.741
  177DPPC   C25 8825   8.377   2.755   2.793
  177DPPC   C26 8826   8.342   2.746   2.942
  177DPPC   C27 8827   8.239   2.639   2.977
  177DPPC   C28 8828   8.218   2.621   3.127
  177DPPC   C29 8829   8.100   2.525   3.142
  177DPPC   C30 8830   8.085   2.499   3.292
  177DPPC   C31 8831   7.955   2.433   3.340
  177DPPC   C32 8832   8.694   3.238   1.692
  177DPPC   O33 8833   8.612   3.268   1.805
  177DPPC   C34 8834   8.509   3.192   1.849
  177DPPC   O35 8835   8.465   3.095   1.786
  177DPPC   C36 8836   8.432   3.237   1.973
  177DPPC   C37 8837   8.529   3.296   2.076
  177DPPC   C38 8838   8.451   3.350   2.197
  177DPPC   C39 8839   8.556   3.407   2.293
  177DPPC   C40 8840   8.649   3.294   2.337
  177DPPC   C41 8841   8.740   3.348   2.448
  177DPPC   C42 8842   8.849   3.241   2.457
  177DPPC   C43 8843   8.790   3.118   2.527
  177DPPC   C44 8844   8.890   3.012   2.570
  177DPPC   C45 8845   8.838   2.890   2.647
  177DPPC   C46 8846   8.946   2.818   2.727
  177DPPC   C47 8847   8.905   2.725   2.842
  177DPPC   C48 8848   8.803   2.618   2.804
  177DPPC   C49 8849   8.729   2.549   2.918
  177DPPC   C50 8850   8.814   2.445   2.991
  178DPPC    C1 8851   7.953   2.252   1.620
  178DPPC    C2 8852   8.055   2.465   1.681
  178DPPC    C3 8853   8.131   2.252   1.770
  178DPPC    N4 8854   8.077   2.322   1.653
  178DPPC    C5 8855   8.164   2.308   1.535
  178DPPC    C6 8856   8.315   2.317   1.559
  178DPPC    O7 8857   8.361   2.449   1.585
  178DPPC    P8 8858   8.510   2.451   1.646
  178DPPC    O9 8859   8.548   2.593   1.667
  178DPPC   O10 8860   8.599   2.375   1.556
  178DPPC   O11 8861   8.465   2.375   1.781
  178DPPC   C12 8862   8.428   2.461   1.889
  178DPPC   C13 8863   8.393   2.380   2.014
  178DPPC   O14 8864   8.364   2.459   2.130
  178DPPC   C15 8865   8.231   2.480   2.152
  178DPPC   O16 8866   8.154   2.480   2.056
  178DPPC   C17 8867   8.181   2.505   2.294
  178DPPC   C18 8868   8.029   2.496   2.307
  178DPPC   C19 8869   8.006   2.531   2.455
  178DPPC   C20 8870   8.047   2.676   2.484
  178DPPC   C21 8871   8.008   2.688   2.632
  178DPPC   C22 8872   7.986   2.836   2.664
  178DPPC   C23 8873   7.959   2.844   2.815
  178DPPC   C24 8874   7.947   2.993   2.849
  178DPPC   C25 8875   8.010   3.025   2.984
  178DPPC   C26 8876   8.043   3.173   3.002
  178DPPC   C27 8877   8.070   3.222   3.144
  178DPPC   C28 8878   8.203   3.159   3.187
  178DPPC   C29 8879   8.247   3.209   3.324
  178DPPC   C30 8880   8.385   3.148   3.348
  178DPPC   C31 8881   8.442   3.191   3.484
  178DPPC   C32 8882   8.516   2.292   2.035
  178DPPC   O33 8883   8.507   2.179   2.123
  178DPPC   C34 8884   8.436   2.065   2.105
  178DPPC   O35 8885   8.387   2.039   1.996
  178DPPC   C36 8886   8.430   1.975   2.229
  178DPPC   C37 8887   8.321   2.022   2.326
  178DPPC   C38 8888   8.327   1.951   2.462
  178DPPC   C39 8889   8.202   2.000   2.535
  178DPPC   C40 8890   8.183   1.929   2.669
  178DPPC   C41 8891   8.062   1.992   2.738
  178DPPC   C42 8892   8.045   1.914   2.868
  178DPPC   C43 8893   7.918   1.971   2.930
  178DPPC   C44 8894   7.888   1.917   3.070
  178DPPC   C45 8895   7.784   2.014   3.126
  178DPPC   C46 8896   7.701   1.957   3.242
  178DPPC   C47 8897   7.614   1.840   3.194
  178DPPC   C48 8898   7.532   1.780   3.308
  178DPPC   C49 8899   7.428   1.876   3.366
  178DPPC   C50 8900   7.293   1.804   3.377
  179DPPC    C1 8901   5.220   6.433   1.786
  179DPPC    C2 8902   5.337   6.333   1.968
  179DPPC    C3 8903   5.109   6.328   1.962
  179DPPC    N4 8904   5.226   6.315   1.873
  179DPPC    C5 8905   5.249   6.181   1.818
  179DPPC    C6 8906   5.129   6.124   1.741
  179DPPC    O7 8907   5.096   6.179   1.613
  179DPPC    P8 8908   4.937   6.173   1.591
  179DPPC    O9 8909   4.883   6.039   1.625
  179DPPC   O10 8910   4.894   6.254   1.475
  179DPPC   O11 8911   4.895   6.259   1.721
  179DPPC   C12 8912   4.779   6.342   1.713
  179DPPC   C13 8913   4.724   6.406   1.841
  179DPPC   O14 8914   4.814   6.504   1.895
  179DPPC   C15 8915   4.760   6.593   1.982
  179DPPC   O16 8916   4.652   6.646   1.954
  179DPPC   C17 8917   4.843   6.637   2.102
  179DPPC   C18 8918   4.811   6.556   2.227
  179DPPC   C19 8919   4.902   6.578   2.349
  179DPPC   C20 8920   5.048   6.566   2.305
  179DPPC   C21 8921   5.150   6.567   2.419
  179DPPC   C22 8922   5.131   6.428   2.481
  179DPPC   C23 8923   5.213   6.411   2.609
  179DPPC   C24 8924   5.149   6.502   2.714
  179DPPC   C25 8925   5.221   6.491   2.848
  179DPPC   C26 8926   5.213   6.348   2.904
  179DPPC   C27 8927   5.291   6.352   3.036
  179DPPC   C28 8928   5.259   6.234   3.128
  179DPPC   C29 8929   5.312   6.266   3.268
  179DPPC   C30 8930   5.311   6.144   3.361
  179DPPC   C31 8931   5.172   6.127   3.422
  179DPPC   C32 8932   4.694   6.276   1.916
  179DPPC   O33 8933   4.686   6.277   2.058
  179DPPC   C34 8934   4.656   6.164   2.128
  179DPPC   O35 8935   4.645   6.060   2.064
  179DPPC   C36 8936   4.665   6.164   2.281
  179DPPC   C37 8937   4.798   6.163   2.357
  179DPPC   C38 8938   4.774   6.155   2.508
  179DPPC   C39 8939   4.904   6.123   2.582
  179DPPC   C40 8940   4.895   6.145   2.733
  179DPPC   C41 8941   4.773   6.060   2.767
  179DPPC   C42 8942   4.753   6.032   2.916
  179DPPC   C43 8943   4.630   5.948   2.949
  179DPPC   C44 8944   4.586   5.968   3.094
  179DPPC   C45 8945   4.469   5.875   3.128
  179DPPC   C46 8946   4.416   5.890   3.271
  179DPPC   C47 8947   4.279   5.823   3.276
  179DPPC   C48 8948   4.288   5.671   3.256
  179DPPC   C49 8949   4.185   5.592   3.336
  179DPPC   C50 8950   4.038   5.633   3.327
  180DPPC    C1 8951   5.920   2.658   1.152
  180DPPC    C2 8952   6.143   2.641   1.221
  180DPPC    C3 8953   6.032   2.854   1.218
  180DPPC    N4 8954   6.017   2.711   1.249
  180DPPC    C5 8955   5.964   2.706   1.386
  180DPPC    C6 8956   6.042   2.779   1.494
  180DPPC    O7 8957   5.958   2.795   1.609
  180DPPC    P8 8958   6.031   2.890   1.717
  180DPPC    O9 8959   5.950   3.014   1.718
  180DPPC   O10 8960   6.178   2.891   1.700
  180DPPC   O11 8961   5.996   2.803   1.848
  180DPPC   C12 8962   5.892   2.872   1.918
  180DPPC   C13 8963   5.876   2.803   2.053
  180DPPC   O14 8964   5.740   2.771   2.084
  180DPPC   C15 8965   5.709   2.651   2.142
  180DPPC   O16 8966   5.732   2.550   2.075
  180DPPC   C17 8967   5.626   2.640   2.270
  180DPPC   C18 8968   5.699   2.539   2.359
  180DPPC   C19 8969   5.675   2.537   2.510
  180DPPC   C20 8970   5.740   2.412   2.569
  180DPPC   C21 8971   5.717   2.392   2.719
  180DPPC   C22 8972   5.776   2.255   2.755
  180DPPC   C23 8973   5.929   2.254   2.740
  180DPPC   C24 8974   5.975   2.110   2.762
  180DPPC   C25 8975   6.107   2.087   2.689
  180DPPC   C26 8976   6.202   2.191   2.748
  180DPPC   C27 8977   6.341   2.174   2.686
  180DPPC   C28 8978   6.447   2.267   2.748
  180DPPC   C29 8979   6.439   2.256   2.900
  180DPPC   C30 8980   6.522   2.364   2.969
  180DPPC   C31 8981   6.525   2.336   3.120
  180DPPC   C32 8982   5.969   2.881   2.146
  180DPPC   O33 8983   5.929   2.896   2.283
  180DPPC   C34 8984   5.996   2.987   2.360
  180DPPC   O35 8985   6.052   3.081   2.306
  180DPPC   C36 8986   5.957   2.995   2.508
  180DPPC   C37 8987   5.810   2.965   2.537
  180DPPC   C38 8988   5.779   2.990   2.684
  180DPPC   C39 8989   5.643   2.937   2.727
  180DPPC   C40 8990   5.619   2.951   2.877
  180DPPC   C41 8991   5.499   2.882   2.943
  180DPPC   C42 8992   5.508   2.883   3.096
  180DPPC   C43 8993   5.375   2.827   3.146
  180DPPC   C44 8994   5.355   2.833   3.298
  180DPPC   C45 8995   5.220   2.772   3.331
  180DPPC   C46 8996   5.119   2.860   3.258
  180DPPC   C47 8997   5.094   2.982   3.347
  180DPPC   C48 8998   4.976   3.064   3.295
  180DPPC   C49 8999   4.895   3.122   3.411
  180DPPC   C50 9000   4.985   3.181   3.520
  181DPPC    C1 9001   5.583   5.891   1.339
  181DPPC    C2 9002   5.743   5.855   1.524
  181DPPC    C3 9003   5.530   5.960   1.547
  181DPPC    N4 9004   5.604   5.853   1.479
  181DPPC    C5 9005   5.541   5.725   1.517
  181DPPC    C6 9006   5.562   5.592   1.446
  181DPPC    O7 9007   5.532   5.477   1.526
  181DPPC    P8 9008   5.614   5.345   1.485
  181DPPC    O9 9009   5.694   5.389   1.369
  181DPPC   O10 9010   5.514   5.238   1.463
  181DPPC   O11 9011   5.693   5.327   1.625
  181DPPC   C12 9012   5.596   5.331   1.730
  181DPPC   C13 9013   5.653   5.309   1.871
  181DPPC   O14 9014   5.563   5.360   1.971
  181DPPC   C15 9015   5.473   5.273   2.024
  181DPPC   O16 9016   5.465   5.154   1.997
  181DPPC   C17 9017   5.429   5.332   2.158
  181DPPC   C18 9018   5.294   5.400   2.138
  181DPPC   C19 9019   5.256   5.488   2.257
  181DPPC   C20 9020   5.196   5.405   2.371
  181DPPC   C21 9021   5.212   5.479   2.504
  181DPPC   C22 9022   5.144   5.412   2.623
  181DPPC   C23 9023   5.150   5.506   2.744
  181DPPC   C24 9024   5.116   5.439   2.878
  181DPPC   C25 9025   4.977   5.375   2.878
  181DPPC   C26 9026   4.866   5.479   2.891
  181DPPC   C27 9027   4.734   5.425   2.838
  181DPPC   C28 9028   4.613   5.499   2.897
  181DPPC   C29 9029   4.489   5.454   2.821
  181DPPC   C30 9030   4.368   5.542   2.855
  181DPPC   C31 9031   4.385   5.679   2.787
  181DPPC   C32 9032   5.794   5.368   1.881
  181DPPC   O33 9033   5.871   5.309   1.986
  181DPPC   C34 9034   6.005   5.330   1.988
  181DPPC   O35 9035   6.053   5.418   1.916
  181DPPC   C36 9036   6.086   5.250   2.090
  181DPPC   C37 9037   6.105   5.344   2.209
  181DPPC   C38 9038   6.159   5.284   2.339
  181DPPC   C39 9039   6.151   5.383   2.456
  181DPPC   C40 9040   6.216   5.321   2.580
  181DPPC   C41 9041   6.367   5.294   2.572
  181DPPC   C42 9042   6.414   5.232   2.704
  181DPPC   C43 9043   6.561   5.188   2.709
  181DPPC   C44 9044   6.578   5.080   2.816
  181DPPC   C45 9045   6.485   4.959   2.802
  181DPPC   C46 9046   6.541   4.833   2.868
  181DPPC   C47 9047   6.564   4.868   3.015
  181DPPC   C48 9048   6.642   4.765   3.097
  181DPPC   C49 9049   6.590   4.622   3.091
  181DPPC   C50 9050   6.676   4.515   3.157
  182DPPC    C1 9051   8.022   0.601   1.252
  182DPPC    C2 9052   8.243   0.694   1.229
  182DPPC    C3 9053   8.119   0.655   1.037
  182DPPC    N4 9054   8.106   0.696   1.177
  182DPPC    C5 9055   8.057   0.835   1.187
  182DPPC    C6 9056   7.913   0.868   1.148
  182DPPC    O7 9057   7.894   1.009   1.132
  182DPPC    P8 9058   7.753   1.021   1.055
  182DPPC    O9 9059   7.746   0.902   0.968
  182DPPC   O10 9060   7.738   1.162   1.013
  182DPPC   O11 9061   7.682   0.980   1.193
  182DPPC   C12 9062   7.669   1.099   1.271
  182DPPC   C13 9063   7.607   1.056   1.405
  182DPPC   O14 9064   7.577   1.172   1.483
  182DPPC   C15 9065   7.461   1.242   1.468
  182DPPC   O16 9066   7.373   1.213   1.388
  182DPPC   C17 9067   7.441   1.367   1.555
  182DPPC   C18 9068   7.324   1.351   1.652
  182DPPC   C19 9069   7.293   1.489   1.710
  182DPPC   C20 9070   7.188   1.480   1.820
  182DPPC   C21 9071   7.137   1.617   1.867
  182DPPC   C22 9072   7.038   1.596   1.982
  182DPPC   C23 9073   7.097   1.533   2.108
  182DPPC   C24 9074   6.989   1.509   2.213
  182DPPC   C25 9075   7.056   1.472   2.346
  182DPPC   C26 9076   6.959   1.459   2.464
  182DPPC   C27 9077   7.025   1.455   2.602
  182DPPC   C28 9078   6.940   1.396   2.714
  182DPPC   C29 9079   7.018   1.407   2.845
  182DPPC   C30 9080   6.934   1.329   2.947
  182DPPC   C31 9081   6.987   1.328   3.090
  182DPPC   C32 9082   7.706   0.952   1.459
  182DPPC   O33 9083   7.826   1.022   1.491
  182DPPC   C34 9084   7.930   0.947   1.536
  182DPPC   O35 9085   7.937   0.825   1.525
  182DPPC   C36 9086   8.027   1.033   1.617
  182DPPC   C37 9087   7.983   1.070   1.759
  182DPPC   C38 9088   8.085   1.160   1.829
  182DPPC   C39 9089   8.055   1.174   1.978
  182DPPC   C40 9090   8.166   1.258   2.041
  182DPPC   C41 9091   8.133   1.297   2.185
  182DPPC   C42 9092   8.038   1.417   2.179
  182DPPC   C43 9093   8.011   1.490   2.311
  182DPPC   C44 9094   7.946   1.623   2.272
  182DPPC   C45 9095   7.906   1.702   2.397
  182DPPC   C46 9096   7.780   1.629   2.443
  182DPPC   C47 9097   7.725   1.699   2.567
  182DPPC   C48 9098   7.592   1.637   2.613
  182DPPC   C49 9099   7.546   1.685   2.751
  182DPPC   C50 9100   7.644   1.660   2.865
  183DPPC    C1 9101   7.471   3.535   1.611
  183DPPC    C2 9102   7.504   3.726   1.488
  183DPPC    C3 9103   7.409   3.527   1.382
  183DPPC    N4 9104   7.411   3.613   1.502
  183DPPC    C5 9105   7.280   3.672   1.531
  183DPPC    C6 9106   7.151   3.590   1.535
  183DPPC    O7 9107   7.138   3.481   1.626
  183DPPC    P8 9108   6.998   3.402   1.624
  183DPPC    O9 9109   7.009   3.297   1.728
  183DPPC   O10 9110   6.964   3.377   1.483
  183DPPC   O11 9111   6.914   3.524   1.687
  183DPPC   C12 9112   6.887   3.496   1.825
  183DPPC   C13 9113   6.964   3.595   1.913
  183DPPC   O14 9114   6.980   3.540   2.044
  183DPPC   C15 9115   7.084   3.602   2.108
  183DPPC   O16 9116   7.188   3.636   2.052
  183DPPC   C17 9117   7.081   3.583   2.259
  183DPPC   C18 9118   7.192   3.492   2.313
  183DPPC   C19 9119   7.166   3.472   2.462
  183DPPC   C20 9120   7.262   3.386   2.545
  183DPPC   C21 9121   7.201   3.391   2.686
  183DPPC   C22 9122   7.298   3.315   2.777
  183DPPC   C23 9123   7.242   3.331   2.918
  183DPPC   C24 9124   7.332   3.285   3.033
  183DPPC   C25 9125   7.253   3.271   3.163
  183DPPC   C26 9126   7.324   3.221   3.289
  183DPPC   C27 9127   7.453   3.298   3.321
  183DPPC   C28 9128   7.511   3.265   3.459
  183DPPC   C29 9129   7.411   3.256   3.574
  183DPPC   C30 9130   7.483   3.202   3.698
  183DPPC   C31 9131   7.548   3.065   3.680
  183DPPC   C32 9132   6.889   3.727   1.899
  183DPPC   O33 9133   6.953   3.839   1.962
  183DPPC   C34 9134   7.061   3.894   1.901
  183DPPC   O35 9135   7.119   3.840   1.807
  183DPPC   C36 9136   7.122   4.017   1.968
  183DPPC   C37 9137   7.213   3.979   2.085
  183DPPC   C38 9138   7.125   3.966   2.209
  183DPPC   C39 9139   7.218   3.948   2.329
  183DPPC   C40 9140   7.127   3.936   2.452
  183DPPC   C41 9141   7.176   3.831   2.552
  183DPPC   C42 9142   7.310   3.887   2.602
  183DPPC   C43 9143   7.369   3.812   2.721
  183DPPC   C44 9144   7.269   3.820   2.837
  183DPPC   C45 9145   7.319   3.770   2.973
  183DPPC   C46 9146   7.218   3.806   3.082
  183DPPC   C47 9147   7.093   3.724   3.051
  183DPPC   C48 9148   6.983   3.736   3.156
  183DPPC   C49 9149   6.890   3.616   3.137
  183DPPC   C50 9150   6.809   3.631   3.008
  184DPPC    C1 9151   1.594   1.768   1.455
  184DPPC    C2 9152   1.384   1.795   1.563
  184DPPC    C3 9153   1.578   1.765   1.685
  184DPPC    N4 9154   1.526   1.835   1.566
  184DPPC    C5 9155   1.552   1.978   1.585
  184DPPC    C6 9156   1.496   2.064   1.471
  184DPPC    O7 9157   1.542   2.199   1.483
  184DPPC    P8 9158   1.469   2.264   1.356
  184DPPC    O9 9159   1.432   2.172   1.246
  184DPPC   O10 9160   1.520   2.403   1.348
  184DPPC   O11 9161   1.340   2.285   1.450
  184DPPC   C12 9162   1.363   2.385   1.550
  184DPPC   C13 9163   1.252   2.398   1.655
  184DPPC   O14 9164   1.270   2.518   1.732
  184DPPC   C15 9165   1.159   2.594   1.755
  184DPPC   O16 9166   1.065   2.572   1.679
  184DPPC   C17 9167   1.179   2.716   1.845
  184DPPC   C18 9168   1.210   2.663   1.985
  184DPPC   C19 9169   1.079   2.612   2.045
  184DPPC   C20 9170   1.096   2.591   2.196
  184DPPC   C21 9171   0.967   2.553   2.269
  184DPPC   C22 9172   0.989   2.568   2.419
  184DPPC   C23 9173   0.864   2.500   2.476
  184DPPC   C24 9174   0.844   2.548   2.620
  184DPPC   C25 9175   0.734   2.490   2.708
  184DPPC   C26 9176   0.721   2.546   2.850
  184DPPC   C27 9177   0.592   2.483   2.902
  184DPPC   C28 9178   0.560   2.509   3.050
  184DPPC   C29 9179   0.666   2.436   3.133
  184DPPC   C30 9180   0.640   2.285   3.127
  184DPPC   C31 9181   0.745   2.222   3.218
  184DPPC   C32 9182   1.241   2.262   1.724
  184DPPC   O33 9183   1.364   2.233   1.790
  184DPPC   C34 9184   1.373   2.114   1.856
  184DPPC   O35 9185   1.335   2.014   1.795
  184DPPC   C36 9186   1.498   2.102   1.944
  184DPPC   C37 9187   1.488   2.007   2.064
  184DPPC   C38 9188   1.614   2.021   2.150
  184DPPC   C39 9189   1.590   1.953   2.285
  184DPPC   C40 9190   1.720   1.982   2.360
  184DPPC   C41 9191   1.737   2.134   2.353
  184DPPC   C42 9192   1.654   2.202   2.462
  184DPPC   C43 9193   1.693   2.134   2.594
  184DPPC   C44 9194   1.655   2.214   2.719
  184DPPC   C45 9195   1.720   2.143   2.838
  184DPPC   C46 9196   1.699   1.993   2.816
  184DPPC   C47 9197   1.778   1.903   2.910
  184DPPC   C48 9198   1.752   1.754   2.890
  184DPPC   C49 9199   1.815   1.675   3.005
  184DPPC   C50 9200   1.766   1.530   3.008
  185DPPC    C1 9201   6.550   7.257   1.358
  185DPPC    C2 9202   6.500   7.344   1.593
  185DPPC    C3 9203   6.374   7.403   1.403
  185DPPC    N4 9204   6.454   7.296   1.463
  185DPPC    C5 9205   6.354   7.191   1.486
  185DPPC    C6 9206   6.387   7.045   1.516
  185DPPC    O7 9207   6.495   7.039   1.609
  185DPPC    P8 9208   6.601   6.925   1.568
  185DPPC    O9 9209   6.726   6.967   1.636
  185DPPC   O10 9210   6.597   6.911   1.421
  185DPPC   O11 9211   6.540   6.808   1.661
  185DPPC   C12 9212   6.555   6.849   1.797
  185DPPC   C13 9213   6.459   6.765   1.882
  185DPPC   O14 9214   6.450   6.790   2.023
  185DPPC   C15 9215   6.338   6.743   2.084
  185DPPC   O16 9216   6.247   6.691   2.019
  185DPPC   C17 9217   6.323   6.778   2.232
  185DPPC   C18 9218   6.188   6.844   2.259
  185DPPC   C19 9219   6.139   6.818   2.402
  185DPPC   C20 9220   6.221   6.883   2.514
  185DPPC   C21 9221   6.172   6.854   2.656
  185DPPC   C22 9222   6.267   6.925   2.752
  185DPPC   C23 9223   6.241   6.889   2.899
  185DPPC   C24 9224   6.338   6.953   2.999
  185DPPC   C25 9225   6.327   6.885   3.136
  185DPPC   C26 9226   6.410   6.973   3.230
  185DPPC   C27 9227   6.448   6.900   3.360
  185DPPC   C28 9228   6.528   6.978   3.464
  185DPPC   C29 9229   6.582   6.880   3.569
  185DPPC   C30 9230   6.477   6.851   3.676
  185DPPC   C31 9231   6.532   6.759   3.785
  185DPPC   C32 9232   6.524   6.628   1.859
  185DPPC   O33 9233   6.666   6.621   1.872
  185DPPC   C34 9234   6.718   6.510   1.813
  185DPPC   O35 9235   6.648   6.432   1.749
  185DPPC   C36 9236   6.869   6.509   1.841
  185DPPC   C37 9237   6.919   6.406   1.942
  185DPPC   C38 9238   6.922   6.458   2.085
  185DPPC   C39 9239   6.956   6.345   2.183
  185DPPC   C40 9240   6.967   6.397   2.326
  185DPPC   C41 9241   7.005   6.290   2.428
  185DPPC   C42 9242   7.135   6.210   2.411
  185DPPC   C43 9243   7.131   6.087   2.503
  185DPPC   C44 9244   7.252   5.998   2.475
  185DPPC   C45 9245   7.256   5.883   2.575
  185DPPC   C46 9246   7.382   5.796   2.578
  185DPPC   C47 9247   7.374   5.699   2.460
  185DPPC   C48 9248   7.494   5.605   2.452
  185DPPC   C49 9249   7.630   5.675   2.448
  185DPPC   C50 9250   7.739   5.573   2.416
  186DPPC    C1 9251   6.703   2.185   1.623
  186DPPC    C2 9252   6.700   2.414   1.617
  186DPPC    C3 9253   6.507   2.297   1.533
  186DPPC    N4 9254   6.611   2.299   1.637
  186DPPC    C5 9255   6.549   2.316   1.769
  186DPPC    C6 9256   6.449   2.210   1.815
  186DPPC    O7 9257   6.503   2.078   1.829
  186DPPC    P8 9258   6.394   1.961   1.841
  186DPPC    O9 9259   6.475   1.838   1.855
  186DPPC   O10 9260   6.310   1.984   1.721
  186DPPC   O11 9261   6.339   2.010   1.984
  186DPPC   C12 9262   6.424   1.935   2.071
  186DPPC   C13 9263   6.389   1.962   2.218
  186DPPC   O14 9264   6.273   1.894   2.266
  186DPPC   C15 9265   6.280   1.758   2.273
  186DPPC   O16 9266   6.370   1.703   2.211
  186DPPC   C17 9267   6.176   1.681   2.356
  186DPPC   C18 9268   6.225   1.619   2.487
  186DPPC   C19 9269   6.230   1.709   2.610
  186DPPC   C20 9270   6.246   1.623   2.736
  186DPPC   C21 9271   6.290   1.719   2.846
  186DPPC   C22 9272   6.274   1.669   2.989
  186DPPC   C23 9273   6.305   1.769   3.101
  186DPPC   C24 9274   6.201   1.881   3.111
  186DPPC   C25 9275   6.234   2.004   3.194
  186DPPC   C26 9276   6.157   2.129   3.152
  186DPPC   C27 9277   6.189   2.237   3.255
  186DPPC   C28 9278   6.113   2.206   3.384
  186DPPC   C29 9279   6.168   2.290   3.500
  186DPPC   C30 9280   6.096   2.255   3.630
  186DPPC   C31 9281   6.155   2.330   3.750
  186DPPC   C32 9282   6.391   2.113   2.240
  186DPPC   O33 9283   6.520   2.159   2.281
  186DPPC   C34 9284   6.530   2.294   2.293
  186DPPC   O35 9285   6.430   2.365   2.295
  186DPPC   C36 9286   6.663   2.352   2.342
  186DPPC   C37 9287   6.681   2.317   2.490
  186DPPC   C38 9288   6.821   2.344   2.544
  186DPPC   C39 9289   6.823   2.276   2.681
  186DPPC   C40 9290   6.971   2.268   2.720
  186DPPC   C41 9291   6.989   2.208   2.860
  186DPPC   C42 9292   6.949   2.301   2.974
  186DPPC   C43 9293   6.951   2.236   3.112
  186DPPC   C44 9294   6.952   2.340   3.224
  186DPPC   C45 9295   6.963   2.282   3.364
  186DPPC   C46 9296   6.910   2.388   3.461
  186DPPC   C47 9297   6.871   2.344   3.602
  186DPPC   C48 9298   6.761   2.237   3.604
  186DPPC   C49 9299   6.623   2.283   3.558
  186DPPC   C50 9300   6.522   2.193   3.630
  187DPPC    C1 9301   9.153   1.275   0.490
  187DPPC    C2 9302   8.930   1.246   0.510
  187DPPC    C3 9303   9.073   1.067   0.426
  187DPPC    N4 9304   9.056   1.172   0.528
  187DPPC    C5 9305   9.083   1.137   0.668
  187DPPC    C6 9306   9.004   1.019   0.724
  187DPPC    O7 9307   8.879   1.064   0.777
  187DPPC    P8 9308   8.827   0.932   0.854
  187DPPC    O9 9309   8.914   0.815   0.832
  187DPPC   O10 9310   8.681   0.908   0.847
  187DPPC   O11 9311   8.880   0.976   1.000
  187DPPC   C12 9312   8.780   0.990   1.101
  187DPPC   C13 9313   8.820   1.014   1.246
  187DPPC   O14 9314   8.728   0.993   1.355
  187DPPC   C15 9315   8.687   0.868   1.391
  187DPPC   O16 9316   8.744   0.773   1.339
  187DPPC   C17 9317   8.582   0.849   1.501
  187DPPC   C18 9318   8.599   0.728   1.592
  187DPPC   C19 9319   8.489   0.709   1.696
  187DPPC   C20 9320   8.351   0.683   1.634
  187DPPC   C21 9321   8.262   0.655   1.755
  187DPPC   C22 9322   8.255   0.789   1.828
  187DPPC   C23 9323   8.240   0.734   1.971
  187DPPC   C24 9324   8.242   0.862   2.055
  187DPPC   C25 9325   8.251   0.842   2.207
  187DPPC   C26 9326   8.267   0.980   2.269
  187DPPC   C27 9327   8.286   0.972   2.421
  187DPPC   C28 9328   8.263   1.104   2.495
  187DPPC   C29 9329   8.282   1.072   2.643
  187DPPC   C30 9330   8.433   1.062   2.668
  187DPPC   C31 9331   8.454   1.059   2.820
  187DPPC   C32 9332   8.867   1.159   1.242
  187DPPC   O33 9333   8.945   1.211   1.350
  187DPPC   C34 9334   9.070   1.157   1.357
  187DPPC   O35 9335   9.123   1.112   1.256
  187DPPC   C36 9336   9.135   1.159   1.496
  187DPPC   C37 9337   9.180   1.021   1.545
  187DPPC   C38 9338   9.068   0.947   1.616
  187DPPC   C39 9339   9.028   1.008   1.751
  187DPPC   C40 9340   8.917   0.920   1.808
  187DPPC   C41 9341   8.967   0.776   1.813
  187DPPC   C42 9342   8.857   0.678   1.854
  187DPPC   C43 9343   8.789   0.724   1.983
  187DPPC   C44 9344   8.687   0.623   2.036
  187DPPC   C45 9345   8.617   0.682   2.158
  187DPPC   C46 9346   8.562   0.580   2.258
  187DPPC   C47 9347   8.511   0.662   2.376
  187DPPC   C48 9348   8.495   0.574   2.500
  187DPPC   C49 9349   8.443   0.664   2.612
  187DPPC   C50 9350   8.371   0.592   2.726
  188DPPC    C1 9351   7.366   2.391   1.554
  188DPPC    C2 9352   7.470   2.185   1.488
  188DPPC    C3 9353   7.240   2.229   1.430
  188DPPC    N4 9354   7.373   2.289   1.448
  188DPPC    C5 9355   7.410   2.354   1.322
  188DPPC    C6 9356   7.546   2.413   1.283
  188DPPC    O7 9357   7.658   2.326   1.297
  188DPPC    P8 9358   7.787   2.422   1.286
  188DPPC    O9 9359   7.760   2.522   1.180
  188DPPC   O10 9360   7.912   2.343   1.293
  188DPPC   O11 9361   7.770   2.503   1.425
  188DPPC   C12 9362   7.789   2.641   1.392
  188DPPC   C13 9363   7.823   2.730   1.512
  188DPPC   O14 9364   7.965   2.737   1.530
  188DPPC   C15 9365   8.014   2.860   1.561
  188DPPC   O16 9366   7.985   2.957   1.492
  188DPPC   C17 9367   8.149   2.850   1.633
  188DPPC   C18 9368   8.147   2.803   1.779
  188DPPC   C19 9369   8.075   2.898   1.876
  188DPPC   C20 9370   8.125   2.878   2.020
  188DPPC   C21 9371   8.101   2.995   2.116
  188DPPC   C22 9372   8.178   2.949   2.239
  188DPPC   C23 9373   8.159   3.064   2.338
  188DPPC   C24 9374   8.245   3.027   2.459
  188DPPC   C25 9375   8.265   3.151   2.545
  188DPPC   C26 9376   8.343   3.126   2.674
  188DPPC   C27 9377   8.346   3.257   2.754
  188DPPC   C28 9378   8.416   3.225   2.886
  188DPPC   C29 9379   8.555   3.166   2.865
  188DPPC   C30 9380   8.606   3.134   3.006
  188DPPC   C31 9381   8.618   2.982   3.021
  188DPPC   C32 9382   7.736   2.672   1.624
  188DPPC   O33 9383   7.720   2.753   1.741
  188DPPC   C34 9384   7.615   2.718   1.820
  188DPPC   O35 9385   7.531   2.639   1.776
  188DPPC   C36 9386   7.585   2.802   1.944
  188DPPC   C37 9387   7.709   2.827   2.029
  188DPPC   C38 9388   7.712   2.930   2.143
  188DPPC   C39 9389   7.605   2.884   2.243
  188DPPC   C40 9390   7.611   2.985   2.357
  188DPPC   C41 9391   7.512   2.957   2.471
  188DPPC   C42 9392   7.570   2.992   2.608
  188DPPC   C43 9393   7.478   2.955   2.725
  188DPPC   C44 9394   7.567   2.978   2.847
  188DPPC   C45 9395   7.526   2.905   2.975
  188DPPC   C46 9396   7.631   2.935   3.082
  188DPPC   C47 9397   7.612   2.863   3.215
  188DPPC   C48 9398   7.743   2.872   3.292
  188DPPC   C49 9399   7.728   2.811   3.432
  188DPPC   C50 9400   7.843   2.839   3.528
  189DPPC    C1 9401   8.907   3.720   1.135
  189DPPC    C2 9402   8.786   3.530   1.225
  189DPPC    C3 9403   8.826   3.730   1.358
  189DPPC    N4 9404   8.798   3.677   1.224
  189DPPC    C5 9405   8.665   3.716   1.177
  189DPPC    C6 9406   8.617   3.860   1.197
  189DPPC    O7 9407   8.718   3.954   1.159
  189DPPC    P8 9408   8.677   4.109   1.148
  189DPPC    O9 9409   8.532   4.109   1.119
  189DPPC   O10 9410   8.774   4.177   1.059
  189DPPC   O11 9411   8.698   4.142   1.304
  189DPPC   C12 9412   8.839   4.134   1.328
  189DPPC   C13 9413   8.896   4.210   1.447
  189DPPC   O14 9414   8.869   4.159   1.578
  189DPPC   C15 9415   8.929   4.044   1.620
  189DPPC   O16 9416   8.984   3.971   1.538
  189DPPC   C17 9417   8.893   4.002   1.762
  189DPPC   C18 9418   8.934   4.108   1.865
  189DPPC   C19 9419   8.845   4.098   1.989
  189DPPC   C20 9420   8.700   4.131   1.955
  189DPPC   C21 9421   8.632   4.186   2.081
  189DPPC   C22 9422   8.483   4.210   2.058
  189DPPC   C23 9423   8.433   4.245   2.199
  189DPPC   C24 9424   8.292   4.303   2.185
  189DPPC   C25 9425   8.242   4.364   2.316
  189DPPC   C26 9426   8.240   4.278   2.443
  189DPPC   C27 9427   8.188   4.349   2.568
  189DPPC   C28 9428   8.167   4.260   2.691
  189DPPC   C29 9429   8.297   4.243   2.768
  189DPPC   C30 9430   8.295   4.277   2.917
  189DPPC   C31 9431   8.190   4.194   2.993
  189DPPC   C32 9432   8.872   4.360   1.426
  189DPPC   O33 9433   8.957   4.446   1.502
  189DPPC   C34 9434   8.974   4.574   1.461
  189DPPC   O35 9435   8.945   4.610   1.346
  189DPPC   C36 9436   9.055   4.666   1.553
  189DPPC   C37 9437   8.963   4.738   1.652
  189DPPC   C38 9438   8.919   4.657   1.775
  189DPPC   C39 9439   8.796   4.726   1.833
  189DPPC   C40 9440   8.773   4.697   1.981
  189DPPC   C41 9441   8.653   4.767   2.046
  189DPPC   C42 9442   8.682   4.760   2.195
  189DPPC   C43 9443   8.663   4.616   2.241
  189DPPC   C44 9444   8.640   4.615   2.392
  189DPPC   C45 9445   8.612   4.478   2.455
  189DPPC   C46 9446   8.565   4.512   2.597
  189DPPC   C47 9447   8.669   4.606   2.659
  189DPPC   C48 9448   8.606   4.664   2.785
  189DPPC   C49 9449   8.539   4.554   2.867
  189DPPC   C50 9450   8.477   4.624   2.988
  190DPPC    C1 9451   4.987   7.180   1.552
  190DPPC    C2 9452   4.754   7.247   1.511
  190DPPC    C3 9453   4.857   7.283   1.725
  190DPPC    N4 9454   4.880   7.276   1.580
  190DPPC    C5 9455   4.918   7.416   1.551
  190DPPC    C6 9456   5.049   7.467   1.611
  190DPPC    O7 9457   5.027   7.561   1.716
  190DPPC    P8 9458   5.173   7.615   1.755
  190DPPC    O9 9459   5.132   7.704   1.865
  190DPPC   O10 9460   5.250   7.653   1.634
  190DPPC   O11 9461   5.214   7.472   1.815
  190DPPC   C12 9462   5.153   7.460   1.943
  190DPPC   C13 9463   5.136   7.311   1.974
  190DPPC   O14 9464   5.019   7.265   2.044
  190DPPC   C15 9465   4.990   7.134   2.025
  190DPPC   O16 9466   5.040   7.056   1.944
  190DPPC   C17 9467   4.876   7.090   2.117
  190DPPC   C18 9468   4.934   6.997   2.223
  190DPPC   C19 9469   5.048   7.065   2.299
  190DPPC   C20 9470   5.133   6.949   2.349
  190DPPC   C21 9471   5.285   6.970   2.351
  190DPPC   C22 9472   5.344   6.891   2.468
  190DPPC   C23 9473   5.492   6.926   2.490
  190DPPC   C24 9474   5.527   6.882   2.632
  190DPPC   C25 9475   5.522   6.729   2.641
  190DPPC   C26 9476   5.620   6.652   2.552
  190DPPC   C27 9477   5.575   6.506   2.556
  190DPPC   C28 9478   5.606   6.444   2.692
  190DPPC   C29 9479   5.592   6.291   2.694
  190DPPC   C30 9480   5.652   6.242   2.826
  190DPPC   C31 9481   5.611   6.099   2.859
  190DPPC   C32 9482   5.273   7.275   2.031
  190DPPC   O33 9483   5.316   7.343   2.150
  190DPPC   C34 9484   5.448   7.308   2.156
  190DPPC   O35 9485   5.477   7.197   2.114
  190DPPC   C36 9486   5.544   7.419   2.200
  190DPPC   C37 9487   5.541   7.435   2.352
  190DPPC   C38 9488   5.609   7.565   2.395
  190DPPC   C39 9489   5.760   7.546   2.410
  190DPPC   C40 9490   5.824   7.663   2.485
  190DPPC   C41 9491   5.800   7.792   2.407
  190DPPC   C42 9492   5.845   7.916   2.485
  190DPPC   C43 9493   5.760   7.928   2.612
  190DPPC   C44 9494   5.811   8.034   2.710
  190DPPC   C45 9495   5.729   8.053   2.838
  190DPPC   C46 9496   5.795   8.153   2.933
  190DPPC   C47 9497   5.718   8.178   3.063
  190DPPC   C48 9498   5.797   8.268   3.158
  190DPPC   C49 9499   5.721   8.282   3.290
  190DPPC   C50 9500   5.798   8.328   3.414
  191DPPC    C1 9501   0.938   2.269   1.176
  191DPPC    C2 9502   1.123   2.149   1.070
  191DPPC    C3 9503   1.081   2.130   1.308
  191DPPC    N4 9504   1.020   2.147   1.175
  191DPPC    C5 9505   0.940   2.032   1.130
  191DPPC    C6 9506   0.847   1.962   1.229
  191DPPC    O7 9507   0.749   2.043   1.294
  191DPPC    P8 9508   0.654   1.954   1.389
  191DPPC    O9 9509   0.758   1.874   1.459
  191DPPC   O10 9510   0.574   1.904   1.276
  191DPPC   O11 9511   0.588   2.086   1.452
  191DPPC   C12 9512   0.649   2.090   1.581
  191DPPC   C13 9513   0.663   2.232   1.635
  191DPPC   O14 9514   0.744   2.258   1.751
  191DPPC   C15 9515   0.872   2.215   1.768
  191DPPC   O16 9516   0.943   2.198   1.669
  191DPPC   C17 9517   0.932   2.227   1.909
  191DPPC   C18 9518   0.942   2.089   1.973
  191DPPC   C19 9519   0.994   2.114   2.115
  191DPPC   C20 9520   1.124   2.195   2.122
  191DPPC   C21 9521   1.179   2.153   2.259
  191DPPC   C22 9522   1.238   2.270   2.336
  191DPPC   C23 9523   1.248   2.233   2.484
  191DPPC   C24 9524   1.308   2.346   2.567
  191DPPC   C25 9525   1.271   2.320   2.713
  191DPPC   C26 9526   1.120   2.305   2.736
  191DPPC   C27 9527   1.089   2.254   2.877
  191DPPC   C28 9528   1.174   2.130   2.906
  191DPPC   C29 9529   1.128   2.077   3.042
  191DPPC   C30 9530   1.192   1.945   3.088
  191DPPC   C31 9531   1.138   1.896   3.222
  191DPPC   C32 9532   0.516   2.271   1.654
  191DPPC   O33 9533   0.440   2.190   1.744
  191DPPC   C34 9534   0.304   2.193   1.737
  191DPPC   O35 9535   0.243   2.261   1.655
  191DPPC   C36 9536   0.236   2.081   1.816
  191DPPC   C37 9537   0.160   2.124   1.941
  191DPPC   C38 9538   0.122   1.996   2.016
  191DPPC   C39 9539   0.082   2.034   2.159
  191DPPC   C40 9540  -0.044   2.120   2.156
  191DPPC   C41 9541  -0.091   2.117   2.301
  191DPPC   C42 9542  -0.111   1.969   2.332
  191DPPC   C43 9543  -0.132   1.945   2.482
  191DPPC   C44 9544  -0.244   2.028   2.544
  191DPPC   C45 9545  -0.278   1.937   2.662
  191DPPC   C46 9546  -0.393   2.006   2.736
  191DPPC   C47 9547  -0.363   2.126   2.826
  191DPPC   C48 9548  -0.490   2.172   2.898
  191DPPC   C49 9549  -0.542   2.047   2.969
  191DPPC   C50 9550  -0.672   2.046   3.049
  192DPPC    C1 9551   4.753   1.071   1.562
  192DPPC    C2 9552   4.743   0.832   1.569
  192DPPC    C3 9553   4.955   0.940   1.546
  192DPPC    N4 9554   4.822   0.950   1.608
  192DPPC    C5 9555   4.836   0.936   1.754
  192DPPC    C6 9556   4.889   1.040   1.852
  192DPPC    O7 9557   4.823   1.166   1.840
  192DPPC    P8 9558   4.909   1.274   1.923
  192DPPC    O9 9559   4.847   1.403   1.887
  192DPPC   O10 9560   5.049   1.241   1.889
  192DPPC   O11 9561   4.872   1.249   2.077
  192DPPC   C12 9562   4.756   1.314   2.129
  192DPPC   C13 9563   4.762   1.306   2.281
  192DPPC   O14 9564   4.641   1.351   2.343
  192DPPC   C15 9565   4.534   1.268   2.329
  192DPPC   O16 9566   4.533   1.164   2.262
  192DPPC   C17 9567   4.402   1.321   2.386
  192DPPC   C18 9568   4.418   1.445   2.474
  192DPPC   C19 9569   4.288   1.497   2.535
  192DPPC   C20 9570   4.238   1.418   2.656
  192DPPC   C21 9571   4.118   1.484   2.725
  192DPPC   C22 9572   4.064   1.387   2.830
  192DPPC   C23 9573   4.147   1.377   2.958
  192DPPC   C24 9574   4.083   1.286   3.062
  192DPPC   C25 9575   4.181   1.267   3.177
  192DPPC   C26 9576   4.316   1.239   3.109
  192DPPC   C27 9577   4.392   1.152   3.210
  192DPPC   C28 9578   4.488   1.071   3.123
  192DPPC   C29 9579   4.564   0.971   3.211
  192DPPC   C30 9580   4.654   0.888   3.118
  192DPPC   C31 9581   4.789   0.951   3.085
  192DPPC   C32 9582   4.892   1.372   2.329
  192DPPC   O33 9583   4.931   1.326   2.458
  192DPPC   C34 9584   5.059   1.353   2.496
  192DPPC   O35 9585   5.151   1.343   2.415
  192DPPC   C36 9586   5.075   1.324   2.646
  192DPPC   C37 9587   5.133   1.183   2.655
  192DPPC   C38 9588   5.148   1.173   2.807
  192DPPC   C39 9589   5.113   1.031   2.852
  192DPPC   C40 9590   5.181   1.010   2.988
  192DPPC   C41 9591   5.217   0.866   3.022
  192DPPC   C42 9592   5.274   0.859   3.164
  192DPPC   C43 9593   5.313   0.718   3.208
  192DPPC   C44 9594   5.352   0.698   3.355
  192DPPC   C45 9595   5.339   0.552   3.398
  192DPPC   C46 9596   5.417   0.470   3.294
  192DPPC   C47 9597   5.416   0.324   3.339
  192DPPC   C48 9598   5.496   0.242   3.239
  192DPPC   C49 9599   5.530   0.102   3.290
  192DPPC   C50 9600   5.409   0.026   3.344
  193DPPC    C1 9601   5.376   5.728   5.923
  193DPPC    C2 9602   5.241   5.540   5.918
  193DPPC    C3 9603   5.199   5.729   5.784
  193DPPC    N4 9604   5.305   5.639   5.831
  193DPPC    C5 9605   5.398   5.580   5.733
  193DPPC    C6 9606   5.351   5.454   5.661
  193DPPC    O7 9607   5.419   5.436   5.536
  193DPPC    P8 9608   5.388   5.280   5.507
  193DPPC    O9 9609   5.354   5.216   5.636
  193DPPC   O10 9610   5.495   5.221   5.424
  193DPPC   O11 9611   5.260   5.292   5.410
  193DPPC   C12 9612   5.284   5.255   5.274
  193DPPC   C13 9613   5.171   5.301   5.181
  193DPPC   O14 9614   5.162   5.206   5.074
  193DPPC   C15 9615   5.077   5.100   5.087
  193DPPC   O16 9616   4.988   5.107   5.171
  193DPPC   C17 9617   5.073   5.008   4.965
  193DPPC   C18 9618   5.213   4.992   4.906
  193DPPC   C19 9619   5.207   4.877   4.807
  193DPPC   C20 9620   5.307   4.898   4.693
  193DPPC   C21 9621   5.305   4.773   4.604
  193DPPC   C22 9622   5.421   4.785   4.505
  193DPPC   C23 9623   5.423   4.657   4.420
  193DPPC   C24 9624   5.508   4.702   4.301
  193DPPC   C25 9625   5.522   4.590   4.197
  193DPPC   C26 9626   5.582   4.654   4.071
  193DPPC   C27 9627   5.725   4.701   4.098
  193DPPC   C28 9628   5.778   4.784   3.980
  193DPPC   C29 9629   5.782   4.702   3.851
  193DPPC   C30 9630   5.854   4.786   3.746
  193DPPC   C31 9631   5.762   4.889   3.680
  193DPPC   C32 9632   5.192   5.447   5.141
  193DPPC   O33 9633   5.308   5.472   5.061
  193DPPC   C34 9634   5.261   5.495   4.936
  193DPPC   O35 9635   5.152   5.546   4.914
  193DPPC   C36 9636   5.373   5.487   4.831
  193DPPC   C37 9637   5.412   5.340   4.814
  193DPPC   C38 9638   5.554   5.330   4.757
  193DPPC   C39 9639   5.559   5.181   4.726
  193DPPC   C40 9640   5.697   5.133   4.679
  193DPPC   C41 9641   5.709   4.980   4.672
  193DPPC   C42 9642   5.838   4.932   4.606
  193DPPC   C43 9643   5.873   4.788   4.644
  193DPPC   C44 9644   5.991   4.753   4.553
  193DPPC   C45 9645   5.958   4.782   4.406
  193DPPC   C46 9646   6.068   4.731   4.312
  193DPPC   C47 9647   6.085   4.579   4.325
  193DPPC   C48 9648   6.200   4.530   4.238
  193DPPC   C49 9649   6.160   4.538   4.091
  193DPPC   C50 9650   6.271   4.464   4.015
  194DPPC    C1 9651   7.948   5.515   0.795
  194DPPC    C2 9652   7.785   5.689   0.834
  194DPPC    C3 9653   7.772   5.541   0.645
  194DPPC    N4 9654   7.806   5.551   0.788
  194DPPC    C5 9655   7.705   5.467   0.854
  194DPPC    C6 9656   7.714   5.314   0.856
  194DPPC    O7 9657   7.804   5.271   0.958
  194DPPC    P8 9658   7.801   5.111   0.974
  194DPPC    O9 9659   7.827   5.068   0.834
  194DPPC   O10 9660   7.668   5.083   1.033
  194DPPC   O11 9661   7.923   5.082   1.075
  194DPPC   C12 9662   7.891   5.137   1.203
  194DPPC   C13 9663   7.968   5.260   1.252
  194DPPC   O14 9664   8.059   5.229   1.358
  194DPPC   C15 9665   8.143   5.314   1.422
  194DPPC   O16 9666   8.156   5.428   1.378
  194DPPC   C17 9667   8.234   5.267   1.536
  194DPPC   C18 9668   8.179   5.160   1.630
  194DPPC   C19 9669   8.292   5.063   1.665
  194DPPC   C20 9670   8.349   5.047   1.806
  194DPPC   C21 9671   8.242   4.976   1.888
  194DPPC   C22 9672   8.283   4.959   2.034
  194DPPC   C23 9673   8.218   4.836   2.098
  194DPPC   C24 9674   8.186   4.873   2.242
  194DPPC   C25 9675   8.104   4.762   2.307
  194DPPC   C26 9676   8.107   4.790   2.458
  194DPPC   C27 9677   8.246   4.776   2.520
  194DPPC   C28 9678   8.226   4.779   2.671
  194DPPC   C29 9679   8.135   4.886   2.733
  194DPPC   C30 9680   8.152   4.897   2.885
  194DPPC   C31 9681   8.070   5.018   2.931
  194DPPC   C32 9682   7.857   5.353   1.300
  194DPPC   O33 9683   7.773   5.313   1.409
  194DPPC   C34 9684   7.660   5.386   1.426
  194DPPC   O35 9685   7.641   5.480   1.348
  194DPPC   C36 9686   7.578   5.350   1.549
  194DPPC   C37 9687   7.442   5.419   1.551
  194DPPC   C38 9688   7.368   5.398   1.683
  194DPPC   C39 9689   7.239   5.480   1.686
  194DPPC   C40 9690   7.144   5.455   1.803
  194DPPC   C41 9691   7.079   5.316   1.800
  194DPPC   C42 9692   7.001   5.298   1.930
  194DPPC   C43 9693   7.095   5.305   2.051
  194DPPC   C44 9694   7.022   5.309   2.186
  194DPPC   C45 9695   7.133   5.343   2.285
  194DPPC   C46 9696   7.086   5.317   2.428
  194DPPC   C47 9697   7.185   5.352   2.539
  194DPPC   C48 9698   7.120   5.316   2.672
  194DPPC   C49 9699   7.221   5.344   2.783
  194DPPC   C50 9700   7.346   5.259   2.761
  195DPPC    C1 9701   2.454   3.557   5.331
  195DPPC    C2 9702   2.244   3.618   5.276
  195DPPC    C3 9703   2.376   3.571   5.095
  195DPPC    N4 9704   2.350   3.525   5.232
  195DPPC    C5 9705   2.294   3.390   5.247
  195DPPC    C6 9706   2.355   3.271   5.173
  195DPPC    O7 9707   2.480   3.228   5.228
  195DPPC    P8 9708   2.524   3.082   5.176
  195DPPC    O9 9709   2.489   3.083   5.032
  195DPPC   O10 9710   2.470   2.984   5.274
  195DPPC   O11 9711   2.684   3.094   5.183
  195DPPC   C12 9712   2.715   3.201   5.094
  195DPPC   C13 9713   2.787   3.330   5.137
  195DPPC   O14 9714   2.767   3.428   5.034
  195DPPC   C15 9715   2.798   3.560   5.049
  195DPPC   O16 9716   2.780   3.605   5.162
  195DPPC   C17 9717   2.796   3.649   4.925
  195DPPC   C18 9718   2.903   3.607   4.825
  195DPPC   C19 9719   2.889   3.698   4.703
  195DPPC   C20 9720   2.953   3.636   4.579
  195DPPC   C21 9721   2.871   3.512   4.543
  195DPPC   C22 9722   2.902   3.456   4.405
  195DPPC   C23 9723   2.854   3.566   4.310
  195DPPC   C24 9724   2.884   3.546   4.161
  195DPPC   C25 9725   2.838   3.412   4.103
  195DPPC   C26 9726   2.873   3.393   3.955
  195DPPC   C27 9727   3.024   3.409   3.938
  195DPPC   C28 9728   3.046   3.417   3.787
  195DPPC   C29 9729   3.016   3.279   3.727
  195DPPC   C30 9730   3.110   3.184   3.801
  195DPPC   C31 9731   3.102   3.041   3.747
  195DPPC   C32 9732   2.933   3.292   5.161
  195DPPC   O33 9733   2.986   3.200   5.065
  195DPPC   C34 9734   3.117   3.168   5.083
  195DPPC   O35 9735   3.176   3.215   5.179
  195DPPC   C36 9736   3.184   3.070   4.987
  195DPPC   C37 9737   3.251   3.156   4.880
  195DPPC   C38 9738   3.269   3.074   4.751
  195DPPC   C39 9739   3.134   3.063   4.680
  195DPPC   C40 9740   3.168   3.007   4.541
  195DPPC   C41 9741   3.063   3.040   4.434
  195DPPC   C42 9742   3.125   2.998   4.301
  195DPPC   C43 9743   3.031   3.015   4.181
  195DPPC   C44 9744   2.889   2.961   4.194
  195DPPC   C45 9745   2.812   2.979   4.063
  195DPPC   C46 9746   2.664   2.942   4.078
  195DPPC   C47 9747   2.565   2.996   3.975
  195DPPC   C48 9748   2.565   3.148   3.957
  195DPPC   C49 9749   2.532   3.201   3.818
  195DPPC   C50 9750   2.534   3.352   3.843
  196DPPC    C1 9751   0.588   0.132   1.382
  196DPPC    C2 9752   0.449   0.286   1.283
  196DPPC    C3 9753   0.418   0.242   1.518
  196DPPC    N4 9754   0.517   0.257   1.410
  196DPPC    C5 9755   0.620   0.361   1.424
  196DPPC    C6 9756   0.581   0.509   1.430
  196DPPC    O7 9757   0.468   0.552   1.507
  196DPPC    P8 9758   0.466   0.713   1.502
  196DPPC    O9 9759   0.331   0.764   1.469
  196DPPC   O10 9760   0.581   0.760   1.420
  196DPPC   O11 9761   0.528   0.752   1.645
  196DPPC   C12 9762   0.415   0.737   1.730
  196DPPC   C13 9763   0.450   0.711   1.877
  196DPPC   O14 9764   0.338   0.667   1.955
  196DPPC   C15 9765   0.292   0.541   1.933
  196DPPC   O16 9766   0.357   0.459   1.869
  196DPPC   C17 9767   0.156   0.496   1.988
  196DPPC   C18 9768   0.166   0.477   2.140
  196DPPC   C19 9769   0.043   0.425   2.215
  196DPPC   C20 9770   0.086   0.422   2.362
  196DPPC   C21 9771  -0.011   0.360   2.462
  196DPPC   C22 9772   0.090   0.293   2.556
  196DPPC   C23 9773   0.007   0.249   2.676
  196DPPC   C24 9774   0.099   0.195   2.785
  196DPPC   C25 9775   0.006   0.135   2.891
  196DPPC   C26 9776   0.075   0.037   2.986
  196DPPC   C27 9777   0.108  -0.099   2.923
  196DPPC   C28 9778   0.161  -0.197   3.028
  196DPPC   C29 9779   0.207  -0.332   2.971
  196DPPC   C30 9780   0.222  -0.462   3.050
  196DPPC   C31 9781   0.253  -0.579   2.957
  196DPPC   C32 9782   0.536   0.829   1.922
  196DPPC   O33 9783   0.472   0.953   1.889
  196DPPC   C34 9784   0.540   1.071   1.887
  196DPPC   O35 9785   0.657   1.063   1.922
  196DPPC   C36 9786   0.460   1.196   1.851
  196DPPC   C37 9787   0.389   1.274   1.962
  196DPPC   C38 9788   0.292   1.377   1.905
  196DPPC   C39 9789   0.214   1.438   2.022
  196DPPC   C40 9790   0.144   1.331   2.105
  196DPPC   C41 9791   0.067   1.398   2.219
  196DPPC   C42 9792   0.002   1.292   2.308
  196DPPC   C43 9793  -0.071   1.361   2.424
  196DPPC   C44 9794  -0.128   1.256   2.520
  196DPPC   C45 9795  -0.154   1.305   2.663
  196DPPC   C46 9796  -0.228   1.205   2.752
  196DPPC   C47 9797  -0.274   1.268   2.884
  196DPPC   C48 9798  -0.338   1.164   2.976
  196DPPC   C49 9799  -0.239   1.116   3.082
  196DPPC   C50 9800  -0.307   1.045   3.199
  197DPPC    C1 9801   8.773   2.052   5.533
  197DPPC    C2 9802   8.822   1.816   5.549
  197DPPC    C3 9803   8.662   1.902   5.399
  197DPPC    N4 9804   8.794   1.928   5.457
  197DPPC    C5 9805   8.908   1.943   5.366
  197DPPC    C6 9806   8.948   1.824   5.277
  197DPPC    O7 9807   8.848   1.769   5.191
  197DPPC    P8 9808   8.919   1.675   5.081
  197DPPC    O9 9809   8.820   1.584   5.018
  197DPPC   O10 9810   9.053   1.633   5.129
  197DPPC   O11 9811   8.948   1.795   4.979
  197DPPC   C12 9812   8.822   1.843   4.931
  197DPPC   C13 9813   8.823   1.988   4.880
  197DPPC   O14 9814   8.696   2.044   4.845
  197DPPC   C15 9815   8.678   2.177   4.868
  197DPPC   O16 9816   8.731   2.226   4.967
  197DPPC   C17 9817   8.566   2.247   4.792
  197DPPC   C18 9818   8.615   2.281   4.651
  197DPPC   C19 9819   8.490   2.297   4.564
  197DPPC   C20 9820   8.534   2.352   4.429
  197DPPC   C21 9821   8.416   2.383   4.337
  197DPPC   C22 9822   8.457   2.406   4.191
  197DPPC   C23 9823   8.332   2.446   4.113
  197DPPC   C24 9824   8.238   2.532   4.198
  197DPPC   C25 9825   8.125   2.579   4.106
  197DPPC   C26 9826   8.092   2.453   4.024
  197DPPC   C27 9827   7.974   2.497   3.937
  197DPPC   C28 9828   7.927   2.369   3.868
  197DPPC   C29 9829   7.801   2.412   3.793
  197DPPC   C30 9830   7.729   2.285   3.746
  197DPPC   C31 9831   7.810   2.187   3.661
  197DPPC   C32 9832   8.922   1.977   4.764
  197DPPC   O33 9833   8.957   2.098   4.697
  197DPPC   C34 9834   9.055   2.093   4.602
  197DPPC   O35 9835   9.138   2.002   4.598
  197DPPC   C36 9836   9.071   2.217   4.515
  197DPPC   C37 9837   8.949   2.234   4.423
  197DPPC   C38 9838   8.958   2.340   4.313
  197DPPC   C39 9839   8.843   2.348   4.213
  197DPPC   C40 9840   8.874   2.487   4.158
  197DPPC   C41 9841   8.844   2.601   4.255
  197DPPC   C42 9842   8.893   2.738   4.207
  197DPPC   C43 9843   8.857   2.848   4.306
  197DPPC   C44 9844   8.937   2.977   4.281
  197DPPC   C45 9845   8.910   3.079   4.391
  197DPPC   C46 9846   9.024   3.180   4.408
  197DPPC   C47 9847   8.959   3.279   4.504
  197DPPC   C48 9848   9.050   3.395   4.548
  197DPPC   C49 9849   8.991   3.478   4.662
  197DPPC   C50 9850   8.973   3.394   4.788
  198DPPC    C1 9851   3.901   4.845   5.119
  198DPPC    C2 9852   3.691   4.782   5.199
  198DPPC    C3 9853   3.875   4.773   5.347
  198DPPC    N4 9854   3.815   4.851   5.238
  198DPPC    C5 9855   3.785   4.988   5.283
  198DPPC    C6 9856   3.888   5.070   5.362
  198DPPC    O7 9857   3.989   5.122   5.276
  198DPPC    P8 9858   4.126   5.116   5.362
  198DPPC    O9 9859   4.151   4.971   5.341
  198DPPC   O10 9860   4.110   5.182   5.493
  198DPPC   O11 9861   4.212   5.201   5.256
  198DPPC   C12 9862   4.264   5.112   5.157
  198DPPC   C13 9863   4.339   5.173   5.038
  198DPPC   O14 9864   4.462   5.245   5.050
  198DPPC   C15 9865   4.569   5.162   5.067
  198DPPC   O16 9866   4.564   5.049   5.114
  198DPPC   C17 9867   4.710   5.215   5.041
  198DPPC   C18 9868   4.712   5.287   4.906
  198DPPC   C19 9869   4.841   5.336   4.840
  198DPPC   C20 9870   4.817   5.384   4.696
  198DPPC   C21 9871   4.952   5.413   4.631
  198DPPC   C22 9872   5.027   5.284   4.598
  198DPPC   C23 9873   5.141   5.326   4.505
  198DPPC   C24 9874   5.219   5.215   4.435
  198DPPC   C25 9875   5.363   5.255   4.402
  198DPPC   C26 9876   5.429   5.148   4.315
  198DPPC   C27 9877   5.574   5.177   4.277
  198DPPC   C28 9878   5.607   5.100   4.149
  198DPPC   C29 9879   5.749   5.137   4.108
  198DPPC   C30 9880   5.843   5.104   4.224
  198DPPC   C31 9881   5.996   5.103   4.215
  198DPPC   C32 9882   4.226   5.243   4.962
  198DPPC   O33 9883   4.122   5.158   4.915
  198DPPC   C34 9884   4.018   5.221   4.853
  198DPPC   O35 9885   4.021   5.341   4.826
  198DPPC   C36 9886   3.891   5.144   4.819
  198DPPC   C37 9887   3.949   5.011   4.770
  198DPPC   C38 9888   4.009   5.011   4.629
  198DPPC   C39 9889   4.071   4.874   4.603
  198DPPC   C40 9890   4.130   4.874   4.462
  198DPPC   C41 9891   4.187   4.737   4.427
  198DPPC   C42 9892   4.295   4.753   4.320
  198DPPC   C43 9893   4.392   4.636   4.307
  198DPPC   C44 9894   4.493   4.660   4.195
  198DPPC   C45 9895   4.611   4.563   4.184
  198DPPC   C46 9896   4.711   4.596   4.073
  198DPPC   C47 9897   4.828   4.498   4.064
  198DPPC   C48 9898   4.789   4.353   4.037
  198DPPC   C49 9899   4.910   4.267   4.000
  198DPPC   C50 9900   4.859   4.131   3.952
  199DPPC    C1 9901   6.889   6.308   5.161
  199DPPC    C2 9902   6.842   6.531   5.096
  199DPPC    C3 9903   6.755   6.357   4.973
  199DPPC    N4 9904   6.783   6.397   5.112
  199DPPC    C5 9905   6.666   6.387   5.201
  199DPPC    C6 9906   6.557   6.493   5.190
  199DPPC    O7 9907   6.473   6.468   5.077
  199DPPC    P8 9908   6.351   6.573   5.074
  199DPPC    O9 9909   6.424   6.702   5.062
  199DPPC   O10 9910   6.258   6.535   5.182
  199DPPC   O11 9911   6.284   6.518   4.939
  199DPPC   C12 9912   6.383   6.461   4.852
  199DPPC   C13 9913   6.351   6.484   4.704
  199DPPC   O14 9914   6.440   6.424   4.609
  199DPPC   C15 9915   6.424   6.293   4.577
  199DPPC   O16 9916   6.354   6.225   4.652
  199DPPC   C17 9917   6.491   6.233   4.454
  199DPPC   C18 9918   6.447   6.284   4.316
  199DPPC   C19 9919   6.534   6.209   4.215
  199DPPC   C20 9920   6.502   6.274   4.081
  199DPPC   C21 9921   6.584   6.191   3.982
  199DPPC   C22 9922   6.579   6.251   3.842
  199DPPC   C23 9923   6.678   6.367   3.833
  199DPPC   C24 9924   6.672   6.415   3.688
  199DPPC   C25 9925   6.760   6.341   3.589
  199DPPC   C26 9926   6.759   6.422   3.459
  199DPPC   C27 9927   6.814   6.563   3.483
  199DPPC   C28 9928   6.814   6.644   3.353
  199DPPC   C29 9929   6.897   6.771   3.370
  199DPPC   C30 9930   6.927   6.852   3.243
  199DPPC   C31 9931   7.001   6.980   3.280
  199DPPC   C32 9932   6.336   6.636   4.699
  199DPPC   O33 9933   6.441   6.723   4.743
  199DPPC   C34 9934   6.407   6.855   4.736
  199DPPC   O35 9935   6.293   6.888   4.707
  199DPPC   C36 9936   6.512   6.952   4.789
  199DPPC   C37 9937   6.512   7.082   4.708
  199DPPC   C38 9938   6.427   7.193   4.769
  199DPPC   C39 9939   6.399   7.312   4.676
  199DPPC   C40 9940   6.332   7.264   4.548
  199DPPC   C41 9941   6.313   7.386   4.458
  199DPPC   C42 9942   6.451   7.442   4.422
  199DPPC   C43 9943   6.527   7.356   4.321
  199DPPC   C44 9944   6.659   7.427   4.292
  199DPPC   C45 9945   6.647   7.567   4.231
  199DPPC   C46 9946   6.783   7.609   4.176
  199DPPC   C47 9947   6.841   7.510   4.074
  199DPPC   C48 9948   6.981   7.552   4.027
  199DPPC   C49 9949   7.071   7.563   4.150
  199DPPC   C50 9950   7.216   7.601   4.116
  200DPPC    C1 9951   2.587   7.569   4.886
  200DPPC    C2 9952   2.669   7.437   5.079
  200DPPC    C3 9953   2.719   7.657   5.043
  200DPPC    N4 9954   2.608   7.562   5.031
  200DPPC    C5 9955   2.504   7.625   5.115
  200DPPC    C6 9956   2.363   7.569   5.102
  200DPPC    O7 9957   2.342   7.429   5.125
  200DPPC    P8 9958   2.192   7.377   5.103
  200DPPC    O9 9959   2.096   7.484   5.137
  200DPPC   O10 9960   2.199   7.253   5.183
  200DPPC   O11 9961   2.200   7.360   4.943
  200DPPC   C12 9962   2.281   7.243   4.925
  200DPPC   C13 9963   2.262   7.184   4.785
  200DPPC   O14 9964   2.344   7.231   4.676
  200DPPC   C15 9965   2.479   7.215   4.677
  200DPPC   O16 9966   2.549   7.209   4.778
  200DPPC   C17 9967   2.530   7.240   4.535
  200DPPC   C18 9968   2.626   7.128   4.494
  200DPPC   C19 9969   2.675   7.167   4.354
  200DPPC   C20 9970   2.784   7.071   4.307
  200DPPC   C21 9971   2.835   7.092   4.165
  200DPPC   C22 9972   2.729   7.079   4.054
  200DPPC   C23 9973   2.804   7.085   3.921
  200DPPC   C24 9974   2.719   7.082   3.793
  200DPPC   C25 9975   2.795   7.095   3.662
  200DPPC   C26 9976   2.870   7.227   3.644
  200DPPC   C27 9977   2.945   7.237   3.510
  200DPPC   C28 9978   3.044   7.353   3.503
  200DPPC   C29 9979   3.111   7.354   3.366
  200DPPC   C30 9980   3.192   7.225   3.348
  200DPPC   C31 9981   3.290   7.214   3.231
  200DPPC   C32 9982   2.110   7.172   4.777
  200DPPC   O33 9983   2.062   7.091   4.670
  200DPPC   C34 9984   1.927   7.079   4.678
  200DPPC   O35 9985   1.860   7.095   4.780
  200DPPC   C36 9986   1.872   7.006   4.555
  200DPPC   C37 9987   1.832   7.091   4.435
  200DPPC   C38 9988   1.795   7.001   4.316
  200DPPC   C39 9989   1.923   6.947   4.252
  200DPPC   C40 9990   1.904   6.835   4.149
  200DPPC   C41 9991   2.032   6.785   4.082
  200DPPC   C42 9992   1.987   6.678   3.983
  200DPPC   C43 9993   1.868   6.732   3.903
  200DPPC   C44 9994   1.796   6.621   3.827
  200DPPC   C45 9995   1.648   6.656   3.806
  200DPPC   C46 9996   1.619   6.791   3.740
  200DPPC   C47 9997   1.475   6.804   3.689
  200DPPC   C48 9998   1.444   6.951   3.663
  200DPPC   C49 9999   1.302   6.987   3.618
  200DPPC   C5010000   1.283   7.138   3.600
  201DPPC    C110001   7.738   1.506   5.513
  201DPPC    C210002   7.748   1.573   5.746
  201DPPC    C310003   7.772   1.349   5.692
  201DPPC    N410004   7.803   1.484   5.643
  201DPPC    C510005   7.949   1.496   5.656
  201DPPC    C610006   8.023   1.607   5.580
  201DPPC    O710007   7.978   1.731   5.636
  201DPPC    P810008   8.031   1.854   5.547
  201DPPC    O910009   8.173   1.821   5.520
  201DPPC   O1010010   7.997   1.991   5.591
  201DPPC   O1110011   7.944   1.819   5.416
  201DPPC   C1210012   8.014   1.878   5.306
  201DPPC   C1310013   7.939   1.905   5.175
  201DPPC   O1410014   7.840   2.009   5.172
  201DPPC   C1510015   7.879   2.139   5.185
  201DPPC   O1610016   7.971   2.168   5.260
  201DPPC   C1710017   7.787   2.239   5.115
  201DPPC   C1810018   7.809   2.238   4.963
  201DPPC   C1910019   7.727   2.350   4.898
  201DPPC   C2010020   7.579   2.314   4.913
  201DPPC   C2110021   7.489   2.420   4.849
  201DPPC   C2210022   7.345   2.374   4.828
  201DPPC   C2310023   7.264   2.486   4.764
  201DPPC   C2410024   7.302   2.500   4.616
  201DPPC   C2510025   7.210   2.603   4.550
  201DPPC   C2610026   7.233   2.604   4.399
  201DPPC   C2710027   7.117   2.667   4.321
  201DPPC   C2810028   7.120   2.627   4.173
  201DPPC   C2910029   6.994   2.648   4.089
  201DPPC   C3010030   7.002   2.591   3.947
  201DPPC   C3110031   6.885   2.494   3.930
  201DPPC   C3210032   7.885   1.765   5.143
  201DPPC   O3310033   7.995   1.676   5.124
  201DPPC   C3410034   7.961   1.547   5.147
  201DPPC   O3510035   7.847   1.520   5.186
  201DPPC   C3610036   8.069   1.443   5.118
  201DPPC   C3710037   8.125   1.459   4.976
  201DPPC   C3810038   8.205   1.338   4.928
  201DPPC   C3910039   8.264   1.359   4.788
  201DPPC   C4010040   8.153   1.408   4.696
  201DPPC   C4110041   8.204   1.457   4.560
  201DPPC   C4210042   8.090   1.542   4.502
  201DPPC   C4310043   8.113   1.615   4.370
  201DPPC   C4410044   7.981   1.677   4.324
  201DPPC   C4510045   7.863   1.582   4.301
  201DPPC   C4610046   7.740   1.660   4.255
  201DPPC   C4710047   7.614   1.573   4.252
  201DPPC   C4810048   7.497   1.668   4.225
  201DPPC   C4910049   7.368   1.604   4.276
  201DPPC   C5010050   7.379   1.572   4.425
  202DPPC    C110051   0.614   2.600   5.428
  202DPPC    C210052   0.829   2.614   5.527
  202DPPC    C310053   0.627   2.685   5.630
  202DPPC    N410054   0.689   2.577   5.552
  202DPPC    C510055   0.667   2.447   5.617
  202DPPC    C610056   0.646   2.319   5.536
  202DPPC    O710057   0.518   2.312   5.473
  202DPPC    P810058   0.489   2.173   5.398
  202DPPC    O910059   0.345   2.141   5.404
  202DPPC   O1010060   0.602   2.093   5.451
  202DPPC   O1110061   0.534   2.231   5.254
  202DPPC   C1210062   0.433   2.299   5.179
  202DPPC   C1310063   0.492   2.404   5.085
  202DPPC   O1410064   0.391   2.446   4.993
  202DPPC   C1510065   0.387   2.573   4.945
  202DPPC   O1610066   0.379   2.666   5.026
  202DPPC   C1710067   0.332   2.592   4.804
  202DPPC   C1810068   0.295   2.731   4.751
  202DPPC   C1910069   0.269   2.725   4.600
  202DPPC   C2010070   0.210   2.864   4.576
  202DPPC   C2110071   0.153   2.889   4.436
  202DPPC   C2210072   0.263   2.888   4.329
  202DPPC   C2310073   0.197   2.928   4.197
  202DPPC   C2410074   0.292   2.887   4.085
  202DPPC   C2510075   0.232   2.896   3.944
  202DPPC   C2610076   0.328   2.831   3.845
  202DPPC   C2710077   0.285   2.850   3.699
  202DPPC   C2810078   0.398   2.797   3.611
  202DPPC   C2910079   0.375   2.822   3.461
  202DPPC   C3010080   0.500   2.801   3.376
  202DPPC   C3110081   0.494   2.870   3.240
  202DPPC   C3210082   0.605   2.320   5.025
  202DPPC   O3310083   0.660   2.351   4.896
  202DPPC   C3410084   0.747   2.262   4.842
  202DPPC   O3510085   0.764   2.156   4.901
  202DPPC   C3610086   0.778   2.279   4.693
  202DPPC   C3710087   0.728   2.415   4.646
  202DPPC   C3810088   0.722   2.431   4.494
  202DPPC   C3910089   0.712   2.583   4.482
  202DPPC   C4010090   0.667   2.633   4.344
  202DPPC   C4110091   0.638   2.784   4.347
  202DPPC   C4210092   0.628   2.827   4.201
  202DPPC   C4310093   0.755   2.788   4.126
  202DPPC   C4410094   0.730   2.788   3.975
  202DPPC   C4510095   0.851   2.754   3.887
  202DPPC   C4610096   0.806   2.739   3.742
  202DPPC   C4710097   0.931   2.746   3.653
  202DPPC   C4810098   0.886   2.717   3.509
  202DPPC   C4910099   0.989   2.728   3.396
  202DPPC   C5010100   0.922   2.676   3.268
  203DPPC    C110101   1.881   7.625   4.222
  203DPPC    C210102   1.670   7.570   4.117
  203DPPC    C310103   1.787   7.412   4.256
  203DPPC    N410104   1.753   7.554   4.237
  203DPPC    C510105   1.678   7.604   4.353
  203DPPC    C610106   1.702   7.566   4.499
  203DPPC    O710107   1.824   7.619   4.552
  203DPPC    P810108   1.893   7.504   4.641
  203DPPC    O910109   1.800   7.393   4.672
  203DPPC   O1010110   1.979   7.577   4.737
  203DPPC   O1110111   1.989   7.434   4.533
  203DPPC   C1210112   2.128   7.465   4.546
  203DPPC   C1310113   2.188   7.418   4.413
  203DPPC   O1410114   2.177   7.515   4.308
  203DPPC   C1510115   2.284   7.592   4.275
  203DPPC   O1610116   2.325   7.658   4.370
  203DPPC   C1710117   2.293   7.634   4.128
  203DPPC   C1810118   2.433   7.624   4.067
  203DPPC   C1910119   2.429   7.624   3.914
  203DPPC   C2010120   2.563   7.632   3.841
  203DPPC   C2110121   2.670   7.533   3.887
  203DPPC   C2210122   2.797   7.543   3.802
  203DPPC   C2310123   2.820   7.688   3.761
  203DPPC   C2410124   2.945   7.712   3.675
  203DPPC   C2510125   2.966   7.861   3.651
  203DPPC   C2610126   3.070   7.885   3.540
  203DPPC   C2710127   3.105   8.030   3.509
  203DPPC   C2810128   3.150   8.097   3.639
  203DPPC   C2910129   3.206   8.237   3.618
  203DPPC   C3010130   3.216   8.296   3.759
  203DPPC   C3110131   3.315   8.413   3.753
  203DPPC   C3210132   2.153   7.272   4.385
  203DPPC   O3310133   2.209   7.213   4.267
  203DPPC   C3410134   2.162   7.254   4.147
  203DPPC   O3510135   2.057   7.318   4.140
  203DPPC   C3610136   2.257   7.248   4.027
  203DPPC   C3710137   2.219   7.135   3.930
  203DPPC   C3810138   2.329   7.127   3.823
  203DPPC   C3910139   2.317   6.997   3.743
  203DPPC   C4010140   2.209   7.011   3.635
  203DPPC   C4110141   2.157   6.873   3.597
  203DPPC   C4210142   2.026   6.880   3.518
  203DPPC   C4310143   1.965   6.742   3.490
  203DPPC   C4410144   1.838   6.767   3.410
  203DPPC   C4510145   1.765   6.645   3.353
  203DPPC   C4610146   1.635   6.694   3.290
  203DPPC   C4710147   1.528   6.586   3.308
  203DPPC   C4810148   1.401   6.636   3.239
  203DPPC   C4910149   1.325   6.740   3.321
  203DPPC   C5010150   1.190   6.785   3.263
  204DPPC    C110151   9.368   7.692   4.468
  204DPPC    C210152   9.558   7.670   4.319
  204DPPC    C310153   9.571   7.596   4.541
  204DPPC    N410154   9.480   7.606   4.426
  204DPPC    C510155   9.443   7.473   4.376
  204DPPC    C610156   9.323   7.410   4.447
  204DPPC    O710157   9.272   7.298   4.375
  204DPPC    P810158   9.180   7.229   4.487
  204DPPC    O910159   9.141   7.325   4.592
  204DPPC   O1010160   9.246   7.099   4.516
  204DPPC   O1110161   9.056   7.212   4.385
  204DPPC   C1210162   9.073   7.084   4.322
  204DPPC   C1310163   8.951   7.039   4.242
  204DPPC   O1410164   8.938   6.902   4.200
  204DPPC   C1510165   8.910   6.806   4.292
  204DPPC   O1610166   8.891   6.836   4.410
  204DPPC   C1710167   8.896   6.664   4.236
  204DPPC   C1810168   8.758   6.622   4.187
  204DPPC   C1910169   8.759   6.484   4.121
  204DPPC   C2010170   8.851   6.483   3.999
  204DPPC   C2110171   8.813   6.362   3.912
  204DPPC   C2210172   8.874   6.396   3.776
  204DPPC   C2310173   8.778   6.359   3.662
  204DPPC   C2410174   8.846   6.412   3.535
  204DPPC   C2510175   8.980   6.340   3.520
  204DPPC   C2610176   9.047   6.386   3.391
  204DPPC   C2710177   8.946   6.400   3.276
  204DPPC   C2810178   9.006   6.463   3.150
  204DPPC   C2910179   8.888   6.528   3.077
  204DPPC   C3010180   8.824   6.432   2.976
  204DPPC   C3110181   8.714   6.504   2.898
  204DPPC   C3210182   8.926   7.148   4.139
  204DPPC   O3310183   9.031   7.182   4.048
  204DPPC   C3410184   8.994   7.274   3.956
  204DPPC   O3510185   8.883   7.326   3.950
  204DPPC   C3610186   9.109   7.313   3.862
  204DPPC   C3710187   9.064   7.357   3.722
  204DPPC   C3810188   9.180   7.374   3.624
  204DPPC   C3910189   9.233   7.234   3.591
  204DPPC   C4010190   9.121   7.161   3.517
  204DPPC   C4110191   9.180   7.032   3.461
  204DPPC   C4210192   9.078   6.957   3.374
  204DPPC   C4310193   9.156   6.843   3.308
  204DPPC   C4410194   9.274   6.891   3.224
  204DPPC   C4510195   9.360   6.774   3.176
  204DPPC   C4610196   9.403   6.681   3.289
  204DPPC   C4710197   9.482   6.568   3.225
  204DPPC   C4810198   9.400   6.522   3.104
  204DPPC   C4910199   9.473   6.421   3.016
  204DPPC   C5010200   9.546   6.311   3.094
  205DPPC    C110201   2.105   8.127   5.373
  205DPPC    C210202   2.325   8.023   5.367
  205DPPC    C310203   2.141   7.915   5.281
  205DPPC    N410204   2.201   8.049   5.293
  205DPPC    C510205   2.223   8.123   5.168
  205DPPC    C610206   2.111   8.126   5.063
  205DPPC    O710207   2.002   8.211   5.100
  205DPPC    P810208   1.864   8.156   5.037
  205DPPC    O910209   1.750   8.236   5.087
  205DPPC   O1010210   1.867   8.010   5.062
  205DPPC   O1110211   1.897   8.186   4.882
  205DPPC   C1210212   1.837   8.312   4.853
  205DPPC   C1310213   1.920   8.440   4.865
  205DPPC   O1410214   1.838   8.553   4.833
  205DPPC   C1510215   1.881   8.678   4.865
  205DPPC   O1610216   1.961   8.691   4.957
  205DPPC   C1710217   1.785   8.786   4.815
  205DPPC   C1810218   1.794   8.802   4.663
  205DPPC   C1910219   1.725   8.936   4.639
  205DPPC   C2010220   1.695   8.964   4.492
  205DPPC   C2110221   1.592   8.859   4.447
  205DPPC   C2210222   1.553   8.867   4.300
  205DPPC   C2310223   1.445   8.760   4.280
  205DPPC   C2410224   1.311   8.811   4.227
  205DPPC   C2510225   1.329   8.882   4.093
  205DPPC   C2610226   1.203   8.939   4.027
  205DPPC   C2710227   1.239   8.982   3.884
  205DPPC   C2810228   1.110   9.047   3.833
  205DPPC   C2910229   1.150   9.102   3.696
  205DPPC   C3010230   1.034   9.147   3.606
  205DPPC   C3110231   1.088   9.215   3.480
  205DPPC   C3210232   2.046   8.430   4.778
  205DPPC   O3310233   2.028   8.414   4.637
  205DPPC   C3410234   2.108   8.486   4.555
  205DPPC   O3510235   2.185   8.575   4.589
  205DPPC   C3610236   2.104   8.455   4.405
  205DPPC   C3710237   2.193   8.339   4.360
  205DPPC   C3810238   2.173   8.321   4.209
  205DPPC   C3910239   2.250   8.199   4.161
  205DPPC   C4010240   2.234   8.184   4.009
  205DPPC   C4110241   2.289   8.053   3.952
  205DPPC   C4210242   2.267   8.065   3.801
  205DPPC   C4310243   2.290   7.930   3.733
  205DPPC   C4410244   2.325   7.974   3.591
  205DPPC   C4510245   2.368   7.863   3.496
  205DPPC   C4610246   2.396   7.915   3.355
  205DPPC   C4710247   2.471   7.817   3.264
  205DPPC   C4810248   2.592   7.766   3.343
  205DPPC   C4910249   2.688   7.686   3.254
  205DPPC   C5010250   2.805   7.624   3.330
  206DPPC    C110251   1.949   5.372   4.721
  206DPPC    C210252   1.876   5.201   4.574
  206DPPC    C310253   1.989   5.135   4.779
  206DPPC    N410254   1.900   5.233   4.716
  206DPPC    C510255   1.785   5.202   4.802
  206DPPC    C610256   1.662   5.293   4.794
  206DPPC    O710257   1.594   5.302   4.669
  206DPPC    P810258   1.449   5.371   4.679
  206DPPC    O910259   1.467   5.447   4.804
  206DPPC   O1010260   1.331   5.281   4.671
  206DPPC   O1110261   1.462   5.475   4.557
  206DPPC   C1210262   1.418   5.404   4.440
  206DPPC   C1310263   1.440   5.479   4.309
  206DPPC   O1410264   1.372   5.422   4.196
  206DPPC   C1510265   1.236   5.432   4.187
  206DPPC   O1610266   1.168   5.496   4.266
  206DPPC   C1710267   1.168   5.356   4.073
  206DPPC   C1810268   1.120   5.444   3.958
  206DPPC   C1910269   1.092   5.342   3.847
  206DPPC   C2010270   1.054   5.418   3.719
  206DPPC   C2110271   1.027   5.321   3.604
  206DPPC   C2210272   0.992   5.410   3.484
  206DPPC   C2310273   0.958   5.333   3.357
  206DPPC   C2410274   0.932   5.429   3.241
  206DPPC   C2510275   1.059   5.512   3.218
  206DPPC   C2610276   1.044   5.619   3.110
  206DPPC   C2710277   1.166   5.702   3.072
  206DPPC   C2810278   1.199   5.820   3.163
  206DPPC   C2910279   1.335   5.884   3.132
  206DPPC   C3010280   1.384   5.974   3.246
  206DPPC   C3110281   1.427   5.893   3.368
  206DPPC   C3210282   1.592   5.463   4.299
  206DPPC   O3310283   1.640   5.344   4.235
  206DPPC   C3410284   1.776   5.336   4.232
  206DPPC   O3510285   1.854   5.396   4.307
  206DPPC   C3610286   1.827   5.209   4.165
  206DPPC   C3710287   1.875   5.242   4.024
  206DPPC   C3810288   1.928   5.114   3.959
  206DPPC   C3910289   2.027   5.044   4.052
  206DPPC   C4010290   2.058   4.923   3.963
  206DPPC   C4110291   2.161   4.825   4.020
  206DPPC   C4210292   2.187   4.728   3.904
  206DPPC   C4310293   2.255   4.799   3.787
  206DPPC   C4410294   2.396   4.846   3.824
  206DPPC   C4510295   2.490   4.866   3.706
  206DPPC   C4610296   2.636   4.900   3.739
  206DPPC   C4710297   2.730   4.895   3.619
  206DPPC   C4810298   2.867   4.948   3.660
  206DPPC   C4910299   2.958   4.961   3.538
  206DPPC   C5010300   3.103   4.981   3.583
  207DPPC    C110301   6.427   0.316   5.822
  207DPPC    C210302   6.634   0.338   5.713
  207DPPC    C310303   6.464   0.211   5.609
  207DPPC    N410304   6.489   0.331   5.690
  207DPPC    C510305   6.430   0.442   5.613
  207DPPC    C610306   6.476   0.587   5.636
  207DPPC    O710307   6.394   0.676   5.559
  207DPPC    P810308   6.454   0.825   5.569
  207DPPC    O910309   6.472   0.857   5.712
  207DPPC   O1010310   6.371   0.914   5.485
  207DPPC   O1110311   6.588   0.780   5.492
  207DPPC   C1210312   6.618   0.841   5.366
  207DPPC   C1310313   6.760   0.888   5.333
  207DPPC   O1410314   6.773   1.001   5.246
  207DPPC   C1510315   6.890   1.071   5.245
  207DPPC   O1610316   6.968   1.054   5.338
  207DPPC   C1710317   6.918   1.162   5.125
  207DPPC   C1810318   6.858   1.301   5.145
  207DPPC   C1910319   6.856   1.390   5.020
  207DPPC   C2010320   6.774   1.337   4.903
  207DPPC   C2110321   6.771   1.428   4.780
  207DPPC   C2210322   6.899   1.407   4.699
  207DPPC   C2310323   6.872   1.502   4.582
  207DPPC   C2410324   6.973   1.478   4.470
  207DPPC   C2510325   6.924   1.554   4.346
  207DPPC   C2610326   7.034   1.542   4.240
  207DPPC   C2710327   6.998   1.585   4.098
  207DPPC   C2810328   6.954   1.732   4.090
  207DPPC   C2910329   6.881   1.751   3.957
  207DPPC   C3010330   6.916   1.893   3.910
  207DPPC   C3110331   6.866   1.922   3.769
  207DPPC   C3210332   6.826   0.762   5.277
  207DPPC   O3310333   6.751   0.696   5.175
  207DPPC   C3410334   6.822   0.600   5.110
  207DPPC   O3510335   6.933   0.561   5.144
  207DPPC   C3610336   6.745   0.531   4.997
  207DPPC   C3710337   6.629   0.611   4.938
  207DPPC   C3810338   6.551   0.536   4.830
  207DPPC   C3910339   6.458   0.625   4.748
  207DPPC   C4010340   6.416   0.542   4.626
  207DPPC   C4110341   6.326   0.428   4.674
  207DPPC   C4210342   6.284   0.340   4.556
  207DPPC   C4310343   6.240   0.198   4.589
  207DPPC   C4410344   6.231   0.110   4.464
  207DPPC   C4510345   6.363   0.113   4.385
  207DPPC   C4610346   6.329   0.050   4.250
  207DPPC   C4710347   6.447   0.007   4.163
  207DPPC   C4810348   6.404  -0.031   4.021
  207DPPC   C4910349   6.534  -0.060   3.944
  207DPPC   C5010350   6.477  -0.127   3.819
  208DPPC    C110351   5.131   1.499   5.302
  208DPPC    C210352   5.278   1.400   5.148
  208DPPC    C310353   5.176   1.624   5.110
  208DPPC    N410354   5.236   1.529   5.204
  208DPPC    C510355   5.355   1.603   5.249
  208DPPC    C610356   5.443   1.545   5.360
  208DPPC    O710357   5.580   1.582   5.341
  208DPPC    P810358   5.688   1.543   5.453
  208DPPC    O910359   5.612   1.544   5.580
  208DPPC   O1010360   5.819   1.603   5.419
  208DPPC   O1110361   5.703   1.387   5.415
  208DPPC   C1210362   5.758   1.380   5.283
  208DPPC   C1310363   5.775   1.239   5.228
  208DPPC   O1410364   5.875   1.238   5.126
  208DPPC   C1510365   5.984   1.158   5.143
  208DPPC   O1610366   5.987   1.070   5.229
  208DPPC   C1710367   6.103   1.199   5.056
  208DPPC   C1810368   6.065   1.299   4.946
  208DPPC   C1910369   6.191   1.376   4.905
  208DPPC   C2010370   6.157   1.428   4.765
  208DPPC   C2110371   6.260   1.521   4.701
  208DPPC   C2210372   6.184   1.576   4.580
  208DPPC   C2310373   6.107   1.700   4.627
  208DPPC   C2410374   6.046   1.771   4.506
  208DPPC   C2510375   5.964   1.894   4.547
  208DPPC   C2610376   5.899   1.949   4.420
  208DPPC   C2710377   5.782   1.865   4.369
  208DPPC   C2810378   5.744   1.926   4.234
  208DPPC   C2910379   5.871   1.913   4.149
  208DPPC   C3010380   5.827   1.956   4.009
  208DPPC   C3110381   5.924   1.908   3.901
  208DPPC   C3210382   5.631   1.195   5.202
  208DPPC   O3310383   5.597   1.170   5.065
  208DPPC   C3410384   5.605   1.273   4.977
  208DPPC   O3510385   5.576   1.386   5.017
  208DPPC   C3610386   5.599   1.238   4.828
  208DPPC   C3710387   5.721   1.292   4.754
  208DPPC   C3810388   5.716   1.273   4.602
  208DPPC   C3910389   5.842   1.331   4.537
  208DPPC   C4010390   5.832   1.332   4.384
  208DPPC   C4110391   5.928   1.438   4.329
  208DPPC   C4210392   5.926   1.413   4.178
  208DPPC   C4310393   6.012   1.507   4.093
  208DPPC   C4410394   6.163   1.497   4.117
  208DPPC   C4510395   6.219   1.605   4.026
  208DPPC   C4610396   6.356   1.629   4.090
  208DPPC   C4710397   6.423   1.492   4.092
  208DPPC   C4810398   6.569   1.487   4.138
  208DPPC   C4910399   6.576   1.524   4.286
  208DPPC   C5010400   6.544   1.395   4.362
  209DPPC    C110401   4.688   3.853   5.820
  209DPPC    C210402   4.827   4.017   5.703
  209DPPC    C310403   4.821   3.779   5.647
  209DPPC    N410404   4.744   3.897   5.691
  209DPPC    C510405   4.638   3.905   5.590
  209DPPC    C610406   4.535   4.012   5.628
  209DPPC    O710407   4.416   4.021   5.549
  209DPPC    P810408   4.324   4.142   5.602
  209DPPC    O910409   4.375   4.169   5.739
  209DPPC   O1010410   4.184   4.103   5.574
  209DPPC   O1110411   4.386   4.263   5.515
  209DPPC   C1210412   4.403   4.225   5.379
  209DPPC   C1310413   4.271   4.204   5.305
  209DPPC   O1410414   4.282   4.143   5.175
  209DPPC   C1510415   4.169   4.085   5.125
  209DPPC   O1610416   4.080   4.055   5.204
  209DPPC   C1710417   4.180   4.021   4.987
  209DPPC   C1810418   4.043   3.989   4.928
  209DPPC   C1910419   4.061   3.995   4.776
  209DPPC   C2010420   4.169   3.894   4.737
  209DPPC   C2110421   4.183   3.886   4.585
  209DPPC   C2210422   4.292   3.785   4.549
  209DPPC   C2310423   4.325   3.767   4.401
  209DPPC   C2410424   4.447   3.675   4.402
  209DPPC   C2510425   4.442   3.539   4.471
  209DPPC   C2610426   4.567   3.450   4.471
  209DPPC   C2710427   4.613   3.413   4.329
  209DPPC   C2810428   4.739   3.328   4.337
  209DPPC   C2910429   4.781   3.293   4.194
  209DPPC   C3010430   4.919   3.228   4.176
  209DPPC   C3110431   4.960   3.187   4.034
  209DPPC   C3210432   4.189   4.332   5.317
  209DPPC   O3310433   4.238   4.452   5.256
  209DPPC   C3410434   4.181   4.573   5.283
  209DPPC   O3510435   4.143   4.602   5.396
  209DPPC   C3610436   4.228   4.685   5.190
  209DPPC   C3710437   4.252   4.627   5.051
  209DPPC   C3810438   4.335   4.722   4.965
  209DPPC   C3910439   4.345   4.663   4.824
  209DPPC   C4010440   4.467   4.713   4.746
  209DPPC   C4110441   4.433   4.862   4.736
  209DPPC   C4210442   4.548   4.924   4.657
  209DPPC   C4310443   4.679   4.914   4.735
  209DPPC   C4410444   4.806   4.950   4.657
  209DPPC   C4510445   4.807   4.873   4.525
  209DPPC   C4610446   4.908   4.934   4.427
  209DPPC   C4710447   4.879   4.870   4.291
  209DPPC   C4810448   4.955   4.928   4.172
  209DPPC   C4910449   5.104   4.896   4.181
  209DPPC   C5010450   5.124   4.744   4.183
  210DPPC    C110451   6.360   1.417   5.671
  210DPPC    C210452   6.319   1.460   5.908
  210DPPC    C310453   6.201   1.287   5.795
  210DPPC    N410454   6.330   1.358   5.803
  210DPPC    C510455   6.432   1.261   5.846
  210DPPC    C610456   6.507   1.192   5.732
  210DPPC    O710457   6.621   1.267   5.689
  210DPPC    P810458   6.707   1.196   5.573
  210DPPC    O910459   6.761   1.068   5.626
  210DPPC   O1010460   6.783   1.313   5.523
  210DPPC   O1110461   6.587   1.169   5.469
  210DPPC   C1210462   6.576   1.287   5.389
  210DPPC   C1310463   6.467   1.291   5.281
  210DPPC   O1410464   6.347   1.352   5.330
  210DPPC   C1510465   6.342   1.484   5.296
  210DPPC   O1610466   6.447   1.547   5.301
  210DPPC   C1710467   6.210   1.562   5.304
  210DPPC   C1810468   6.234   1.695   5.233
  210DPPC   C1910469   6.105   1.777   5.232
  210DPPC   C2010470   6.123   1.901   5.144
  210DPPC   C2110471   6.024   2.005   5.199
  210DPPC   C2210472   6.058   2.142   5.142
  210DPPC   C2310473   6.068   2.139   4.989
  210DPPC   C2410474   6.112   2.272   4.927
  210DPPC   C2510475   6.114   2.249   4.776
  210DPPC   C2610476   6.183   2.357   4.693
  210DPPC   C2710477   6.181   2.329   4.542
  210DPPC   C2810478   6.233   2.452   4.467
  210DPPC   C2910479   6.257   2.381   4.334
  210DPPC   C3010480   6.126   2.344   4.264
  210DPPC   C3110481   6.134   2.244   4.149
  210DPPC   C3210482   6.468   1.147   5.230
  210DPPC   O3310483   6.495   1.132   5.090
  210DPPC   C3410484   6.482   1.008   5.036
  210DPPC   O3510485   6.395   0.935   5.084
  210DPPC   C3610486   6.528   0.996   4.891
  210DPPC   C3710487   6.438   1.069   4.791
  210DPPC   C3810488   6.500   1.102   4.656
  210DPPC   C3910489   6.567   0.970   4.616
  210DPPC   C4010490   6.637   0.980   4.479
  210DPPC   C4110491   6.756   1.075   4.492
  210DPPC   C4210492   6.833   1.089   4.361
  210DPPC   C4310493   6.747   1.123   4.239
  210DPPC   C4410494   6.839   1.154   4.121
  210DPPC   C4510495   6.870   1.023   4.048
  210DPPC   C4610496   6.749   0.961   3.977
  210DPPC   C4710497   6.779   0.842   3.886
  210DPPC   C4810498   6.651   0.810   3.808
  210DPPC   C4910499   6.615   0.924   3.712
  210DPPC   C5010500   6.491   0.891   3.628
  211DPPC    C110501   1.310   7.975   5.080
  211DPPC    C210502   1.447   8.172   5.073
  211DPPC    C310503   1.491   7.985   5.230
  211DPPC    N410504   1.447   8.026   5.096
  211DPPC    C510505   1.540   7.984   4.990
  211DPPC    C610506   1.546   7.841   4.937
  211DPPC    O710507   1.444   7.815   4.841
  211DPPC    P810508   1.466   7.680   4.757
  211DPPC    O910509   1.328   7.629   4.772
  211DPPC   O1010510   1.585   7.617   4.819
  211DPPC   O1110511   1.504   7.778   4.635
  211DPPC   C1210512   1.384   7.832   4.579
  211DPPC   C1310513   1.411   7.935   4.469
  211DPPC   O1410514   1.429   7.882   4.337
  211DPPC   C1510515   1.317   7.850   4.268
  211DPPC   O1610516   1.210   7.843   4.329
  211DPPC   C1710517   1.342   7.777   4.136
  211DPPC   C1810518   1.326   7.886   4.030
  211DPPC   C1910519   1.178   7.923   4.017
  211DPPC   C2010520   1.143   7.996   3.887
  211DPPC   C2110521   1.003   8.055   3.903
  211DPPC   C2210522   0.965   8.152   3.790
  211DPPC   C2310523   1.006   8.084   3.659
  211DPPC   C2410524   0.983   8.186   3.548
  211DPPC   C2510525   0.997   8.129   3.407
  211DPPC   C2610526   0.876   8.049   3.358
  211DPPC   C2710527   0.784   8.138   3.273
  211DPPC   C2810528   0.863   8.208   3.162
  211DPPC   C2910529   0.759   8.268   3.068
  211DPPC   C3010530   0.809   8.364   2.960
  211DPPC   C3110531   0.906   8.301   2.860
  211DPPC   C3210532   1.522   8.025   4.523
  211DPPC   O3310533   1.543   8.140   4.442
  211DPPC   C3410534   1.611   8.229   4.519
  211DPPC   O3510535   1.659   8.194   4.627
  211DPPC   C3610536   1.625   8.372   4.465
  211DPPC   C3710537   1.744   8.381   4.369
  211DPPC   C3810538   1.728   8.510   4.288
  211DPPC   C3910539   1.827   8.513   4.171
  211DPPC   C4010540   1.787   8.644   4.104
  211DPPC   C4110541   1.752   8.618   3.957
  211DPPC   C4210542   1.704   8.745   3.888
  211DPPC   C4310543   1.669   8.720   3.742
  211DPPC   C4410544   1.651   8.842   3.651
  211DPPC   C4510545   1.511   8.901   3.671
  211DPPC   C4610546   1.490   9.032   3.595
  211DPPC   C4710547   1.532   9.009   3.450
  211DPPC   C4810548   1.513   9.144   3.381
  211DPPC   C4910549   1.610   9.256   3.422
  211DPPC   C5010550   1.545   9.376   3.352
  212DPPC    C110551   4.587   8.233   5.468
  212DPPC    C210552   4.641   8.448   5.389
  212DPPC    C310553   4.796   8.276   5.346
  212DPPC    N410554   4.653   8.305   5.358
  212DPPC    C510555   4.574   8.268   5.239
  212DPPC    C610556   4.582   8.349   5.110
  212DPPC    O710557   4.713   8.370   5.056
  212DPPC    P810558   4.699   8.516   4.988
  212DPPC    O910559   4.820   8.544   4.908
  212DPPC   O1010560   4.641   8.600   5.095
  212DPPC   O1110561   4.588   8.498   4.873
  212DPPC   C1210562   4.641   8.391   4.793
  212DPPC   C1310563   4.550   8.336   4.683
  212DPPC   O1410564   4.603   8.223   4.612
  212DPPC   C1510565   4.618   8.101   4.670
  212DPPC   O1610566   4.568   8.084   4.781
  212DPPC   C1710567   4.673   7.994   4.575
  212DPPC   C1810568   4.607   8.014   4.439
  212DPPC   C1910569   4.657   7.923   4.326
  212DPPC   C2010570   4.559   7.963   4.216
  212DPPC   C2110571   4.603   7.892   4.087
  212DPPC   C2210572   4.474   7.827   4.036
  212DPPC   C2310573   4.484   7.740   3.910
  212DPPC   C2410574   4.357   7.658   3.888
  212DPPC   C2510575   4.377   7.573   3.762
  212DPPC   C2610576   4.387   7.649   3.630
  212DPPC   C2710577   4.429   7.532   3.539
  212DPPC   C2810578   4.476   7.566   3.398
  212DPPC   C2910579   4.515   7.444   3.315
  212DPPC   C3010580   4.548   7.472   3.168
  212DPPC   C3110581   4.592   7.334   3.119
  212DPPC   C3210582   4.502   8.459   4.607
  212DPPC   O3310583   4.614   8.524   4.546
  212DPPC   C3410584   4.593   8.640   4.479
  212DPPC   O3510585   4.487   8.702   4.484
  212DPPC   C3610586   4.726   8.700   4.432
  212DPPC   C3710587   4.722   8.706   4.279
  212DPPC   C3810588   4.856   8.713   4.206
  212DPPC   C3910589   4.819   8.740   4.060
  212DPPC   C4010590   4.945   8.754   3.973
  212DPPC   C4110591   5.057   8.653   4.001
  212DPPC   C4210592   5.179   8.675   3.911
  212DPPC   C4310593   5.312   8.609   3.947
  212DPPC   C4410594   5.367   8.668   4.076
  212DPPC   C4510595   5.489   8.584   4.117
  212DPPC   C4610596   5.589   8.585   4.002
  212DPPC   C4710597   5.721   8.533   4.059
  212DPPC   C4810598   5.828   8.503   3.954
  212DPPC   C4910599   5.937   8.433   4.035
  212DPPC   C5010600   6.030   8.387   3.923
  213DPPC    C110601   7.593   1.959   5.745
  213DPPC    C210602   7.656   2.166   5.668
  213DPPC    C310603   7.678   1.997   5.513
  213DPPC    N410604   7.592   2.041   5.624
  213DPPC    C510605   7.460   2.070   5.565
  213DPPC    C610606   7.355   1.960   5.560
  213DPPC    O710607   7.403   1.840   5.498
  213DPPC    P810608   7.335   1.716   5.573
  213DPPC    O910609   7.255   1.763   5.689
  213DPPC   O1010610   7.440   1.613   5.589
  213DPPC   O1110611   7.238   1.661   5.456
  213DPPC   C1210612   7.304   1.643   5.330
  213DPPC   C1310613   7.215   1.617   5.208
  213DPPC   O1410614   7.285   1.562   5.096
  213DPPC   C1510615   7.321   1.431   5.108
  213DPPC   O1610616   7.298   1.365   5.209
  213DPPC   C1710617   7.382   1.365   4.984
  213DPPC   C1810618   7.284   1.344   4.869
  213DPPC   C1910619   7.334   1.253   4.756
  213DPPC   C2010620   7.225   1.227   4.652
  213DPPC   C2110621   7.266   1.131   4.540
  213DPPC   C2210622   7.387   1.183   4.462
  213DPPC   C2310623   7.452   1.064   4.391
  213DPPC   C2410624   7.363   1.048   4.268
  213DPPC   C2510625   7.345   1.177   4.188
  213DPPC   C2610626   7.466   1.178   4.094
  213DPPC   C2710627   7.457   1.304   4.008
  213DPPC   C2810628   7.339   1.284   3.913
  213DPPC   C2910629   7.320   1.392   3.805
  213DPPC   C3010630   7.178   1.398   3.749
  213DPPC   C3110631   7.187   1.495   3.632
  213DPPC   C3210632   7.121   1.738   5.198
  213DPPC   O3310633   7.007   1.719   5.115
  213DPPC   C3410634   6.919   1.821   5.093
  213DPPC   O3510635   6.919   1.920   5.167
  213DPPC   C3610636   6.806   1.800   4.993
  213DPPC   C3710637   6.681   1.763   5.073
  213DPPC   C3810638   6.558   1.778   4.982
  213DPPC   C3910639   6.550   1.912   4.910
  213DPPC   C4010640   6.514   2.016   5.016
  213DPPC   C4110641   6.513   2.161   4.968
  213DPPC   C4210642   6.490   2.267   5.076
  213DPPC   C4310643   6.484   2.408   5.017
  213DPPC   C4410644   6.603   2.463   4.937
  213DPPC   C4510645   6.589   2.610   4.898
  213DPPC   C4610646   6.457   2.627   4.823
  213DPPC   C4710647   6.444   2.768   4.765
  213DPPC   C4810648   6.317   2.796   4.683
  213DPPC   C4910649   6.318   2.942   4.637
  213DPPC   C5010650   6.269   3.028   4.753
  214DPPC    C110651   5.435   7.915   5.382
  214DPPC    C210652   5.451   7.737   5.534
  214DPPC    C310653   5.403   7.678   5.306
  214DPPC    N410654   5.473   7.773   5.393
  214DPPC    C510655   5.619   7.762   5.388
  214DPPC    C610656   5.699   7.804   5.264
  214DPPC    O710657   5.696   7.700   5.166
  214DPPC    P810658   5.782   7.745   5.037
  214DPPC    O910659   5.855   7.617   5.023
  214DPPC   O1010660   5.847   7.872   5.075
  214DPPC   O1110661   5.651   7.752   4.944
  214DPPC   C1210662   5.643   7.642   4.853
  214DPPC   C1310663   5.497   7.627   4.811
  214DPPC   O1410664   5.470   7.512   4.730
  214DPPC   C1510665   5.488   7.390   4.789
  214DPPC   O1610666   5.509   7.368   4.908
  214DPPC   C1710667   5.494   7.287   4.677
  214DPPC   C1810668   5.576   7.163   4.715
  214DPPC   C1910669   5.622   7.084   4.593
  214DPPC   C2010670   5.704   6.956   4.613
  214DPPC   C2110671   5.696   6.864   4.491
  214DPPC   C2210672   5.790   6.745   4.511
  214DPPC   C2310673   5.930   6.808   4.509
  214DPPC   C2410674   6.032   6.694   4.516
  214DPPC   C2510675   6.005   6.587   4.410
  214DPPC   C2610676   6.093   6.462   4.417
  214DPPC   C2710677   6.041   6.359   4.317
  214DPPC   C2810678   5.888   6.364   4.314
  214DPPC   C2910679   5.839   6.277   4.198
  214DPPC   C3010680   5.838   6.126   4.224
  214DPPC   C3110681   5.827   6.036   4.102
  214DPPC   C3210682   5.477   7.758   4.734
  214DPPC   O3310683   5.568   7.807   4.636
  214DPPC   C3410684   5.528   7.929   4.591
  214DPPC   O3510685   5.446   7.993   4.658
  214DPPC   C3610686   5.589   7.994   4.467
  214DPPC   C3710687   5.646   7.892   4.369
  214DPPC   C3810688   5.741   7.950   4.264
  214DPPC   C3910689   5.817   7.831   4.204
  214DPPC   C4010690   5.881   7.862   4.069
  214DPPC   C4110691   5.973   7.741   4.052
  214DPPC   C4210692   5.960   7.696   3.907
  214DPPC   C4310693   6.053   7.578   3.878
  214DPPC   C4410694   6.195   7.604   3.929
  214DPPC   C4510695   6.296   7.504   3.872
  214DPPC   C4610696   6.247   7.364   3.909
  214DPPC   C4710697   6.335   7.246   3.866
  214DPPC   C4810698   6.474   7.261   3.928
  214DPPC   C4910699   6.557   7.137   3.891
  214DPPC   C5010700   6.692   7.143   3.962
  215DPPC    C110701   8.000   0.302   5.021
  215DPPC    C210702   8.083   0.433   5.210
  215DPPC    C310703   7.894   0.307   5.220
  215DPPC    N410704   8.030   0.303   5.165
  215DPPC    C510705   8.092   0.182   5.222
  215DPPC    C610706   8.243   0.173   5.200
  215DPPC    O710707   8.286   0.105   5.082
  215DPPC    P810708   8.428   0.153   5.024
  215DPPC    O910709   8.527   0.066   5.091
  215DPPC   O1010710   8.419   0.295   5.065
  215DPPC   O1110711   8.395   0.122   4.869
  215DPPC   C1210712   8.335   0.237   4.811
  215DPPC   C1310713   8.316   0.212   4.661
  215DPPC   O1410714   8.285   0.330   4.585
  215DPPC   C1510715   8.179   0.411   4.610
  215DPPC   O1610716   8.126   0.415   4.720
  215DPPC   C1710717   8.152   0.514   4.500
  215DPPC   C1810718   8.113   0.429   4.379
  215DPPC   C1910719   8.091   0.502   4.246
  215DPPC   C2010720   8.053   0.397   4.142
  215DPPC   C2110721   8.013   0.455   4.006
  215DPPC   C2210722   8.132   0.535   3.955
  215DPPC   C2310723   8.087   0.602   3.824
  215DPPC   C2410724   8.023   0.735   3.863
  215DPPC   C2510725   7.971   0.809   3.739
  215DPPC   C2610726   7.906   0.940   3.784
  215DPPC   C2710727   7.845   0.991   3.653
  215DPPC   C2810728   7.767   0.879   3.583
  215DPPC   C2910729   7.684   0.915   3.460
  215DPPC   C3010730   7.557   0.983   3.509
  215DPPC   C3110731   7.490   0.914   3.628
  215DPPC   C3210732   8.203   0.109   4.654
  215DPPC   O3310733   8.158   0.090   4.520
  215DPPC   C3410734   8.234   0.051   4.413
  215DPPC   O3510735   8.332  -0.017   4.444
  215DPPC   C3610736   8.171   0.068   4.275
  215DPPC   C3710737   8.093  -0.055   4.228
  215DPPC   C3810738   8.023  -0.008   4.100
  215DPPC   C3910739   7.919  -0.115   4.066
  215DPPC   C4010740   7.825  -0.079   3.951
  215DPPC   C4110741   7.747  -0.203   3.908
  215DPPC   C4210742   7.645  -0.165   3.800
  215DPPC   C4310743   7.719  -0.122   3.673
  215DPPC   C4410744   7.619  -0.115   3.557
  215DPPC   C4510745   7.512  -0.006   3.563
  215DPPC   C4610746   7.414  -0.012   3.445
  215DPPC   C4710747   7.341  -0.146   3.439
  215DPPC   C4810748   7.277  -0.149   3.300
  215DPPC   C4910749   7.214  -0.285   3.266
  215DPPC   C5010750   7.231  -0.317   3.117
  216DPPC    C110751   4.371   0.245   4.905
  216DPPC    C210752   4.436   0.440   4.763
  216DPPC    C310753   4.276   0.467   4.930
  216DPPC    N410754   4.396   0.389   4.895
  216DPPC    C510755   4.494   0.426   4.999
  216DPPC    C610756   4.555   0.566   5.007
  216DPPC    O710757   4.475   0.667   5.069
  216DPPC    P810758   4.559   0.803   5.052
  216DPPC    O910759   4.704   0.773   5.068
  216DPPC   O1010760   4.474   0.871   5.152
  216DPPC   O1110761   4.513   0.842   4.903
  216DPPC   C1210762   4.375   0.880   4.896
  216DPPC   C1310763   4.324   0.919   4.757
  216DPPC   O1410764   4.263   0.803   4.699
  216DPPC   C1510765   4.130   0.774   4.706
  216DPPC   O1610766   4.075   0.809   4.810
  216DPPC   C1710767   4.107   0.639   4.637
  216DPPC   C1810768   4.180   0.617   4.504
  216DPPC   C1910769   4.162   0.479   4.441
  216DPPC   C2010770   4.199   0.478   4.293
  216DPPC   C2110771   4.168   0.349   4.216
  216DPPC   C2210772   4.227   0.338   4.076
  216DPPC   C2310773   4.379   0.336   4.056
  216DPPC   C2410774   4.428   0.345   3.911
  216DPPC   C2510775   4.475   0.204   3.875
  216DPPC   C2610776   4.596   0.209   3.781
  216DPPC   C2710777   4.662   0.081   3.730
  216DPPC   C2810778   4.775   0.112   3.632
  216DPPC   C2910779   4.841  -0.015   3.576
  216DPPC   C3010780   4.754  -0.089   3.475
  216DPPC   C3110781   4.700  -0.003   3.360
  216DPPC   C3210782   4.429   0.992   4.674
  216DPPC   O3310783   4.447   1.133   4.692
  216DPPC   C3410784   4.548   1.185   4.617
  216DPPC   O3510785   4.638   1.114   4.573
  216DPPC   C3610786   4.527   1.329   4.569
  216DPPC   C3710787   4.436   1.343   4.447
  216DPPC   C3810788   4.371   1.482   4.457
  216DPPC   C3910789   4.252   1.499   4.363
  216DPPC   C4010790   4.160   1.386   4.409
  216DPPC   C4110791   4.058   1.343   4.303
  216DPPC   C4210792   3.947   1.448   4.291
  216DPPC   C4310793   3.841   1.394   4.194
  216DPPC   C4410794   3.889   1.368   4.051
  216DPPC   C4510795   3.776   1.406   3.955
  216DPPC   C4610796   3.800   1.363   3.810
  216DPPC   C4710797   3.701   1.423   3.710
  216DPPC   C4810798   3.718   1.340   3.582
  216DPPC   C4910799   3.630   1.392   3.468
  216DPPC   C5010800   3.639   1.302   3.344
  217DPPC    C110801   5.443   6.876   5.288
  217DPPC    C210802   5.462   7.045   5.130
  217DPPC    C310803   5.324   6.863   5.085
  217DPPC    N410804   5.364   6.955   5.193
  217DPPC    C510805   5.242   7.008   5.257
  217DPPC    C610806   5.254   7.149   5.315
  217DPPC    O710807   5.132   7.223   5.309
  217DPPC    P810808   5.148   7.361   5.390
  217DPPC    O910809   5.270   7.375   5.472
  217DPPC   O1010810   5.027   7.431   5.439
  217DPPC   O1110811   5.198   7.439   5.258
  217DPPC   C1210812   5.093   7.457   5.163
  217DPPC   C1310813   5.133   7.515   5.027
  217DPPC   O1410814   5.040   7.610   4.972
  217DPPC   C1510815   5.068   7.695   4.870
  217DPPC   O1610816   5.182   7.735   4.848
  217DPPC   C1710817   4.948   7.754   4.794
  217DPPC   C1810818   4.981   7.775   4.646
  217DPPC   C1910819   5.028   7.918   4.617
  217DPPC   C2010820   5.014   7.955   4.470
  217DPPC   C2110821   5.083   7.862   4.370
  217DPPC   C2210822   5.065   7.908   4.225
  217DPPC   C2310823   5.142   7.809   4.137
  217DPPC   C2410824   5.120   7.859   3.994
  217DPPC   C2510825   4.970   7.844   3.967
  217DPPC   C2610826   4.954   7.868   3.816
  217DPPC   C2710827   4.810   7.892   3.772
  217DPPC   C2810828   4.805   7.978   3.646
  217DPPC   C2910829   4.860   7.897   3.529
  217DPPC   C3010830   4.885   7.996   3.415
  217DPPC   C3110831   4.958   7.922   3.302
  217DPPC   C3210832   5.176   7.397   4.939
  217DPPC   O3310833   5.066   7.305   4.939
  217DPPC   C3410834   5.107   7.185   4.888
  217DPPC   O3510835   5.222   7.156   4.857
  217DPPC   C3610836   4.993   7.084   4.878
  217DPPC   C3710837   4.892   7.122   4.770
  217DPPC   C3810838   4.954   7.094   4.632
  217DPPC   C3910839   4.846   7.034   4.542
  217DPPC   C4010840   4.836   7.085   4.398
  217DPPC   C4110841   4.713   7.031   4.324
  217DPPC   C4210842   4.732   7.054   4.174
  217DPPC   C4310843   4.861   7.002   4.110
  217DPPC   C4410844   4.841   7.051   3.966
  217DPPC   C4510845   4.964   7.017   3.881
  217DPPC   C4610846   4.933   7.039   3.733
  217DPPC   C4710847   5.058   7.015   3.648
  217DPPC   C4810848   5.139   7.128   3.714
  217DPPC   C4910849   5.260   7.161   3.626
  217DPPC   C5010850   5.365   7.257   3.681
  218DPPC    C110851   1.941   4.290   5.619
  218DPPC    C210852   2.122   4.401   5.538
  218DPPC    C310853   2.145   4.265   5.736
  218DPPC    N410854   2.086   4.273   5.601
  218DPPC    C510855   2.103   4.160   5.509
  218DPPC    C610856   2.243   4.138   5.451
  218DPPC    O710857   2.253   4.031   5.357
  218DPPC    P810858   2.402   4.021   5.298
  218DPPC    O910859   2.427   3.876   5.282
  218DPPC   O1010860   2.503   4.097   5.375
  218DPPC   O1110861   2.371   4.061   5.145
  218DPPC   C1210862   2.324   3.952   5.065
  218DPPC   C1310863   2.171   3.959   5.055
  218DPPC   O1410864   2.129   3.841   4.986
  218DPPC   C1510865   1.999   3.802   4.996
  218DPPC   O1610866   1.924   3.861   5.074
  218DPPC   C1710867   1.950   3.687   4.907
  218DPPC   C1810868   1.880   3.743   4.784
  218DPPC   C1910869   1.834   3.624   4.699
  218DPPC   C2010870   1.778   3.661   4.561
  218DPPC   C2110871   1.793   3.542   4.465
  218DPPC   C2210872   1.746   3.591   4.328
  218DPPC   C2310873   1.691   3.473   4.247
  218DPPC   C2410874   1.667   3.517   4.102
  218DPPC   C2510875   1.582   3.418   4.023
  218DPPC   C2610876   1.566   3.473   3.881
  218DPPC   C2710877   1.504   3.368   3.789
  218DPPC   C2810878   1.472   3.429   3.653
  218DPPC   C2910879   1.594   3.501   3.595
  218DPPC   C3010880   1.580   3.529   3.445
  218DPPC   C3110881   1.707   3.601   3.399
  218DPPC   C3210882   2.143   4.093   4.986
  218DPPC   O3310883   2.215   4.106   4.863
  218DPPC   C3410884   2.198   4.224   4.797
  218DPPC   O3510885   2.093   4.286   4.800
  218DPPC   C3610886   2.282   4.233   4.669
  218DPPC   C3710887   2.191   4.257   4.549
  218DPPC   C3810888   2.265   4.242   4.416
  218DPPC   C3910889   2.384   4.335   4.388
  218DPPC   C4010890   2.425   4.315   4.242
  218DPPC   C4110891   2.538   4.412   4.207
  218DPPC   C4210892   2.549   4.444   4.058
  218DPPC   C4310893   2.681   4.519   4.037
  218DPPC   C4410894   2.682   4.645   4.125
  218DPPC   C4510895   2.822   4.705   4.107
  218DPPC   C4610896   2.835   4.839   4.181
  218DPPC   C4710897   2.980   4.888   4.178
  218DPPC   C4810898   3.036   4.893   4.035
  218DPPC   C4910899   3.186   4.924   4.042
  218DPPC   C5010900   3.250   4.909   3.903
  219DPPC    C110901   8.874   6.802   4.839
  219DPPC    C210902   9.052   6.908   4.753
  219DPPC    C310903   9.084   6.797   4.958
  219DPPC    N410904   9.019   6.785   4.827
  219DPPC    C510905   9.063   6.686   4.727
  219DPPC    C610906   8.991   6.560   4.677
  219DPPC    O710907   9.078   6.482   4.594
  219DPPC    P810908   8.980   6.362   4.553
  219DPPC    O910909   8.868   6.431   4.485
  219DPPC   O1010910   8.949   6.279   4.672
  219DPPC   O1110911   9.065   6.260   4.462
  219DPPC   C1210912   9.073   6.332   4.339
  219DPPC   C1310913   9.159   6.274   4.226
  219DPPC   O1410914   9.147   6.347   4.103
  219DPPC   C1510915   9.240   6.335   4.004
  219DPPC   O1610916   9.341   6.270   4.031
  219DPPC   C1710917   9.231   6.420   3.877
  219DPPC   C1810918   9.301   6.362   3.754
  219DPPC   C1910919   9.323   6.471   3.650
  219DPPC   C2010920   9.446   6.446   3.562
  219DPPC   C2110921   9.427   6.313   3.489
  219DPPC   C2210922   9.570   6.258   3.486
  219DPPC   C2310923   9.573   6.112   3.442
  219DPPC   C2410924   9.719   6.080   3.413
  219DPPC   C2510925   9.714   5.939   3.353
  219DPPC   C2610926   9.624   5.852   3.440
  219DPPC   C2710927   9.563   5.734   3.363
  219DPPC   C2810928   9.482   5.795   3.249
  219DPPC   C2910929   9.362   5.878   3.294
  219DPPC   C3010930   9.344   5.986   3.187
  219DPPC   C3110931   9.210   6.058   3.211
  219DPPC   C3210932   9.129   6.125   4.208
  219DPPC   O3310933   8.995   6.080   4.191
  219DPPC   C3410934   8.984   5.945   4.191
  219DPPC   O3510935   9.071   5.883   4.254
  219DPPC   C3610936   8.862   5.878   4.129
  219DPPC   C3710937   8.837   5.746   4.203
  219DPPC   C3810938   8.700   5.696   4.157
  219DPPC   C3910939   8.699   5.656   4.010
  219DPPC   C4010940   8.568   5.598   3.956
  219DPPC   C4110941   8.567   5.577   3.805
  219DPPC   C4210942   8.433   5.511   3.770
  219DPPC   C4310943   8.426   5.474   3.622
  219DPPC   C4410944   8.456   5.597   3.536
  219DPPC   C4510945   8.473   5.561   3.389
  219DPPC   C4610946   8.339   5.509   3.337
  219DPPC   C4710947   8.342   5.529   3.185
  219DPPC   C4810948   8.209   5.515   3.111
  219DPPC   C4910949   8.234   5.482   2.964
  219DPPC   C5010950   8.096   5.468   2.898
  220DPPC    C110951   4.503   6.723   5.074
  220DPPC    C210952   4.344   6.560   5.085
  220DPPC    C310953   4.356   6.704   4.901
  220DPPC    N410954   4.438   6.621   4.991
  220DPPC    C510955   4.517   6.520   4.918
  220DPPC    C610956   4.628   6.453   4.999
  220DPPC    O710957   4.577   6.361   5.095
  220DPPC    P810958   4.671   6.238   5.140
  220DPPC    O910959   4.598   6.188   5.259
  220DPPC   O1010960   4.808   6.293   5.132
  220DPPC   O1110961   4.622   6.151   5.014
  220DPPC   C1210962   4.729   6.113   4.926
  220DPPC   C1310963   4.690   6.075   4.783
  220DPPC   O1410964   4.807   6.049   4.703
  220DPPC   C1510965   4.846   5.918   4.704
  220DPPC   O1610966   4.798   5.837   4.782
  220DPPC   C1710967   4.973   5.896   4.621
  220DPPC   C1810968   4.958   5.902   4.469
  220DPPC   C1910969   5.084   5.892   4.383
  220DPPC   C2010970   5.154   5.757   4.397
  220DPPC   C2110971   5.265   5.717   4.300
  220DPPC   C2210972   5.209   5.678   4.163
  220DPPC   C2310973   5.331   5.660   4.073
  220DPPC   C2410974   5.441   5.565   4.119
  220DPPC   C2510975   5.541   5.526   4.010
  220DPPC   C2610976   5.493   5.416   3.916
  220DPPC   C2710977   5.605   5.376   3.820
  220DPPC   C2810978   5.544   5.283   3.715
  220DPPC   C2910979   5.652   5.241   3.615
  220DPPC   C3010980   5.615   5.286   3.474
  220DPPC   C3110981   5.743   5.292   3.390
  220DPPC   C3210982   4.613   6.194   4.727
  220DPPC   O3310983   4.560   6.190   4.594
  220DPPC   C3410984   4.495   6.301   4.550
  220DPPC   O3510985   4.492   6.407   4.611
  220DPPC   C3610986   4.422   6.278   4.417
  220DPPC   C3710987   4.528   6.296   4.308
  220DPPC   C3810988   4.583   6.158   4.272
  220DPPC   C3910989   4.683   6.177   4.158
  220DPPC   C4010990   4.650   6.112   4.023
  220DPPC   C4110991   4.509   6.147   3.975
  220DPPC   C4210992   4.482   6.056   3.855
  220DPPC   C4310993   4.592   6.067   3.749
  220DPPC   C4410994   4.559   5.981   3.626
  220DPPC   C4510995   4.686   5.960   3.544
  220DPPC   C4610996   4.758   6.092   3.517
  220DPPC   C4710997   4.680   6.189   3.428
  220DPPC   C4810998   4.760   6.318   3.411
  220DPPC   C4910999   4.693   6.416   3.315
  220DPPC   C5011000   4.776   6.544   3.330
  221DPPC    C111001   0.326   6.231   4.346
  221DPPC    C211002   0.275   6.037   4.227
  221DPPC    C311003   0.408   6.197   4.116
  221DPPC    N411004   0.381   6.137   4.248
  221DPPC    C511005   0.502   6.074   4.302
  221DPPC    C611006   0.627   6.152   4.344
  221DPPC    O711007   0.723   6.098   4.435
  221DPPC    P811008   0.832   6.214   4.460
  221DPPC    O911009   0.917   6.172   4.573
  221DPPC   O1011010   0.759   6.343   4.459
  221DPPC   O1111011   0.904   6.199   4.317
  221DPPC   C1211012   1.024   6.124   4.328
  221DPPC   C1311013   1.094   6.091   4.196
  221DPPC   O1411014   1.190   6.176   4.132
  221DPPC   C1511015   1.315   6.195   4.183
  221DPPC   O1611016   1.356   6.117   4.268
  221DPPC   C1711017   1.398   6.283   4.090
  221DPPC   C1811018   1.343   6.426   4.080
  221DPPC   C1911019   1.239   6.451   3.971
  221DPPC   C2011020   1.293   6.415   3.832
  221DPPC   C2111021   1.187   6.414   3.722
  221DPPC   C2211022   1.258   6.361   3.598
  221DPPC   C2311023   1.166   6.364   3.476
  221DPPC   C2411024   1.241   6.298   3.359
  221DPPC   C2511025   1.154   6.311   3.233
  221DPPC   C2611026   1.023   6.233   3.247
  221DPPC   C2711027   0.933   6.236   3.124
  221DPPC   C2811028   0.869   6.373   3.097
  221DPPC   C2911029   0.831   6.404   2.952
  221DPPC   C3011030   0.932   6.502   2.893
  221DPPC   C3111031   0.935   6.618   2.993
  221DPPC   C3211032   0.978   6.058   4.102
  221DPPC   O3311033   0.940   5.922   4.129
  221DPPC   C3411034   0.821   5.902   4.067
  221DPPC   O3511035   0.744   5.995   4.042
  221DPPC   C3611036   0.770   5.760   4.087
  221DPPC   C3711037   0.743   5.693   3.952
  221DPPC   C3811038   0.670   5.559   3.967
  221DPPC   C3911039   0.674   5.450   3.861
  221DPPC   C4011040   0.602   5.495   3.733
  221DPPC   C4111041   0.653   5.395   3.629
  221DPPC   C4211042   0.595   5.436   3.494
  221DPPC   C4311043   0.442   5.424   3.487
  221DPPC   C4411044   0.382   5.422   3.346
  221DPPC   C4511045   0.234   5.382   3.344
  221DPPC   C4611046   0.170   5.425   3.211
  221DPPC   C4711047   0.037   5.354   3.187
  221DPPC   C4811048  -0.021   5.385   3.048
  221DPPC   C4911049  -0.151   5.307   3.025
  221DPPC   C5011050  -0.129   5.157   3.044
  222DPPC    C111051   5.790   4.105   6.194
  222DPPC    C211052   5.608   3.974   6.203
  222DPPC    C311053   5.649   4.093   5.996
  222DPPC    N411054   5.711   4.017   6.107
  222DPPC    C511055   5.815   3.929   6.054
  222DPPC    C611056   5.796   3.781   6.019
  222DPPC    O711057   5.679   3.756   5.941
  222DPPC    P811058   5.652   3.597   5.949
  222DPPC    O911059   5.505   3.591   5.966
  222DPPC   O1011060   5.743   3.526   6.041
  222DPPC   O1111061   5.709   3.565   5.802
  222DPPC   C1211062   5.617   3.614   5.704
  222DPPC   C1311063   5.655   3.611   5.556
  222DPPC   O1411064   5.540   3.626   5.470
  222DPPC   C1511065   5.504   3.741   5.406
  222DPPC   O1611066   5.568   3.842   5.434
  222DPPC   C1711067   5.429   3.712   5.276
  222DPPC   C1811068   5.447   3.803   5.154
  222DPPC   C1911069   5.583   3.813   5.085
  222DPPC   C2011070   5.568   3.919   4.977
  222DPPC   C2111071   5.457   3.886   4.877
  222DPPC   C2211072   5.495   3.954   4.745
  222DPPC   C2311073   5.385   3.953   4.639
  222DPPC   C2411074   5.427   4.046   4.525
  222DPPC   C2511075   5.317   4.061   4.421
  222DPPC   C2611076   5.247   4.197   4.424
  222DPPC   C2711077   5.174   4.218   4.291
  222DPPC   C2811078   5.102   4.353   4.294
  222DPPC   C2911079   5.028   4.357   4.428
  222DPPC   C3011080   4.955   4.486   4.464
  222DPPC   C3111081   4.957   4.485   4.617
  222DPPC   C3211082   5.736   3.482   5.538
  222DPPC   O3311083   5.831   3.486   5.431
  222DPPC   C3411084   5.873   3.370   5.375
  222DPPC   O3511085   5.819   3.261   5.388
  222DPPC   C3611086   5.990   3.386   5.276
  222DPPC   C3711087   5.938   3.384   5.133
  222DPPC   C3811088   5.822   3.473   5.089
  222DPPC   C3911089   5.796   3.447   4.940
  222DPPC   C4011090   5.697   3.541   4.872
  222DPPC   C4111091   5.704   3.522   4.721
  222DPPC   C4211092   5.612   3.618   4.645
  222DPPC   C4311093   5.618   3.595   4.494
  222DPPC   C4411094   5.527   3.704   4.437
  222DPPC   C4511095   5.526   3.695   4.285
  222DPPC   C4611096   5.425   3.782   4.210
  222DPPC   C4711097   5.460   3.786   4.061
  222DPPC   C4811098   5.367   3.876   3.979
  222DPPC   C4911099   5.215   3.859   3.991
  222DPPC   C5011100   5.141   3.921   3.873
  223DPPC    C111101   3.384   7.423   5.679
  223DPPC    C211102   3.466   7.201   5.700
  223DPPC    C311103   3.237   7.240   5.646
  223DPPC    N411104   3.375   7.287   5.624
  223DPPC    C511105   3.436   7.281   5.490
  223DPPC    C611106   3.381   7.373   5.380
  223DPPC    O711107   3.423   7.338   5.248
  223DPPC    P811108   3.340   7.420   5.138
  223DPPC    O911109   3.418   7.542   5.110
  223DPPC   O1011110   3.204   7.418   5.195
  223DPPC   O1111111   3.365   7.300   5.033
  223DPPC   C1211112   3.485   7.326   4.960
  223DPPC   C1311113   3.549   7.207   4.887
  223DPPC   O1411114   3.657   7.259   4.809
  223DPPC   C1511115   3.772   7.186   4.808
  223DPPC   O1611116   3.779   7.083   4.874
  223DPPC   C1711117   3.891   7.236   4.726
  223DPPC   C1811118   3.846   7.296   4.593
  223DPPC   C1911119   3.788   7.189   4.500
  223DPPC   C2011120   3.763   7.241   4.358
  223DPPC   C2111121   3.724   7.144   4.247
  223DPPC   C2211122   3.853   7.095   4.181
  223DPPC   C2311123   3.838   7.008   4.056
  223DPPC   C2411124   3.806   7.103   3.940
  223DPPC   C2511125   3.821   7.036   3.804
  223DPPC   C2611126   3.966   7.019   3.756
  223DPPC   C2711127   3.966   6.962   3.614
  223DPPC   C2811128   3.918   6.816   3.614
  223DPPC   C2911129   3.960   6.745   3.485
  223DPPC   C3011130   3.887   6.611   3.476
  223DPPC   C3111131   3.935   6.541   3.348
  223DPPC   C3211132   3.434   7.137   4.814
  223DPPC   O3311133   3.360   7.203   4.711
  223DPPC   C3411134   3.258   7.134   4.652
  223DPPC   O3511135   3.225   7.028   4.705
  223DPPC   C3611136   3.194   7.189   4.524
  223DPPC   C3711137   3.292   7.194   4.407
  223DPPC   C3811138   3.228   7.225   4.271
  223DPPC   C3911139   3.331   7.255   4.163
  223DPPC   C4011140   3.283   7.284   4.020
  223DPPC   C4111141   3.405   7.315   3.933
  223DPPC   C4211142   3.360   7.379   3.801
  223DPPC   C4311143   3.488   7.397   3.719
  223DPPC   C4411144   3.449   7.434   3.576
  223DPPC   C4511145   3.566   7.460   3.481
  223DPPC   C4611146   3.517   7.477   3.337
  223DPPC   C4711147   3.635   7.518   3.249
  223DPPC   C4811148   3.590   7.532   3.104
  223DPPC   C4911149   3.713   7.505   3.016
  223DPPC   C5011150   3.679   7.530   2.869
  224DPPC    C111151   3.488   3.469   5.865
  224DPPC    C211152   3.271   3.384   5.792
  224DPPC    C311153   3.286   3.597   5.878
  224DPPC    N411154   3.361   3.500   5.797
  224DPPC    C511155   3.381   3.569   5.669
  224DPPC    C611156   3.487   3.516   5.572
  224DPPC    O711157   3.474   3.380   5.532
  224DPPC    P811158   3.615   3.318   5.484
  224DPPC    O911159   3.562   3.180   5.487
  224DPPC   O1011160   3.713   3.374   5.579
  224DPPC   O1111161   3.613   3.385   5.338
  224DPPC   C1211162   3.601   3.278   5.244
  224DPPC   C1311163   3.600   3.318   5.096
  224DPPC   O1411164   3.592   3.208   5.005
  224DPPC   C1511165   3.684   3.108   4.997
  224DPPC   O1611166   3.782   3.110   5.071
  224DPPC   C1711167   3.692   3.035   4.863
  224DPPC   C1811168   3.676   3.134   4.748
  224DPPC   C1911169   3.679   3.057   4.615
  224DPPC   C2011170   3.673   3.151   4.494
  224DPPC   C2111171   3.676   3.097   4.351
  224DPPC   C2211172   3.560   3.004   4.313
  224DPPC   C2311173   3.581   2.958   4.169
  224DPPC   C2411174   3.467   2.874   4.112
  224DPPC   C2511175   3.485   2.859   3.961
  224DPPC   C2611176   3.612   2.780   3.929
  224DPPC   C2711177   3.600   2.700   3.799
  224DPPC   C2811178   3.575   2.784   3.673
  224DPPC   C2911179   3.592   2.706   3.543
  224DPPC   C3011180   3.575   2.794   3.419
  224DPPC   C3111181   3.591   2.715   3.289
  224DPPC   C3211182   3.728   3.401   5.084
  224DPPC   O3311183   3.714   3.502   4.984
  224DPPC   C3411184   3.830   3.566   4.952
  224DPPC   O3511185   3.932   3.558   5.020
  224DPPC   C3611186   3.820   3.655   4.828
  224DPPC   C3711187   3.737   3.601   4.710
  224DPPC   C3811188   3.751   3.701   4.595
  224DPPC   C3911189   3.684   3.649   4.467
  224DPPC   C4011190   3.693   3.748   4.351
  224DPPC   C4111191   3.649   3.681   4.220
  224DPPC   C4211192   3.695   3.747   4.090
  224DPPC   C4311193   3.616   3.687   3.974
  224DPPC   C4411194   3.647   3.768   3.848
  224DPPC   C4511195   3.592   3.692   3.727
  224DPPC   C4611196   3.579   3.788   3.609
  224DPPC   C4711197   3.579   3.709   3.478
  224DPPC   C4811198   3.698   3.614   3.468
  224DPPC   C4911199   3.670   3.536   3.340
  224DPPC   C5011200   3.763   3.418   3.308
  225DPPC    C111201   8.895   3.113   5.113
  225DPPC    C211202   9.083   3.244   5.113
  225DPPC    C311203   8.981   3.177   5.321
  225DPPC    N411204   9.021   3.133   5.187
  225DPPC    C511205   9.105   3.013   5.194
  225DPPC    C611206   9.235   3.017   5.275
  225DPPC    O711207   9.329   3.121   5.246
  225DPPC    P811208   9.455   3.094   5.342
  225DPPC    O911209   9.421   2.991   5.443
  225DPPC   O1011210   9.515   3.227   5.369
  225DPPC   O1111211   9.540   3.017   5.229
  225DPPC   C1211212   9.616   3.107   5.148
  225DPPC   C1311213   9.602   3.085   4.998
  225DPPC   O1411214   9.682   3.184   4.931
  225DPPC   C1511215   9.816   3.175   4.909
  225DPPC   O1611216   9.886   3.142   5.004
  225DPPC   C1711217   9.863   3.281   4.810
  225DPPC   C1811218   9.859   3.216   4.671
  225DPPC   C1911219   9.896   3.318   4.564
  225DPPC   C2011220   9.856   3.262   4.427
  225DPPC   C2111221   9.908   3.346   4.310
  225DPPC   C2211222   9.831   3.302   4.186
  225DPPC   C2311223   9.881   3.364   4.055
  225DPPC   C2411224   9.785   3.329   3.941
  225DPPC   C2511225   9.836   3.378   3.805
  225DPPC   C2611226   9.737   3.358   3.690
  225DPPC   C2711227   9.791   3.414   3.559
  225DPPC   C2811228   9.714   3.352   3.442
  225DPPC   C2911229   9.802   3.363   3.318
  225DPPC   C3011230   9.733   3.304   3.195
  225DPPC   C3111231   9.814   3.335   3.069
  225DPPC   C3211232   9.452   3.087   4.972
  225DPPC   O3311233   9.415   2.988   4.875
  225DPPC   C3411234   9.294   3.001   4.814
  225DPPC   O3511235   9.218   3.090   4.852
  225DPPC   C3611236   9.260   2.884   4.722
  225DPPC   C3711237   9.297   2.930   4.581
  225DPPC   C3811238   9.252   2.805   4.504
  225DPPC   C3911239   9.287   2.819   4.356
  225DPPC   C4011240   9.294   2.683   4.286
  225DPPC   C4111241   9.317   2.696   4.136
  225DPPC   C4211242   9.334   2.558   4.072
  225DPPC   C4311243   9.316   2.583   3.922
  225DPPC   C4411244   9.355   2.458   3.842
  225DPPC   C4511245   9.344   2.478   3.690
  225DPPC   C4611246   9.466   2.561   3.650
  225DPPC   C4711247   9.460   2.594   3.500
  225DPPC   C4811248   9.465   2.469   3.412
  225DPPC   C4911249   9.485   2.494   3.262
  225DPPC   C5011250   9.617   2.571   3.248
  226DPPC    C111251   3.767   7.951   5.375
  226DPPC    C211252   3.738   8.181   5.352
  226DPPC    C311253   3.955   8.107   5.334
  226DPPC    N411254   3.817   8.068   5.302
  226DPPC    C511255   3.783   8.049   5.160
  226DPPC    C611256   3.866   7.954   5.072
  226DPPC    O711257   3.973   8.023   5.007
  226DPPC    P811258   4.062   7.909   4.937
  226DPPC    O911259   3.955   7.854   4.852
  226DPPC   O1011260   4.107   7.840   5.061
  226DPPC   O1111261   4.148   8.036   4.890
  226DPPC   C1211262   4.107   8.102   4.770
  226DPPC   C1311263   4.207   8.116   4.655
  226DPPC   O1411264   4.162   8.190   4.540
  226DPPC   C1511265   4.185   8.324   4.531
  226DPPC   O1611266   4.219   8.385   4.632
  226DPPC   C1711267   4.138   8.390   4.402
  226DPPC   C1811268   4.247   8.459   4.319
  226DPPC   C1911269   4.375   8.377   4.297
  226DPPC   C2011270   4.465   8.419   4.181
  226DPPC   C2111271   4.604   8.355   4.193
  226DPPC   C2211272   4.678   8.371   4.060
  226DPPC   C2311273   4.820   8.317   4.073
  226DPPC   C2411274   4.880   8.306   3.933
  226DPPC   C2511275   5.025   8.259   3.926
  226DPPC   C2611276   5.085   8.260   3.785
  226DPPC   C2711277   5.224   8.198   3.795
  226DPPC   C2811278   5.302   8.223   3.667
  226DPPC   C2911279   5.229   8.156   3.550
  226DPPC   C3011280   5.329   8.134   3.437
  226DPPC   C3111281   5.438   8.037   3.481
  226DPPC   C3211282   4.270   7.980   4.626
  226DPPC   O3311283   4.173   7.876   4.615
  226DPPC   C3411284   4.226   7.751   4.616
  226DPPC   O3511285   4.344   7.726   4.638
  226DPPC   C3611286   4.130   7.634   4.590
  226DPPC   C3711287   4.100   7.608   4.442
  226DPPC   C3811288   4.211   7.542   4.361
  226DPPC   C3911289   4.159   7.416   4.292
  226DPPC   C4011290   4.279   7.373   4.208
  226DPPC   C4111291   4.244   7.282   4.090
  226DPPC   C4211292   4.366   7.262   4.001
  226DPPC   C4311293   4.321   7.195   3.871
  226DPPC   C4411294   4.440   7.189   3.776
  226DPPC   C4511295   4.385   7.152   3.638
  226DPPC   C4611296   4.498   7.088   3.558
  226DPPC   C4711297   4.456   7.041   3.418
  226DPPC   C4811298   4.580   6.984   3.349
  226DPPC   C4911299   4.555   6.945   3.204
  226DPPC   C5011300   4.685   6.913   3.128
  227DPPC    C111301   4.638   4.129   1.334
  227DPPC    C211302   4.694   4.344   1.288
  227DPPC    C311303   4.465   4.292   1.272
  227DPPC    N411304   4.586   4.265   1.350
  227DPPC    C511305   4.568   4.308   1.490
  227DPPC    C611306   4.551   4.458   1.516
  227DPPC    O711307   4.524   4.486   1.653
  227DPPC    P811308   4.583   4.628   1.701
  227DPPC    O911309   4.511   4.670   1.823
  227DPPC   O1011310   4.598   4.713   1.580
  227DPPC   O1111311   4.735   4.590   1.739
  227DPPC   C1211312   4.740   4.580   1.881
  227DPPC   C1311313   4.876   4.523   1.920
  227DPPC   O1411314   4.885   4.448   2.041
  227DPPC   C1511315   4.818   4.330   2.055
  227DPPC   O1611316   4.759   4.286   1.957
  227DPPC   C1711317   4.810   4.266   2.194
  227DPPC   C1811318   4.926   4.172   2.228
  227DPPC   C1911319   4.926   4.149   2.380
  227DPPC   C2011320   5.030   4.053   2.437
  227DPPC   C2111321   5.003   4.027   2.585
  227DPPC   C2211322   5.111   3.948   2.659
  227DPPC   C2311323   5.083   3.900   2.801
  227DPPC   C2411324   5.220   3.907   2.868
  227DPPC   C2511325   5.171   3.854   3.003
  227DPPC   C2611326   5.280   3.834   3.109
  227DPPC   C2711327   5.212   3.813   3.244
  227DPPC   C2811328   5.310   3.802   3.362
  227DPPC   C2911329   5.248   3.754   3.493
  227DPPC   C3011330   5.198   3.611   3.474
  227DPPC   C3111331   5.148   3.571   3.613
  227DPPC   C3211332   4.979   4.634   1.897
  227DPPC   O3311333   4.969   4.729   2.004
  227DPPC   C3411334   5.079   4.808   2.017
  227DPPC   O3511335   5.152   4.826   1.920
  227DPPC   C3611336   5.095   4.902   2.137
  227DPPC   C3711337   5.219   4.861   2.216
  227DPPC   C3811338   5.254   4.949   2.337
  227DPPC   C3911339   5.174   4.920   2.464
  227DPPC   C4011340   5.215   5.012   2.579
  227DPPC   C4111341   5.156   4.989   2.718
  227DPPC   C4211342   5.252   5.050   2.820
  227DPPC   C4311343   5.176   5.047   2.953
  227DPPC   C4411344   5.244   5.110   3.075
  227DPPC   C4511345   5.180   5.052   3.202
  227DPPC   C4611346   5.278   5.085   3.315
  227DPPC   C4711347   5.242   4.997   3.435
  227DPPC   C4811348   5.348   5.024   3.543
  227DPPC   C4911349   5.301   4.930   3.653
  227DPPC   C5011350   5.384   4.941   3.781
  228DPPC    C111351   5.469   2.748   1.862
  228DPPC    C211352   5.631   2.671   1.692
  228DPPC    C311353   5.435   2.565   1.708
  228DPPC    N411354   5.491   2.700   1.725
  228DPPC    C511355   5.414   2.775   1.625
  228DPPC    C611356   5.419   2.928   1.626
  228DPPC    O711357   5.543   2.972   1.571
  228DPPC    P811358   5.531   3.128   1.535
  228DPPC    O911359   5.395   3.149   1.482
  228DPPC   O1011360   5.650   3.162   1.453
  228DPPC   O1111361   5.532   3.201   1.678
  228DPPC   C1211362   5.657   3.171   1.740
  228DPPC   C1311363   5.663   3.189   1.892
  228DPPC   O1411364   5.592   3.088   1.964
  228DPPC   C1511365   5.610   3.094   2.099
  228DPPC   O1611366   5.708   3.141   2.156
  228DPPC   C1711367   5.516   2.998   2.173
  228DPPC   C1811368   5.465   3.072   2.297
  228DPPC   C1911369   5.384   2.975   2.382
  228DPPC   C2011370   5.332   3.060   2.497
  228DPPC   C2111371   5.245   2.980   2.595
  228DPPC   C2211372   5.201   3.089   2.693
  228DPPC   C2311373   5.138   3.032   2.821
  228DPPC   C2411374   5.005   2.967   2.781
  228DPPC   C2511375   4.912   2.948   2.901
  228DPPC   C2611376   4.798   2.849   2.874
  228DPPC   C2711377   4.761   2.768   2.999
  228DPPC   C2811378   4.879   2.684   3.048
  228DPPC   C2911379   4.827   2.617   3.175
  228DPPC   C3011380   4.937   2.519   3.218
  228DPPC   C3111381   4.888   2.415   3.319
  228DPPC   C3211382   5.622   3.332   1.927
  228DPPC   O3311383   5.727   3.429   1.929
  228DPPC   C3411384   5.686   3.556   1.956
  228DPPC   O3511385   5.573   3.590   1.920
  228DPPC   C3611386   5.803   3.642   2.003
  228DPPC   C3711387   5.781   3.734   2.123
  228DPPC   C3811388   5.804   3.663   2.257
  228DPPC   C3911389   5.798   3.776   2.360
  228DPPC   C4011390   5.796   3.716   2.500
  228DPPC   C4111391   5.791   3.833   2.598
  228DPPC   C4211392   5.788   3.753   2.729
  228DPPC   C4311393   5.769   3.851   2.845
  228DPPC   C4411394   5.749   3.769   2.972
  228DPPC   C4511395   5.700   3.869   3.078
  228DPPC   C4611396   5.734   3.831   3.222
  228DPPC   C4711397   5.869   3.894   3.255
  228DPPC   C4811398   5.990   3.822   3.194
  228DPPC   C4911399   6.110   3.903   3.244
  228DPPC   C5011400   6.239   3.855   3.178
  229DPPC    C111401   3.219   3.944   1.928
  229DPPC    C211402   3.451   3.985   1.917
  229DPPC    C311403   3.358   3.860   2.106
  229DPPC    N411404   3.350   3.888   1.961
  229DPPC    C511405   3.376   3.761   1.892
  229DPPC    C611406   3.275   3.648   1.916
  229DPPC    O711407   3.332   3.521   1.881
  229DPPC    P811408   3.245   3.390   1.914
  229DPPC    O911409   3.331   3.292   1.843
  229DPPC   O1011410   3.106   3.421   1.873
  229DPPC   O1111411   3.277   3.400   2.072
  229DPPC   C1211412   3.299   3.270   2.127
  229DPPC   C1311413   3.328   3.266   2.277
  229DPPC   O1411414   3.210   3.239   2.354
  229DPPC   C1511415   3.180   3.109   2.383
  229DPPC   O1611416   3.238   3.018   2.324
  229DPPC   C1711417   3.066   3.078   2.480
  229DPPC   C1811418   3.118   2.978   2.584
  229DPPC   C1911419   3.019   2.954   2.698
  229DPPC   C2011420   3.075   2.856   2.801
  229DPPC   C2111421   3.015   2.879   2.940
  229DPPC   C2211422   2.969   2.746   3.001
  229DPPC   C2311423   2.900   2.774   3.134
  229DPPC   C2411424   2.824   2.649   3.178
  229DPPC   C2511425   2.789   2.642   3.327
  229DPPC   C2611426   2.705   2.518   3.356
  229DPPC   C2711427   2.710   2.465   3.499
  229DPPC   C2811428   2.689   2.582   3.596
  229DPPC   C2911429   2.693   2.522   3.737
  229DPPC   C3011430   2.745   2.597   3.859
  229DPPC   C3111431   2.749   2.499   3.977
  229DPPC   C3211432   3.397   3.393   2.326
  229DPPC   O3311433   3.519   3.425   2.257
  229DPPC   C3411434   3.574   3.547   2.277
  229DPPC   O3511435   3.515   3.648   2.315
  229DPPC   C3611436   3.715   3.553   2.216
  229DPPC   C3711437   3.833   3.528   2.310
  229DPPC   C3811438   3.810   3.606   2.440
  229DPPC   C3911439   3.938   3.595   2.524
  229DPPC   C4011440   3.928   3.681   2.650
  229DPPC   C4111441   4.053   3.659   2.736
  229DPPC   C4211442   4.017   3.707   2.877
  229DPPC   C4311443   4.132   3.739   2.973
  229DPPC   C4411444   4.069   3.774   3.108
  229DPPC   C4511445   4.177   3.806   3.211
  229DPPC   C4611446   4.124   3.832   3.352
  229DPPC   C4711447   4.072   3.976   3.362
  229DPPC   C4811448   4.033   4.007   3.506
  229DPPC   C4911449   4.017   4.158   3.521
  229DPPC   C5011450   3.969   4.183   3.664
  230DPPC    C111451   5.473   1.108   2.073
  230DPPC    C211452   5.312   1.096   2.258
  230DPPC    C311453   5.294   1.253   2.077
  230DPPC    N411454   5.332   1.116   2.113
  230DPPC    C511455   5.260   1.004   2.051
  230DPPC    C611456   5.283   0.954   1.908
  230DPPC    O711457   5.172   0.899   1.838
  230DPPC    P811458   5.207   0.752   1.784
  230DPPC    O911459   5.335   0.769   1.713
  230DPPC   O1011460   5.094   0.703   1.701
  230DPPC   O1111461   5.222   0.687   1.930
  230DPPC   C1211462   5.092   0.640   1.968
  230DPPC   C1311463   5.055   0.655   2.116
  230DPPC   O1411464   5.014   0.784   2.162
  230DPPC   C1511465   4.889   0.833   2.137
  230DPPC   O1611466   4.815   0.794   2.047
  230DPPC   C1711467   4.834   0.942   2.229
  230DPPC   C1811468   4.819   0.886   2.371
  230DPPC   C1911469   4.777   1.006   2.455
  230DPPC   C2011470   4.777   0.966   2.603
  230DPPC   C2111471   4.741   1.093   2.681
  230DPPC   C2211472   4.591   1.123   2.686
  230DPPC   C2311473   4.582   1.235   2.790
  230DPPC   C2411474   4.683   1.345   2.757
  230DPPC   C2511475   4.662   1.452   2.864
  230DPPC   C2611476   4.709   1.395   2.999
  230DPPC   C2711477   4.691   1.479   3.125
  230DPPC   C2811478   4.724   1.381   3.238
  230DPPC   C2911479   4.858   1.309   3.227
  230DPPC   C3011480   4.873   1.236   3.360
  230DPPC   C3111481   4.992   1.141   3.373
  230DPPC   C3211482   5.176   0.597   2.190
  230DPPC   O3311483   5.181   0.580   2.331
  230DPPC   C3411484   5.227   0.693   2.390
  230DPPC   O3511485   5.278   0.787   2.329
  230DPPC   C3611486   5.214   0.702   2.542
  230DPPC   C3711487   5.222   0.563   2.605
  230DPPC   C3811488   5.245   0.574   2.756
  230DPPC   C3911489   5.218   0.439   2.821
  230DPPC   C4011490   5.238   0.438   2.973
  230DPPC   C4111491   5.202   0.295   3.016
  230DPPC   C4211492   5.055   0.258   3.002
  230DPPC   C4311493   4.984   0.327   3.119
  230DPPC   C4411494   4.833   0.305   3.118
  230DPPC   C4511495   4.755   0.376   3.230
  230DPPC   C4611496   4.603   0.363   3.223
  230DPPC   C4711497   4.536   0.445   3.334
  230DPPC   C4811498   4.544   0.593   3.299
  230DPPC   C4911499   4.405   0.646   3.262
  230DPPC   C5011500   4.298   0.615   3.367
  231DPPC    C111501   1.016   0.218   1.560
  231DPPC    C211502   1.097   0.398   1.462
  231DPPC    C311503   1.266   0.270   1.575
  231DPPC    N411504   1.141   0.262   1.497
  231DPPC    C511505   1.168   0.187   1.374
  231DPPC    C611506   1.250   0.058   1.371
  231DPPC    O711507   1.184  -0.049   1.440
  231DPPC    P811508   1.290  -0.166   1.473
  231DPPC    O911509   1.385  -0.123   1.578
  231DPPC   O1011510   1.312  -0.247   1.351
  231DPPC   O1111511   1.174  -0.246   1.550
  231DPPC   C1211512   1.163  -0.191   1.682
  231DPPC   C1311513   1.027  -0.213   1.748
  231DPPC   O1411514   1.007  -0.143   1.872
  231DPPC   C1511515   0.906  -0.052   1.876
  231DPPC   O1611516   0.831  -0.039   1.779
  231DPPC   C1711517   0.896   0.042   1.997
  231DPPC   C1811518   0.932   0.186   1.961
  231DPPC   C1911519   0.883   0.289   2.064
  231DPPC   C2011520   0.731   0.306   2.062
  231DPPC   C2111521   0.694   0.423   2.153
  231DPPC   C2211522   0.747   0.406   2.295
  231DPPC   C2311523   0.714   0.525   2.384
  231DPPC   C2411524   0.747   0.486   2.528
  231DPPC   C2511525   0.706   0.609   2.609
  231DPPC   C2611526   0.742   0.595   2.757
  231DPPC   C2711527   0.702   0.717   2.841
  231DPPC   C2811528   0.708   0.679   2.989
  231DPPC   C2911529   0.711   0.807   3.074
  231DPPC   C3011530   0.727   0.777   3.223
  231DPPC   C3111531   0.609   0.698   3.279
  231DPPC   C3211532   1.008  -0.365   1.743
  231DPPC   O3311533   1.129  -0.433   1.777
  231DPPC   C3411534   1.113  -0.566   1.802
  231DPPC   O3511535   1.047  -0.633   1.723
  231DPPC   C3611536   1.218  -0.624   1.897
  231DPPC   C3711537   1.147  -0.661   2.027
  231DPPC   C3811538   1.262  -0.730   2.099
  231DPPC   C3911539   1.234  -0.805   2.230
  231DPPC   C4011540   1.367  -0.862   2.280
  231DPPC   C4111541   1.351  -0.943   2.409
  231DPPC   C4211542   1.492  -0.983   2.452
  231DPPC   C4311543   1.562  -0.851   2.486
  231DPPC   C4411544   1.684  -0.861   2.577
  231DPPC   C4511545   1.748  -0.722   2.580
  231DPPC   C4611546   1.890  -0.735   2.524
  231DPPC   C4711547   1.973  -0.607   2.539
  231DPPC   C4811548   2.107  -0.644   2.603
  231DPPC   C4911549   2.227  -0.583   2.531
  231DPPC   C5011550   2.351  -0.659   2.580
  232DPPC    C111551   7.646   6.895   1.041
  232DPPC    C211552   7.750   7.022   1.222
  232DPPC    C311553   7.527   7.056   1.166
  232DPPC    N411554   7.630   6.951   1.176
  232DPPC    C511555   7.598   6.840   1.267
  232DPPC    C611556   7.709   6.739   1.299
  232DPPC    O711557   7.659   6.620   1.361
  232DPPC    P811558   7.731   6.484   1.313
  232DPPC    O911559   7.777   6.498   1.173
  232DPPC   O1011560   7.642   6.374   1.356
  232DPPC   O1111561   7.854   6.486   1.417
  232DPPC   C1211562   7.813   6.446   1.548
  232DPPC   C1311563   7.894   6.512   1.660
  232DPPC   O1411564   7.897   6.435   1.781
  232DPPC   C1511565   8.005   6.354   1.798
  232DPPC   O1611566   8.096   6.358   1.716
  232DPPC   C1711567   8.010   6.273   1.928
  232DPPC   C1811568   8.138   6.297   2.008
  232DPPC   C1911569   8.128   6.208   2.132
  232DPPC   C2011570   8.235   6.233   2.240
  232DPPC   C2111571   8.202   6.144   2.360
  232DPPC   C2211572   8.302   6.148   2.476
  232DPPC   C2311573   8.252   6.068   2.596
  232DPPC   C2411574   8.339   6.103   2.717
  232DPPC   C2511575   8.490   6.100   2.696
  232DPPC   C2611576   8.559   6.131   2.829
  232DPPC   C2711577   8.558   6.006   2.917
  232DPPC   C2811578   8.621   6.033   3.055
  232DPPC   C2911579   8.549   6.147   3.127
  232DPPC   C3011580   8.598   6.167   3.271
  232DPPC   C3111581   8.518   6.278   3.340
  232DPPC   C3211582   7.844   6.657   1.664
  232DPPC   O3311583   7.704   6.674   1.688
  232DPPC   C3411584   7.663   6.803   1.677
  232DPPC   O3511585   7.727   6.883   1.608
  232DPPC   C3611586   7.525   6.831   1.736
  232DPPC   C3711587   7.533   6.926   1.856
  232DPPC   C3811588   7.565   6.841   1.979
  232DPPC   C3911589   7.574   6.944   2.092
  232DPPC   C4011590   7.439   7.014   2.110
  232DPPC   C4111591   7.444   7.110   2.229
  232DPPC   C4211592   7.494   7.029   2.348
  232DPPC   C4311593   7.500   7.110   2.478
  232DPPC   C4411594   7.546   7.029   2.599
  232DPPC   C4511595   7.673   6.948   2.573
  232DPPC   C4611596   7.675   6.828   2.668
  232DPPC   C4711597   7.819   6.777   2.673
  232DPPC   C4811598   7.837   6.652   2.760
  232DPPC   C4911599   7.730   6.553   2.713
  232DPPC   C5011600   7.725   6.436   2.812
  233DPPC    C111601   0.357   5.372   1.007
  233DPPC    C211602   0.529   5.208   1.010
  233DPPC    C311603   0.565   5.425   0.949
  233DPPC    N411604   0.495   5.345   1.051
  233DPPC    C511605   0.530   5.368   1.192
  233DPPC    C611606   0.516   5.512   1.240
  233DPPC    O711607   0.638   5.567   1.291
  233DPPC    P811608   0.611   5.720   1.332
  233DPPC    O911609   0.522   5.765   1.222
  233DPPC   O1011610   0.736   5.793   1.362
  233DPPC   O1111611   0.521   5.697   1.464
  233DPPC   C1211612   0.476   5.814   1.533
  233DPPC   C1311613   0.356   5.897   1.486
  233DPPC   O1411614   0.338   6.017   1.563
  233DPPC   C1511615   0.402   6.131   1.526
  233DPPC   O1611616   0.482   6.123   1.433
  233DPPC   C1711617   0.396   6.249   1.623
  233DPPC   C1811618   0.531   6.289   1.682
  233DPPC   C1911619   0.499   6.394   1.788
  233DPPC   C2011620   0.630   6.446   1.849
  233DPPC   C2111621   0.707   6.337   1.923
  233DPPC   C2211622   0.834   6.388   1.992
  233DPPC   C2311623   0.900   6.267   2.058
  233DPPC   C2411624   1.046   6.297   2.090
  233DPPC   C2511625   1.106   6.187   2.178
  233DPPC   C2611626   1.104   6.054   2.102
  233DPPC   C2711627   1.201   5.953   2.164
  233DPPC   C2811628   1.193   5.966   2.316
  233DPPC   C2911629   1.297   5.873   2.380
  233DPPC   C3011630   1.275   5.867   2.532
  233DPPC   C3111631   1.351   5.751   2.597
  233DPPC   C3211632   0.237   5.803   1.509
  233DPPC   O3311633   0.251   5.725   1.628
  233DPPC   C3411634   0.142   5.648   1.654
  233DPPC   O3511635   0.051   5.646   1.571
  233DPPC   C3611636   0.137   5.572   1.787
  233DPPC   C3711637   0.069   5.653   1.898
  233DPPC   C3811638   0.138   5.786   1.928
  233DPPC   C3911639   0.064   5.874   2.028
  233DPPC   C4011640   0.149   5.996   2.066
  233DPPC   C4111641   0.284   5.950   2.121
  233DPPC   C4211642   0.375   6.068   2.157
  233DPPC   C4311643   0.507   6.011   2.207
  233DPPC   C4411644   0.605   6.105   2.278
  233DPPC   C4511645   0.703   6.028   2.367
  233DPPC   C4611646   0.754   6.117   2.480
  233DPPC   C4711647   0.878   6.055   2.545
  233DPPC   C4811648   0.934   6.144   2.657
  233DPPC   C4911649   1.025   6.061   2.748
  233DPPC   C5011650   0.930   5.951   2.797
  234DPPC    C111651   8.479   1.891   0.879
  234DPPC    C211652   8.408   1.670   0.928
  234DPPC    C311653   8.618   1.697   0.858
  234DPPC    N411654   8.519   1.765   0.943
  234DPPC    C511655   8.568   1.777   1.081
  234DPPC    C611656   8.677   1.870   1.135
  234DPPC    O711657   8.806   1.854   1.075
  234DPPC    P811658   8.902   1.979   1.106
  234DPPC    O911659   8.805   2.087   1.077
  234DPPC   O1011660   9.020   1.949   1.021
  234DPPC   O1111661   8.923   1.930   1.258
  234DPPC   C1211662   8.877   2.028   1.352
  234DPPC   C1311663   8.848   1.954   1.483
  234DPPC   O1411664   8.824   2.046   1.590
  234DPPC   C1511665   8.724   2.008   1.675
  234DPPC   O1611666   8.615   1.971   1.632
  234DPPC   C1711667   8.735   2.066   1.816
  234DPPC   C1811668   8.882   2.083   1.854
  234DPPC   C1911669   8.910   2.095   2.004
  234DPPC   C2011670   8.866   1.972   2.085
  234DPPC   C2111671   8.896   1.986   2.234
  234DPPC   C2211672   8.838   1.861   2.301
  234DPPC   C2311673   8.830   1.894   2.451
  234DPPC   C2411674   8.718   1.816   2.519
  234DPPC   C2511675   8.715   1.850   2.669
  234DPPC   C2611676   8.592   1.796   2.741
  234DPPC   C2711677   8.587   1.821   2.892
  234DPPC   C2811678   8.460   1.764   2.956
  234DPPC   C2911679   8.465   1.761   3.109
  234DPPC   C3011680   8.329   1.711   3.157
  234DPPC   C3111681   8.326   1.712   3.310
  234DPPC   C3211682   8.979   1.882   1.514
  234DPPC   O3311683   8.984   1.778   1.612
  234DPPC   C3411684   8.926   1.655   1.604
  234DPPC   O3511685   8.905   1.613   1.491
  234DPPC   C3611686   8.932   1.563   1.726
  234DPPC   C3711687   8.821   1.623   1.814
  234DPPC   C3811688   8.821   1.543   1.945
  234DPPC   C3911689   8.697   1.582   2.025
  234DPPC   C4011690   8.679   1.519   2.163
  234DPPC   C4111691   8.533   1.551   2.195
  234DPPC   C4211692   8.489   1.491   2.328
  234DPPC   C4311693   8.356   1.548   2.377
  234DPPC   C4411694   8.327   1.476   2.509
  234DPPC   C4511695   8.223   1.564   2.579
  234DPPC   C4611696   8.197   1.496   2.714
  234DPPC   C4711697   8.319   1.460   2.799
  234DPPC   C4811698   8.286   1.396   2.933
  234DPPC   C4911699   8.409   1.356   3.015
  234DPPC   C5011700   8.369   1.259   3.127
  235DPPC    C111701   2.540   4.058   1.766
  235DPPC    C211702   2.354   4.206   1.744
  235DPPC    C311703   2.444   4.156   1.957
  235DPPC    N411704   2.479   4.182   1.817
  235DPPC    C511705   2.573   4.295   1.822
  235DPPC    C611706   2.621   4.345   1.686
  235DPPC    O711707   2.698   4.464   1.699
  235DPPC    P811708   2.740   4.510   1.550
  235DPPC    O911709   2.716   4.399   1.455
  235DPPC   O1011710   2.873   4.573   1.537
  235DPPC   O1111711   2.621   4.616   1.525
  235DPPC   C1211712   2.644   4.717   1.623
  235DPPC   C1311713   2.527   4.809   1.660
  235DPPC   O1411714   2.572   4.923   1.735
  235DPPC   C1511715   2.485   5.026   1.741
  235DPPC   O1611716   2.392   5.034   1.660
  235DPPC   C1711717   2.501   5.124   1.858
  235DPPC   C1811718   2.533   5.039   1.981
  235DPPC   C1911719   2.419   4.956   2.039
  235DPPC   C2011720   2.483   4.898   2.166
  235DPPC   C2111721   2.392   4.806   2.248
  235DPPC   C2211722   2.452   4.804   2.389
  235DPPC   C2311723   2.415   4.929   2.468
  235DPPC   C2411724   2.489   4.921   2.601
  235DPPC   C2511725   2.474   5.060   2.662
  235DPPC   C2611726   2.326   5.100   2.672
  235DPPC   C2711727   2.299   5.239   2.729
  235DPPC   C2811728   2.328   5.225   2.879
  235DPPC   C2911729   2.301   5.347   2.966
  235DPPC   C3011730   2.313   5.304   3.113
  235DPPC   C3111731   2.253   5.401   3.214
  235DPPC   C3211732   2.414   4.718   1.709
  235DPPC   O3311733   2.417   4.640   1.828
  235DPPC   C3411734   2.303   4.576   1.865
  235DPPC   O3511735   2.226   4.551   1.773
  235DPPC   C3611736   2.309   4.510   2.003
  235DPPC   C3711737   2.177   4.440   2.036
  235DPPC   C3811738   2.185   4.358   2.165
  235DPPC   C3911739   2.233   4.429   2.291
  235DPPC   C4011740   2.219   4.344   2.418
  235DPPC   C4111741   2.266   4.408   2.549
  235DPPC   C4211742   2.172   4.514   2.606
  235DPPC   C4311743   2.252   4.576   2.721
  235DPPC   C4411744   2.146   4.662   2.789
  235DPPC   C4511745   2.196   4.718   2.923
  235DPPC   C4611746   2.130   4.849   2.968
  235DPPC   C4711747   2.192   4.903   3.097
  235DPPC   C4811748   2.177   4.799   3.209
  235DPPC   C4911749   2.239   4.860   3.335
  235DPPC   C5011750   2.385   4.899   3.310
  236DPPC    C111751   0.218   1.140   0.986
  236DPPC    C211752   0.085   1.266   0.828
  236DPPC    C311753  -0.017   1.100   0.967
  236DPPC    N411754   0.088   1.204   0.962
  236DPPC    C511755   0.062   1.296   1.073
  236DPPC    C611756   0.128   1.434   1.080
  236DPPC    O711757   0.271   1.428   1.091
  236DPPC    P811758   0.337   1.575   1.088
  236DPPC    O911759   0.259   1.650   0.987
  236DPPC   O1011760   0.483   1.551   1.083
  236DPPC   O1111761   0.276   1.624   1.229
  236DPPC   C1211762   0.345   1.565   1.339
  236DPPC   C1311763   0.322   1.650   1.464
  236DPPC   O1411764   0.419   1.633   1.569
  236DPPC   C1511765   0.453   1.734   1.654
  236DPPC   O1611766   0.428   1.849   1.620
  236DPPC   C1711767   0.566   1.714   1.755
  236DPPC   C1811768   0.536   1.808   1.872
  236DPPC   C1911769   0.644   1.788   1.978
  236DPPC   C2011770   0.622   1.885   2.094
  236DPPC   C2111771   0.512   1.830   2.185
  236DPPC   C2211772   0.522   1.884   2.327
  236DPPC   C2311773   0.425   1.804   2.415
  236DPPC   C2411774   0.283   1.803   2.359
  236DPPC   C2511775   0.188   1.776   2.476
  236DPPC   C2611776   0.236   1.641   2.530
  236DPPC   C2711777   0.151   1.596   2.649
  236DPPC   C2811778   0.138   1.694   2.767
  236DPPC   C2911779   0.031   1.638   2.860
  236DPPC   C3011780   0.030   1.714   2.993
  236DPPC   C3111781  -0.092   1.688   3.082
  236DPPC   C3211782   0.177   1.615   1.497
  236DPPC   O3311783   0.164   1.474   1.515
  236DPPC   C3411784   0.037   1.425   1.508
  236DPPC   O3511785  -0.054   1.493   1.459
  236DPPC   C3611786   0.008   1.285   1.561
  236DPPC   C3711787  -0.001   1.282   1.714
  236DPPC   C3811788  -0.148   1.305   1.752
  236DPPC   C3911789  -0.184   1.255   1.892
  236DPPC   C4011790  -0.327   1.278   1.941
  236DPPC   C4111791  -0.335   1.235   2.087
  236DPPC   C4211792  -0.315   1.084   2.102
  236DPPC   C4311793  -0.320   1.041   2.249
  236DPPC   C4411794  -0.310   0.890   2.267
  236DPPC   C4511795  -0.309   0.874   2.420
  236DPPC   C4611796  -0.276   0.733   2.468
  236DPPC   C4711797  -0.284   0.722   2.621
  236DPPC   C4811798  -0.157   0.783   2.682
  236DPPC   C4911799  -0.168   0.795   2.834
  236DPPC   C5011800  -0.044   0.865   2.890
  237DPPC    C111801   7.311   7.740   1.504
  237DPPC    C211802   7.523   7.628   1.529
  237DPPC    C311803   7.368   7.557   1.382
  237DPPC    N411804   7.426   7.682   1.432
  237DPPC    C511805   7.496   7.752   1.323
  237DPPC    C611806   7.538   7.898   1.343
  237DPPC    O711807   7.429   7.991   1.346
  237DPPC    P811808   7.485   8.140   1.373
  237DPPC    O911809   7.388   8.241   1.327
  237DPPC   O1011810   7.628   8.139   1.337
  237DPPC   O1111811   7.465   8.124   1.532
  237DPPC   C1211812   7.330   8.128   1.579
  237DPPC   C1311813   7.325   8.144   1.732
  237DPPC   O1411814   7.325   8.278   1.782
  237DPPC   C1511815   7.214   8.356   1.767
  237DPPC   O1611816   7.114   8.304   1.717
  237DPPC   C1711817   7.225   8.502   1.811
  237DPPC   C1811818   7.317   8.503   1.933
  237DPPC   C1911819   7.326   8.642   1.997
  237DPPC   C2011820   7.390   8.631   2.135
  237DPPC   C2111821   7.283   8.601   2.240
  237DPPC   C2211822   7.349   8.617   2.377
  237DPPC   C2311823   7.253   8.602   2.495
  237DPPC   C2411824   7.315   8.661   2.621
  237DPPC   C2511825   7.331   8.812   2.602
  237DPPC   C2611826   7.427   8.860   2.711
  237DPPC   C2711827   7.418   8.799   2.852
  237DPPC   C2811828   7.524   8.851   2.949
  237DPPC   C2911829   7.669   8.835   2.902
  237DPPC   C3011830   7.757   8.900   3.009
  237DPPC   C3111831   7.727   9.049   3.021
  237DPPC   C3211832   7.420   8.037   1.786
  237DPPC   O3311833   7.346   7.918   1.810
  237DPPC   C3411834   7.425   7.822   1.865
  237DPPC   O3511835   7.543   7.805   1.833
  237DPPC   C3611836   7.364   7.710   1.949
  237DPPC   C3711837   7.361   7.746   2.098
  237DPPC   C3811838   7.329   7.629   2.192
  237DPPC   C3911839   7.310   7.672   2.337
  237DPPC   C4011840   7.261   7.556   2.425
  237DPPC   C4111841   7.199   7.620   2.549
  237DPPC   C4211842   7.140   7.509   2.636
  237DPPC   C4311843   7.240   7.400   2.676
  237DPPC   C4411844   7.350   7.468   2.758
  237DPPC   C4511845   7.450   7.364   2.810
  237DPPC   C4611846   7.543   7.433   2.910
  237DPPC   C4711847   7.662   7.339   2.933
  237DPPC   C4811848   7.622   7.199   2.980
  237DPPC   C4911849   7.750   7.125   2.942
  237DPPC   C5011850   7.862   7.171   3.036
  238DPPC    C111851   3.211   2.081   2.216
  238DPPC    C211852   3.288   2.139   2.000
  238DPPC    C311853   3.056   2.092   2.027
  238DPPC    N411854   3.174   2.151   2.092
  238DPPC    C511855   3.119   2.285   2.114
  238DPPC    C611856   3.195   2.379   2.207
  238DPPC    O711857   3.295   2.455   2.137
  238DPPC    P811858   3.368   2.561   2.234
  238DPPC    O911859   3.293   2.582   2.360
  238DPPC   O1011860   3.434   2.672   2.162
  238DPPC   O1111861   3.484   2.452   2.261
  238DPPC   C1211862   3.479   2.431   2.403
  238DPPC   C1311863   3.529   2.301   2.465
  238DPPC   O1411864   3.480   2.287   2.599
  238DPPC   C1511865   3.468   2.163   2.654
  238DPPC   O1611866   3.465   2.062   2.583
  238DPPC   C1711867   3.433   2.151   2.802
  238DPPC   C1811868   3.553   2.127   2.894
  238DPPC   C1911869   3.530   2.131   3.045
  238DPPC   C2011870   3.473   2.261   3.101
  238DPPC   C2111871   3.451   2.240   3.251
  238DPPC   C2211872   3.393   2.370   3.308
  238DPPC   C2311873   3.400   2.363   3.461
  238DPPC   C2411874   3.540   2.335   3.518
  238DPPC   C2511875   3.524   2.319   3.669
  238DPPC   C2611876   3.470   2.193   3.737
  238DPPC   C2711877   3.500   2.195   3.887
  238DPPC   C2811878   3.405   2.286   3.965
  238DPPC   C2911879   3.429   2.267   4.114
  238DPPC   C3011880   3.388   2.126   4.155
  238DPPC   C3111881   3.394   2.086   4.303
  238DPPC   C3211882   3.681   2.306   2.450
  238DPPC   O3311883   3.747   2.432   2.465
  238DPPC   C3411884   3.881   2.438   2.447
  238DPPC   O3511885   3.944   2.335   2.423
  238DPPC   C3611886   3.948   2.576   2.449
  238DPPC   C3711887   4.021   2.610   2.579
  238DPPC   C3811888   4.108   2.736   2.569
  238DPPC   C3911889   4.193   2.751   2.695
  238DPPC   C4011890   4.100   2.744   2.816
  238DPPC   C4111891   4.167   2.749   2.954
  238DPPC   C4211892   4.063   2.719   3.062
  238DPPC   C4311893   4.107   2.715   3.208
  238DPPC   C4411894   4.004   2.706   3.322
  238DPPC   C4511895   3.926   2.575   3.317
  238DPPC   C4611896   3.989   2.457   3.392
  238DPPC   C4711897   3.900   2.333   3.379
  238DPPC   C4811898   3.929   2.214   3.470
  238DPPC   C4911899   4.037   2.126   3.407
  238DPPC   C5011900   3.982   2.092   3.268
  239DPPC    C111901   3.241   2.641   1.879
  239DPPC    C211902   3.421   2.738   1.747
  239DPPC    C311903   3.255   2.594   1.652
  239DPPC    N411904   3.278   2.701   1.750
  239DPPC    C511905   3.210   2.826   1.714
  239DPPC    C611906   3.058   2.810   1.699
  239DPPC    O711907   2.990   2.904   1.616
  239DPPC    P811908   2.841   2.850   1.588
  239DPPC    O911909   2.872   2.711   1.550
  239DPPC   O1011910   2.790   2.948   1.489
  239DPPC   O1111911   2.792   2.873   1.740
  239DPPC   C1211912   2.670   2.948   1.743
  239DPPC   C1311913   2.557   2.846   1.755
  239DPPC   O1411914   2.422   2.886   1.727
  239DPPC   C1511915   2.318   2.799   1.727
  239DPPC   O1611916   2.323   2.677   1.714
  239DPPC   C1711917   2.180   2.863   1.747
  239DPPC   C1811918   2.126   2.832   1.887
  239DPPC   C1911919   2.002   2.918   1.911
  239DPPC   C2011920   1.935   2.904   2.047
  239DPPC   C2111921   2.027   2.964   2.154
  239DPPC   C2211922   1.942   2.958   2.281
  239DPPC   C2311923   2.004   3.052   2.385
  239DPPC   C2411924   1.931   3.051   2.519
  239DPPC   C2511925   1.804   3.136   2.517
  239DPPC   C2611926   1.739   3.160   2.654
  239DPPC   C2711927   1.836   3.220   2.756
  239DPPC   C2811928   1.753   3.231   2.884
  239DPPC   C2911929   1.830   3.331   2.971
  239DPPC   C3011930   1.739   3.369   3.087
  239DPPC   C3111931   1.637   3.472   3.036
  239DPPC   C3211932   2.586   2.812   1.901
  239DPPC   O3311933   2.555   2.910   2.000
  239DPPC   C3411934   2.549   2.863   2.128
  239DPPC   O3511935   2.565   2.745   2.157
  239DPPC   C3611936   2.508   2.968   2.232
  239DPPC   C3711937   2.495   2.898   2.368
  239DPPC   C3811938   2.397   2.976   2.455
  239DPPC   C3911939   2.396   2.916   2.596
  239DPPC   C4011940   2.320   3.005   2.695
  239DPPC   C4111941   2.376   2.974   2.834
  239DPPC   C4211942   2.294   3.048   2.939
  239DPPC   C4311943   2.333   3.027   3.085
  239DPPC   C4411944   2.240   3.083   3.194
  239DPPC   C4511945   2.271   3.226   3.238
  239DPPC   C4611946   2.152   3.298   3.301
  239DPPC   C4711947   2.165   3.340   3.448
  239DPPC   C4811948   2.031   3.377   3.511
  239DPPC   C4911949   2.058   3.432   3.651
  239DPPC   C5011950   2.103   3.318   3.742
  240DPPC    C111951   1.204   4.714   1.088
  240DPPC    C211952   1.406   4.728   0.974
  240DPPC    C311953   1.188   4.767   0.866
  240DPPC    N411954   1.274   4.790   0.984
  240DPPC    C511955   1.285   4.935   1.006
  240DPPC    C611956   1.345   4.971   1.142
  240DPPC    O711957   1.250   5.011   1.241
  240DPPC    P811958   1.340   5.038   1.372
  240DPPC    O911959   1.249   5.115   1.460
  240DPPC   O1011960   1.461   5.103   1.316
  240DPPC   O1111961   1.354   4.881   1.403
  240DPPC   C1211962   1.245   4.838   1.485
  240DPPC   C1311963   1.205   4.691   1.497
  240DPPC   O1411964   1.084   4.667   1.570
  240DPPC   C1511965   0.971   4.635   1.502
  240DPPC   O1611966   0.985   4.623   1.380
  240DPPC   C1711967   0.837   4.611   1.572
  240DPPC   C1811968   0.780   4.730   1.649
  240DPPC   C1911969   0.635   4.696   1.684
  240DPPC   C2011970   0.596   4.816   1.770
  240DPPC   C2111971   0.524   4.758   1.892
  240DPPC   C2211972   0.484   4.874   1.983
  240DPPC   C2311973   0.622   4.929   2.021
  240DPPC   C2411974   0.601   5.034   2.131
  240DPPC   C2511975   0.745   5.069   2.172
  240DPPC   C2611976   0.829   5.150   2.073
  240DPPC   C2711977   0.964   5.158   2.145
  240DPPC   C2811978   0.930   5.209   2.285
  240DPPC   C2911979   1.054   5.261   2.359
  240DPPC   C3011980   1.022   5.297   2.504
  240DPPC   C3111981   1.110   5.409   2.560
  240DPPC   C3211982   1.333   4.626   1.549
  240DPPC   O3311983   1.375   4.667   1.680
  240DPPC   C3411984   1.456   4.577   1.740
  240DPPC   O3511985   1.506   4.485   1.675
  240DPPC   C3611986   1.485   4.594   1.890
  240DPPC   C3711987   1.385   4.691   1.954
  240DPPC   C3811988   1.413   4.672   2.103
  240DPPC   C3911989   1.443   4.527   2.141
  240DPPC   C4011990   1.451   4.497   2.291
  240DPPC   C4111991   1.321   4.512   2.371
  240DPPC   C4211992   1.355   4.501   2.520
  240DPPC   C4311993   1.235   4.554   2.598
  240DPPC   C4411994   1.251   4.563   2.750
  240DPPC   C4511995   1.145   4.655   2.811
  240DPPC   C4611996   1.177   4.660   2.960
  240DPPC   C4711997   1.305   4.737   2.995
  240DPPC   C4811998   1.320   4.745   3.147
  240DPPC   C4911999   1.430   4.844   3.181
  240DPPC   C5012000   1.427   4.894   3.326
  241DPPC    C112001   2.978   3.236   1.616
  241DPPC    C212002   3.182   3.276   1.522
  241DPPC    C312003   2.985   3.295   1.390
  241DPPC    N412004   3.044   3.327   1.521
  241DPPC    C512005   3.042   3.472   1.541
  241DPPC    C612006   2.901   3.522   1.572
  241DPPC    O712007   2.904   3.665   1.575
  241DPPC    P812008   2.752   3.702   1.614
  241DPPC    O912009   2.667   3.601   1.549
  241DPPC   O1012010   2.718   3.845   1.595
  241DPPC   O1112011   2.756   3.667   1.771
  241DPPC   C1212012   2.837   3.775   1.818
  241DPPC   C1312013   2.835   3.783   1.971
  241DPPC   O1412014   2.916   3.893   2.014
  241DPPC   C1512015   2.856   4.012   2.042
  241DPPC   O1612016   2.781   4.059   1.957
  241DPPC   C1712017   2.928   4.097   2.146
  241DPPC   C1812018   3.017   4.032   2.253
  241DPPC   C1912019   3.074   4.146   2.337
  241DPPC   C2012020   3.192   4.104   2.424
  241DPPC   C2112021   3.154   4.009   2.538
  241DPPC   C2212022   3.275   4.000   2.632
  241DPPC   C2312023   3.301   3.854   2.669
  241DPPC   C2412024   3.420   3.860   2.765
  241DPPC   C2512025   3.465   3.726   2.824
  241DPPC   C2612026   3.585   3.746   2.916
  241DPPC   C2712027   3.632   3.608   2.963
  241DPPC   C2812028   3.644   3.507   2.849
  241DPPC   C2912029   3.701   3.379   2.911
  241DPPC   C3012030   3.725   3.276   2.800
  241DPPC   C3112031   3.598   3.269   2.715
  241DPPC   C3212032   2.897   3.650   2.015
  241DPPC   O3312033   2.894   3.617   2.154
  241DPPC   C3412034   2.997   3.658   2.232
  241DPPC   O3512035   3.109   3.696   2.197
  241DPPC   C3612036   2.965   3.621   2.377
  241DPPC   C3712037   3.075   3.539   2.444
  241DPPC   C3812038   3.037   3.501   2.587
  241DPPC   C3912039   3.139   3.411   2.657
  241DPPC   C4012040   3.084   3.385   2.797
  241DPPC   C4112041   3.175   3.305   2.891
  241DPPC   C4212042   3.101   3.277   3.021
  241DPPC   C4312043   3.191   3.195   3.114
  241DPPC   C4412044   3.146   3.235   3.254
  241DPPC   C4512045   3.132   3.387   3.264
  241DPPC   C4612046   3.035   3.408   3.380
  241DPPC   C4712047   2.995   3.548   3.428
  241DPPC   C4812048   2.870   3.543   3.516
  241DPPC   C4912049   2.833   3.684   3.563
  241DPPC   C5012050   2.705   3.685   3.646
  242DPPC    C112051   5.166   5.184   1.710
  242DPPC    C212052   5.161   5.167   1.480
  242DPPC    C312053   4.987   5.286   1.586
  242DPPC    N412054   5.131   5.261   1.589
  242DPPC    C512055   5.213   5.382   1.584
  242DPPC    C612056   5.185   5.489   1.690
  242DPPC    O712057   5.280   5.596   1.699
  242DPPC    P812058   5.208   5.740   1.699
  242DPPC    O912059   5.076   5.703   1.754
  242DPPC   O1012060   5.220   5.810   1.570
  242DPPC   O1112061   5.312   5.815   1.797
  242DPPC   C1212062   5.377   5.728   1.890
  242DPPC   C1312063   5.472   5.813   1.975
  242DPPC   O1412064   5.562   5.752   2.069
  242DPPC   C1512065   5.669   5.682   2.022
  242DPPC   O1612066   5.704   5.687   1.905
  242DPPC   C1712067   5.743   5.595   2.124
  242DPPC   C1812068   5.674   5.585   2.260
  242DPPC   C1912069   5.757   5.650   2.372
  242DPPC   C2012070   5.697   5.629   2.511
  242DPPC   C2112071   5.808   5.653   2.613
  242DPPC   C2212072   5.753   5.682   2.753
  242DPPC   C2312073   5.849   5.703   2.871
  242DPPC   C2412074   5.935   5.577   2.887
  242DPPC   C2512075   5.995   5.576   3.028
  242DPPC   C2612076   6.088   5.457   3.048
  242DPPC   C2712077   6.011   5.325   3.048
  242DPPC   C2812078   6.105   5.210   3.087
  242DPPC   C2912079   6.029   5.077   3.092
  242DPPC   C3012080   6.126   4.964   3.129
  242DPPC   C3112081   6.046   4.833   3.136
  242DPPC   C3212082   5.370   5.915   2.026
  242DPPC   O3312083   5.264   5.860   2.105
  242DPPC   C3412084   5.171   5.952   2.143
  242DPPC   O3512085   5.198   6.067   2.107
  242DPPC   C3612086   5.067   5.918   2.250
  242DPPC   C3712087   4.936   5.868   2.189
  242DPPC   C3812088   4.837   5.799   2.283
  242DPPC   C3912089   4.894   5.672   2.347
  242DPPC   C4012090   4.775   5.598   2.408
  242DPPC   C4112091   4.832   5.465   2.459
  242DPPC   C4212092   4.715   5.367   2.464
  242DPPC   C4312093   4.769   5.233   2.514
  242DPPC   C4412094   4.666   5.121   2.525
  242DPPC   C4512095   4.543   5.169   2.603
  242DPPC   C4612096   4.472   5.046   2.658
  242DPPC   C4712097   4.411   4.967   2.541
  242DPPC   C4812098   4.355   4.828   2.573
  242DPPC   C4912099   4.264   4.791   2.455
  242DPPC   C5012100   4.153   4.895   2.439
  243DPPC    C112101   8.186   6.207   1.396
  243DPPC    C212102   8.341   6.128   1.568
  243DPPC    C312103   8.116   6.033   1.524
  243DPPC    N412104   8.239   6.091   1.468
  243DPPC    C512105   8.288   5.979   1.386
  243DPPC    C612106   8.401   6.010   1.287
  243DPPC    O712107   8.457   5.895   1.223
  243DPPC    P812108   8.595   5.941   1.155
  243DPPC    O912109   8.602   6.077   1.097
  243DPPC   O1012110   8.644   5.821   1.083
  243DPPC   O1112111   8.679   5.967   1.290
  243DPPC   C1212112   8.739   5.844   1.332
  243DPPC   C1312113   8.744   5.813   1.482
  243DPPC   O1412114   8.645   5.720   1.526
  243DPPC   C1512115   8.655   5.585   1.507
  243DPPC   O1612116   8.723   5.542   1.414
  243DPPC   C1712117   8.543   5.513   1.582
  243DPPC   C1812118   8.592   5.496   1.725
  243DPPC   C1912119   8.489   5.445   1.826
  243DPPC   C2012120   8.370   5.541   1.841
  243DPPC   C2112121   8.301   5.472   1.959
  243DPPC   C2212122   8.395   5.451   2.078
  243DPPC   C2312123   8.376   5.316   2.146
  243DPPC   C2412124   8.449   5.292   2.279
  243DPPC   C2512125   8.442   5.140   2.289
  243DPPC   C2612126   8.520   5.093   2.412
  243DPPC   C2712127   8.454   5.156   2.535
  243DPPC   C2812128   8.521   5.121   2.669
  243DPPC   C2912129   8.465   5.186   2.795
  243DPPC   C3012130   8.551   5.138   2.912
  243DPPC   C3112131   8.506   5.204   3.043
  243DPPC   C3212132   8.739   5.951   1.549
  243DPPC   O3312133   8.731   5.953   1.691
  243DPPC   C3412134   8.693   6.074   1.743
  243DPPC   O3512135   8.665   6.168   1.670
  243DPPC   C3612136   8.662   6.066   1.893
  243DPPC   C3712137   8.748   5.962   1.965
  243DPPC   C3812138   8.706   5.943   2.111
  243DPPC   C3912139   8.733   6.073   2.186
  243DPPC   C4012140   8.713   6.043   2.335
  243DPPC   C4112141   8.748   6.164   2.421
  243DPPC   C4212142   8.667   6.284   2.370
  243DPPC   C4312143   8.690   6.389   2.479
  243DPPC   C4412144   8.838   6.427   2.467
  243DPPC   C4512145   8.873   6.539   2.566
  243DPPC   C4612146   9.022   6.559   2.593
  243DPPC   C4712147   9.061   6.414   2.625
  243DPPC   C4812148   9.186   6.406   2.714
  243DPPC   C4912149   9.255   6.271   2.735
  243DPPC   C5012150   9.189   6.185   2.843
  244DPPC    C112151   6.628   3.054   1.424
  244DPPC    C212152   6.752   2.870   1.340
  244DPPC    C312153   6.805   3.089   1.261
  244DPPC    N412154   6.761   3.011   1.378
  244DPPC    C512155   6.856   3.041   1.486
  244DPPC    C612156   6.995   2.978   1.496
  244DPPC    O712157   6.992   2.855   1.569
  244DPPC    P812158   7.130   2.775   1.552
  244DPPC    O912159   7.234   2.859   1.488
  244DPPC   O1012160   7.078   2.657   1.479
  244DPPC   O1112161   7.153   2.737   1.707
  244DPPC   C1212162   7.055   2.642   1.749
  244DPPC   C1312163   7.066   2.612   1.898
  244DPPC   O1412164   7.008   2.720   1.972
  244DPPC   C1512165   6.889   2.691   2.031
  244DPPC   O1612166   6.817   2.604   1.983
  244DPPC   C1712167   6.830   2.796   2.126
  244DPPC   C1812168   6.804   2.751   2.269
  244DPPC   C1912169   6.938   2.731   2.339
  244DPPC   C2012170   6.923   2.690   2.485
  244DPPC   C2112171   7.056   2.682   2.561
  244DPPC   C2212172   7.028   2.643   2.706
  244DPPC   C2312173   7.160   2.611   2.777
  244DPPC   C2412174   7.147   2.624   2.928
  244DPPC   C2512175   7.074   2.754   2.963
  244DPPC   C2612176   7.053   2.775   3.114
  244DPPC   C2712177   7.183   2.777   3.195
  244DPPC   C2812178   7.159   2.786   3.346
  244DPPC   C2912179   7.288   2.778   3.428
  244DPPC   C3012180   7.260   2.767   3.578
  244DPPC   C3112181   7.184   2.887   3.635
  244DPPC   C3212182   7.213   2.586   1.931
  244DPPC   O3312183   7.249   2.534   2.059
  244DPPC   C3412184   7.298   2.630   2.141
  244DPPC   O3512185   7.307   2.749   2.108
  244DPPC   C3612186   7.341   2.576   2.278
  244DPPC   C3712187   7.486   2.530   2.262
  244DPPC   C3812188   7.540   2.447   2.379
  244DPPC   C3912189   7.551   2.511   2.518
  244DPPC   C4012190   7.658   2.438   2.599
  244DPPC   C4112191   7.704   2.517   2.721
  244DPPC   C4212192   7.654   2.457   2.852
  244DPPC   C4312193   7.718   2.536   2.967
  244DPPC   C4412194   7.656   2.489   3.099
  244DPPC   C4512195   7.504   2.509   3.095
  244DPPC   C4612196   7.423   2.463   3.217
  244DPPC   C4712197   7.453   2.322   3.267
  244DPPC   C4812198   7.387   2.293   3.402
  244DPPC   C4912199   7.453   2.383   3.507
  244DPPC   C5012200   7.363   2.357   3.629
  245DPPC    C112201   5.334   3.596   1.388
  245DPPC    C212202   5.399   3.488   1.588
  245DPPC    C312203   5.538   3.657   1.507
  245DPPC    N412204   5.396   3.618   1.520
  245DPPC    C512205   5.333   3.722   1.603
  245DPPC    C612206   5.285   3.851   1.537
  245DPPC    O712207   5.383   3.954   1.528
  245DPPC    P812208   5.295   4.085   1.491
  245DPPC    O912209   5.213   4.046   1.374
  245DPPC   O1012210   5.375   4.208   1.476
  245DPPC   O1112211   5.202   4.093   1.623
  245DPPC   C1212212   5.274   4.139   1.738
  245DPPC   C1312213   5.183   4.179   1.854
  245DPPC   O1412214   5.246   4.248   1.963
  245DPPC   C1512215   5.256   4.384   1.964
  245DPPC   O1612216   5.245   4.449   1.860
  245DPPC   C1712217   5.331   4.429   2.089
  245DPPC   C1812218   5.240   4.417   2.212
  245DPPC   C1912219   5.304   4.495   2.326
  245DPPC   C2012220   5.226   4.491   2.458
  245DPPC   C2112221   5.290   4.576   2.568
  245DPPC   C2212222   5.186   4.575   2.679
  245DPPC   C2312223   5.258   4.636   2.800
  245DPPC   C2412224   5.156   4.627   2.914
  245DPPC   C2512225   5.219   4.672   3.046
  245DPPC   C2612226   5.137   4.616   3.162
  245DPPC   C2712227   5.222   4.605   3.289
  245DPPC   C2812228   5.142   4.567   3.414
  245DPPC   C2912229   5.223   4.568   3.544
  245DPPC   C3012230   5.147   4.515   3.666
  245DPPC   C3112231   5.245   4.510   3.784
  245DPPC   C3212232   5.102   4.054   1.885
  245DPPC   O3312233   5.188   3.953   1.939
  245DPPC   C3412234   5.125   3.832   1.942
  245DPPC   O3512235   5.012   3.825   1.896
  245DPPC   C3612236   5.214   3.714   1.982
  245DPPC   C3712237   5.208   3.664   2.126
  245DPPC   C3812238   5.328   3.575   2.159
  245DPPC   C3912239   5.336   3.539   2.307
  245DPPC   C4012240   5.457   3.452   2.344
  245DPPC   C4112241   5.445   3.394   2.485
  245DPPC   C4212242   5.582   3.353   2.539
  245DPPC   C4312243   5.562   3.340   2.690
  245DPPC   C4412244   5.517   3.479   2.737
  245DPPC   C4512245   5.525   3.482   2.890
  245DPPC   C4612246   5.449   3.369   2.959
  245DPPC   C4712247   5.457   3.378   3.112
  245DPPC   C4812248   5.372   3.275   3.186
  245DPPC   C4912249   5.391   3.300   3.336
  245DPPC   C5012250   5.538   3.304   3.377
  246DPPC    C112251   9.188   7.960   1.233
  246DPPC    C212252   9.358   8.087   1.320
  246DPPC    C312253   9.189   7.999   1.465
  246DPPC    N412254   9.276   7.969   1.350
  246DPPC    C512255   9.366   7.853   1.347
  246DPPC    C612256   9.439   7.798   1.469
  246DPPC    O712257   9.537   7.897   1.502
  246DPPC    P812258   9.630   7.833   1.616
  246DPPC    O912259   9.747   7.923   1.631
  246DPPC   O1012260   9.639   7.686   1.610
  246DPPC   O1112261   9.517   7.871   1.724
  246DPPC   C1212262   9.527   8.008   1.763
  246DPPC   C1312263   9.396   8.086   1.774
  246DPPC   O1412264   9.426   8.223   1.806
  246DPPC   C1512265   9.470   8.315   1.717
  246DPPC   O1612266   9.457   8.282   1.599
  246DPPC   C1712267   9.546   8.439   1.766
  246DPPC   C1812268   9.494   8.516   1.887
  246DPPC   C1912269   9.580   8.638   1.923
  246DPPC   C2012270   9.729   8.611   1.942
  246DPPC   C2112271   9.784   8.569   2.079
  246DPPC   C2212272   9.937   8.566   2.080
  246DPPC   C2312273   9.998   8.555   2.220
  246DPPC   C2412274   9.929   8.436   2.287
  246DPPC   C2512275   9.938   8.439   2.440
  246DPPC   C2612276   9.852   8.330   2.504
  246DPPC   C2712277   9.871   8.325   2.656
  246DPPC   C2812278  10.006   8.273   2.704
  246DPPC   C2912279  10.013   8.134   2.640
  246DPPC   C3012280  10.135   8.063   2.699
  246DPPC   C3112281  10.135   7.928   2.627
  246DPPC   C3212282   9.286   8.037   1.868
  246DPPC   O3312283   9.208   7.931   1.813
  246DPPC   C3412284   9.124   7.879   1.907
  246DPPC   O3512285   9.140   7.906   2.026
  246DPPC   C3612286   9.041   7.766   1.846
  246DPPC   C3712287   8.893   7.766   1.886
  246DPPC   C3812288   8.872   7.693   2.019
  246DPPC   C3912289   8.727   7.695   2.069
  246DPPC   C4012290   8.716   7.630   2.207
  246DPPC   C4112291   8.766   7.731   2.311
  246DPPC   C4212292   8.734   7.682   2.453
  246DPPC   C4312293   8.818   7.757   2.556
  246DPPC   C4412294   8.776   7.714   2.697
  246DPPC   C4512295   8.897   7.686   2.786
  246DPPC   C4612296   8.971   7.817   2.813
  246DPPC   C4712297   9.089   7.809   2.911
  246DPPC   C4812298   9.169   7.938   2.923
  246DPPC   C4912299   9.219   7.989   2.788
  246DPPC   C5012300   9.313   8.110   2.788
  247DPPC    C112301   6.971   1.274   0.853
  247DPPC    C212302   7.213   1.292   0.870
  247DPPC    C312303   7.098   1.156   1.026
  247DPPC    N412304   7.097   1.204   0.887
  247DPPC    C512305   7.086   1.089   0.796
  247DPPC    C612306   7.202   0.990   0.787
  247DPPC    O712307   7.235   0.925   0.910
  247DPPC    P812308   7.395   0.936   0.920
  247DPPC    O912309   7.413   1.041   1.023
  247DPPC   O1012310   7.462   0.947   0.789
  247DPPC   O1112311   7.421   0.792   0.987
  247DPPC   C1212312   7.410   0.816   1.128
  247DPPC   C1312313   7.418   0.693   1.218
  247DPPC   O1412314   7.381   0.724   1.354
  247DPPC   C1512315   7.250   0.715   1.388
  247DPPC   O1612316   7.153   0.709   1.313
  247DPPC   C1712317   7.228   0.745   1.537
  247DPPC   C1812318   7.310   0.868   1.574
  247DPPC   C1912319   7.295   0.896   1.724
  247DPPC   C2012320   7.380   1.008   1.785
  247DPPC   C2112321   7.333   1.052   1.924
  247DPPC   C2212322   7.328   0.934   2.021
  247DPPC   C2312323   7.248   0.966   2.148
  247DPPC   C2412324   7.306   1.096   2.204
  247DPPC   C2512325   7.306   1.093   2.357
  247DPPC   C2612326   7.373   1.204   2.438
  247DPPC   C2712327   7.366   1.173   2.588
  247DPPC   C2812328   7.447   1.274   2.670
  247DPPC   C2912329   7.412   1.275   2.819
  247DPPC   C3012330   7.481   1.167   2.902
  247DPPC   C3112331   7.456   1.182   3.052
  247DPPC   C3212332   7.565   0.662   1.190
  247DPPC   O3312333   7.655   0.624   1.294
  247DPPC   C3412334   7.628   0.501   1.345
  247DPPC   O3512335   7.570   0.415   1.279
  247DPPC   C3612336   7.690   0.470   1.481
  247DPPC   C3712337   7.650   0.581   1.579
  247DPPC   C3812338   7.749   0.605   1.693
  247DPPC   C3912339   7.692   0.715   1.783
  247DPPC   C4012340   7.768   0.731   1.915
  247DPPC   C4112341   7.722   0.836   2.016
  247DPPC   C4212342   7.803   0.851   2.145
  247DPPC   C4312343   7.767   0.985   2.209
  247DPPC   C4412344   7.829   0.999   2.348
  247DPPC   C4512345   7.813   1.143   2.397
  247DPPC   C4612346   7.867   1.145   2.540
  247DPPC   C4712347   7.847   1.274   2.619
  247DPPC   C4812348   7.879   1.255   2.768
  247DPPC   C4912349   7.833   1.368   2.860
  247DPPC   C5012350   7.873   1.342   3.005
  248DPPC    C112351   6.244   1.276   1.548
  248DPPC    C212352   6.382   1.447   1.659
  248DPPC    C312353   6.155   1.458   1.664
  248DPPC    N412354   6.264   1.359   1.668
  248DPPC    C512355   6.272   1.287   1.796
  248DPPC    C612356   6.166   1.180   1.820
  248DPPC    O712357   6.034   1.224   1.850
  248DPPC    P812358   5.922   1.115   1.810
  248DPPC    O912359   5.942   1.073   1.670
  248DPPC   O1012360   5.795   1.180   1.848
  248DPPC   O1112361   5.956   0.997   1.915
  248DPPC   C1212362   5.932   1.044   2.048
  248DPPC   C1312363   5.983   0.945   2.152
  248DPPC   O1412364   5.905   0.939   2.272
  248DPPC   C1512365   5.780   0.886   2.271
  248DPPC   O1612366   5.726   0.847   2.168
  248DPPC   C1712367   5.711   0.870   2.407
  248DPPC   C1812368   5.632   1.000   2.430
  248DPPC   C1912369   5.550   0.996   2.559
  248DPPC   C2012370   5.633   0.973   2.684
  248DPPC   C2112371   5.560   0.986   2.818
  248DPPC   C2212372   5.649   1.031   2.934
  248DPPC   C2312373   5.593   0.977   3.065
  248DPPC   C2412374   5.676   1.001   3.191
  248DPPC   C2512375   5.598   0.945   3.310
  248DPPC   C2612376   5.684   0.970   3.434
  248DPPC   C2712377   5.599   0.955   3.561
  248DPPC   C2812378   5.484   1.055   3.547
  248DPPC   C2912379   5.395   1.070   3.670
  248DPPC   C3012380   5.337   1.208   3.705
  248DPPC   C3112381   5.248   1.265   3.595
  248DPPC   C3212382   6.134   0.949   2.177
  248DPPC   O3312383   6.174   1.085   2.198
  248DPPC   C3412384   6.301   1.117   2.236
  248DPPC   O3512385   6.404   1.053   2.219
  248DPPC   C3612386   6.298   1.265   2.275
  248DPPC   C3712387   6.419   1.303   2.361
  248DPPC   C3812388   6.431   1.226   2.493
  248DPPC   C3912389   6.468   1.319   2.608
  248DPPC   C4012390   6.467   1.217   2.721
  248DPPC   C4112391   6.530   1.293   2.839
  248DPPC   C4212392   6.497   1.211   2.963
  248DPPC   C4312393   6.557   1.263   3.094
  248DPPC   C4412394   6.600   1.155   3.193
  248DPPC   C4512395   6.703   1.212   3.291
  248DPPC   C4612396   6.745   1.130   3.413
  248DPPC   C4712397   6.866   1.196   3.479
  248DPPC   C4812398   6.949   1.117   3.581
  248DPPC   C4912399   7.027   0.995   3.531
  248DPPC   C5012400   7.090   0.909   3.641
  249DPPC    C112401   1.769   5.601   1.444
  249DPPC    C212402   1.941   5.716   1.321
  249DPPC    C312403   1.931   5.481   1.322
  249DPPC    N412404   1.848   5.602   1.320
  249DPPC    C512405   1.772   5.614   1.194
  249DPPC    C612406   1.713   5.748   1.153
  249DPPC    O712407   1.600   5.795   1.228
  249DPPC    P812408   1.585   5.953   1.199
  249DPPC    O912409   1.444   5.991   1.223
  249DPPC   O1012410   1.682   6.000   1.098
  249DPPC   O1112411   1.657   5.976   1.341
  249DPPC   C1212412   1.574   5.933   1.449
  249DPPC   C1312413   1.649   5.912   1.581
  249DPPC   O1412414   1.560   5.903   1.694
  249DPPC   C1512415   1.495   5.785   1.710
  249DPPC   O1612416   1.516   5.694   1.630
  249DPPC   C1712417   1.407   5.759   1.833
  249DPPC   C1812418   1.486   5.754   1.964
  249DPPC   C1912419   1.558   5.619   1.976
  249DPPC   C2012420   1.640   5.630   2.104
  249DPPC   C2112421   1.543   5.655   2.221
  249DPPC   C2212422   1.607   5.663   2.360
  249DPPC   C2312423   1.669   5.532   2.410
  249DPPC   C2412424   1.740   5.567   2.541
  249DPPC   C2512425   1.835   5.457   2.588
  249DPPC   C2612426   1.877   5.491   2.731
  249DPPC   C2712427   1.903   5.367   2.817
  249DPPC   C2812428   1.910   5.412   2.964
  249DPPC   C2912429   1.898   5.285   3.048
  249DPPC   C3012430   1.761   5.218   3.058
  249DPPC   C3112431   1.764   5.072   3.105
  249DPPC   C3212432   1.744   6.032   1.589
  249DPPC   O3312433   1.845   6.039   1.690
  249DPPC   C3412434   1.937   5.939   1.695
  249DPPC   O3512435   1.948   5.851   1.609
  249DPPC   C3612436   2.040   5.948   1.808
  249DPPC   C3712437   2.001   5.848   1.917
  249DPPC   C3812438   2.106   5.813   2.021
  249DPPC   C3912439   2.050   5.740   2.144
  249DPPC   C4012440   2.155   5.751   2.255
  249DPPC   C4112441   2.093   5.679   2.375
  249DPPC   C4212442   2.200   5.665   2.484
  249DPPC   C4312443   2.252   5.802   2.526
  249DPPC   C4412444   2.157   5.875   2.622
  249DPPC   C4512445   2.194   5.839   2.766
  249DPPC   C4612446   2.337   5.855   2.819
  249DPPC   C4712447   2.340   5.872   2.971
  249DPPC   C4812448   2.486   5.881   3.014
  249DPPC   C4912449   2.513   5.913   3.161
  249DPPC   C5012450   2.414   5.828   3.240
  250DPPC    C112451   8.631   8.125   0.940
  250DPPC    C212452   8.819   8.179   1.071
  250DPPC    C312453   8.861   8.150   0.843
  250DPPC    N412454   8.759   8.198   0.938
  250DPPC    C512455   8.750   8.339   0.898
  250DPPC    C612456   8.735   8.455   0.996
  250DPPC    O712457   8.854   8.476   1.073
  250DPPC    P812458   8.823   8.567   1.202
  250DPPC    O912459   8.759   8.688   1.146
  250DPPC   O1012460   8.960   8.573   1.259
  250DPPC   O1112461   8.721   8.451   1.247
  250DPPC   C1212462   8.657   8.485   1.370
  250DPPC   C1312463   8.598   8.371   1.453
  250DPPC   O1412464   8.512   8.414   1.559
  250DPPC   C1512465   8.382   8.373   1.558
  250DPPC   O1612466   8.336   8.303   1.468
  250DPPC   C1712467   8.290   8.427   1.667
  250DPPC   C1812468   8.286   8.339   1.792
  250DPPC   C1912469   8.235   8.428   1.906
  250DPPC   C2012470   8.225   8.348   2.036
  250DPPC   C2112471   8.113   8.246   2.024
  250DPPC   C2212472   8.086   8.198   2.167
  250DPPC   C2312473   7.979   8.090   2.151
  250DPPC   C2412474   7.955   8.007   2.276
  250DPPC   C2512475   7.828   7.921   2.269
  250DPPC   C2612476   7.793   7.860   2.404
  250DPPC   C2712477   7.658   7.787   2.399
  250DPPC   C2812478   7.655   7.716   2.535
  250DPPC   C2912479   7.693   7.808   2.651
  250DPPC   C3012480   7.706   7.716   2.773
  250DPPC   C3112481   7.747   7.814   2.883
  250DPPC   C3212482   8.715   8.276   1.483
  250DPPC   O3312483   8.817   8.348   1.552
  250DPPC   C3412484   8.922   8.270   1.591
  250DPPC   O3512485   8.927   8.151   1.560
  250DPPC   C3612486   9.031   8.327   1.682
  250DPPC   C3712487   8.973   8.345   1.823
  250DPPC   C3812488   9.065   8.434   1.906
  250DPPC   C3912489   9.005   8.451   2.046
  250DPPC   C4012490   9.108   8.519   2.135
  250DPPC   C4112491   9.064   8.521   2.282
  250DPPC   C4212492   9.167   8.589   2.372
  250DPPC   C4312493   9.297   8.509   2.374
  250DPPC   C4412494   9.295   8.368   2.435
  250DPPC   C4512495   9.438   8.313   2.434
  250DPPC   C4612496   9.461   8.247   2.299
  250DPPC   C4712497   9.600   8.184   2.297
  250DPPC   C4812498   9.631   8.122   2.160
  250DPPC   C4912499   9.777   8.076   2.151
  250DPPC   C5012500   9.814   7.979   2.263
  251DPPC    C112501   6.456   5.696   1.315
  251DPPC    C212502   6.675   5.683   1.228
  251DPPC    C312503   6.522   5.838   1.137
  251DPPC    N412504   6.567   5.777   1.262
  251DPPC    C512505   6.610   5.878   1.360
  251DPPC    C612506   6.526   6.001   1.395
  251DPPC    O712507   6.410   5.974   1.475
  251DPPC    P812508   6.331   6.091   1.553
  251DPPC    O912509   6.226   6.009   1.617
  251DPPC   O1012510   6.295   6.200   1.460
  251DPPC   O1112511   6.435   6.150   1.661
  251DPPC   C1212512   6.482   6.031   1.724
  251DPPC   C1312513   6.574   6.061   1.843
  251DPPC   O1412514   6.634   5.940   1.890
  251DPPC   C1512515   6.769   5.929   1.885
  251DPPC   O1612516   6.838   5.978   1.795
  251DPPC   C1712517   6.824   5.825   1.983
  251DPPC   C1812518   6.870   5.896   2.110
  251DPPC   C1912519   6.925   5.796   2.212
  251DPPC   C2012520   7.047   5.722   2.156
  251DPPC   C2112521   7.160   5.820   2.128
  251DPPC   C2212522   7.280   5.744   2.070
  251DPPC   C2312523   7.411   5.818   2.043
  251DPPC   C2412524   7.512   5.718   1.986
  251DPPC   C2512525   7.649   5.786   1.987
  251DPPC   C2612526   7.728   5.717   2.098
  251DPPC   C2712527   7.854   5.804   2.108
  251DPPC   C2812528   7.944   5.810   1.985
  251DPPC   C2912529   8.074   5.881   2.022
  251DPPC   C3012530   8.174   5.890   1.907
  251DPPC   C3112531   8.311   5.927   1.964
  251DPPC   C3212532   6.496   6.152   1.938
  251DPPC   O3312533   6.582   6.242   2.008
  251DPPC   C3412534   6.508   6.327   2.085
  251DPPC   O3512535   6.386   6.330   2.072
  251DPPC   C3612536   6.573   6.423   2.184
  251DPPC   C3712537   6.477   6.430   2.303
  251DPPC   C3812538   6.551   6.504   2.416
  251DPPC   C3912539   6.497   6.469   2.555
  251DPPC   C4012540   6.538   6.565   2.667
  251DPPC   C4112541   6.499   6.498   2.799
  251DPPC   C4212542   6.541   6.591   2.914
  251DPPC   C4312543   6.527   6.532   3.054
  251DPPC   C4412544   6.388   6.473   3.077
  251DPPC   C4512545   6.367   6.423   3.221
  251DPPC   C4612546   6.384   6.553   3.300
  251DPPC   C4712547   6.386   6.526   3.451
  251DPPC   C4812548   6.247   6.512   3.512
  251DPPC   C4912549   6.174   6.647   3.509
  251DPPC   C5012550   6.030   6.643   3.560
  252DPPC    C112551   4.365   2.599   1.555
  252DPPC    C212552   4.562   2.624   1.702
  252DPPC    C312553   4.370   2.738   1.739
  252DPPC    N412554   4.416   2.607   1.692
  252DPPC    C512555   4.366   2.483   1.754
  252DPPC    C612556   4.220   2.444   1.778
  252DPPC    O712557   4.148   2.545   1.848
  252DPPC    P812558   4.014   2.478   1.908
  252DPPC    O912559   4.056   2.362   1.990
  252DPPC   O1012560   3.924   2.460   1.792
  252DPPC   O1112561   3.976   2.604   1.999
  252DPPC   C1212562   4.076   2.622   2.100
  252DPPC   C1312563   4.137   2.762   2.102
  252DPPC   O1412564   4.247   2.781   2.193
  252DPPC   C1512565   4.358   2.856   2.172
  252DPPC   O1612566   4.376   2.924   2.071
  252DPPC   C1712567   4.449   2.860   2.295
  252DPPC   C1812568   4.538   2.736   2.302
  252DPPC   C1912569   4.593   2.725   2.444
  252DPPC   C2012570   4.699   2.616   2.464
  252DPPC   C2112571   4.722   2.579   2.611
  252DPPC   C2212572   4.764   2.434   2.634
  252DPPC   C2312573   4.764   2.406   2.785
  252DPPC   C2412574   4.809   2.262   2.806
  252DPPC   C2512575   4.856   2.225   2.947
  252DPPC   C2612576   4.910   2.083   2.960
  252DPPC   C2712577   4.795   1.991   2.921
  252DPPC   C2812578   4.840   1.853   2.871
  252DPPC   C2912579   4.955   1.864   2.771
  252DPPC   C3012580   5.043   1.739   2.757
  252DPPC   C3112581   5.173   1.771   2.683
  252DPPC   C3212582   4.023   2.862   2.125
  252DPPC   O3312583   3.941   2.842   2.240
  252DPPC   C3412584   3.833   2.924   2.236
  252DPPC   O3512585   3.810   2.987   2.133
  252DPPC   C3612586   3.749   2.934   2.364
  252DPPC   C3712587   3.636   2.832   2.347
  252DPPC   C3812588   3.535   2.827   2.462
  252DPPC   C3912589   3.614   2.785   2.586
  252DPPC   C4012590   3.529   2.779   2.713
  252DPPC   C4112591   3.606   2.713   2.827
  252DPPC   C4212592   3.653   2.569   2.803
  252DPPC   C4312593   3.737   2.518   2.921
  252DPPC   C4412594   3.787   2.378   2.884
  252DPPC   C4512595   3.932   2.365   2.931
  252DPPC   C4612596   3.997   2.228   2.913
  252DPPC   C4712597   4.002   2.193   2.764
  252DPPC   C4812598   4.084   2.064   2.761
  252DPPC   C4912599   4.008   1.967   2.853
  252DPPC   C5012600   4.060   1.823   2.847
  253DPPC    C112601   3.712   7.537   1.601
  253DPPC    C212602   3.683   7.769   1.549
  253DPPC    C312603   3.505   7.607   1.502
  253DPPC    N412604   3.614   7.646   1.592
  253DPPC    C512605   3.555   7.660   1.726
  253DPPC    C612606   3.635   7.675   1.856
  253DPPC    O712607   3.692   7.801   1.894
  253DPPC    P812608   3.849   7.789   1.927
  253DPPC    O912609   3.920   7.918   1.917
  253DPPC   O1012610   3.901   7.685   1.835
  253DPPC   O1112611   3.842   7.742   2.081
  253DPPC   C1212612   3.768   7.837   2.158
  253DPPC   C1312613   3.691   7.768   2.271
  253DPPC   O1412614   3.595   7.845   2.345
  253DPPC   C1512615   3.464   7.846   2.306
  253DPPC   O1612616   3.428   7.786   2.205
  253DPPC   C1712617   3.366   7.921   2.396
  253DPPC   C1812618   3.222   7.881   2.365
  253DPPC   C1912619   3.135   7.965   2.460
  253DPPC   C2012620   2.991   7.917   2.478
  253DPPC   C2112621   2.948   7.979   2.610
  253DPPC   C2212622   2.809   7.924   2.645
  253DPPC   C2312623   2.760   8.006   2.764
  253DPPC   C2412624   2.609   8.008   2.787
  253DPPC   C2512625   2.566   8.063   2.923
  253DPPC   C2612626   2.421   8.028   2.960
  253DPPC   C2712627   2.324   8.098   2.864
  253DPPC   C2812628   2.271   8.237   2.900
  253DPPC   C2912629   2.200   8.299   2.779
  253DPPC   C3012630   2.155   8.435   2.833
  253DPPC   C3112631   2.074   8.529   2.745
  253DPPC   C3212632   3.798   7.706   2.360
  253DPPC   O3312633   3.901   7.781   2.425
  253DPPC   C3412634   4.000   7.715   2.490
  253DPPC   O3512635   3.996   7.592   2.499
  253DPPC   C3612636   4.120   7.795   2.542
  253DPPC   C3712637   4.109   7.857   2.682
  253DPPC   C3812638   4.238   7.935   2.702
  253DPPC   C3912639   4.250   8.072   2.634
  253DPPC   C4012640   4.378   8.144   2.679
  253DPPC   C4112641   4.504   8.058   2.667
  253DPPC   C4212642   4.611   8.114   2.761
  253DPPC   C4312643   4.714   8.002   2.772
  253DPPC   C4412644   4.827   8.053   2.863
  253DPPC   C4512645   4.954   7.973   2.834
  253DPPC   C4612646   5.068   8.019   2.924
  253DPPC   C4712647   5.187   7.928   2.893
  253DPPC   C4812648   5.296   7.956   2.996
  253DPPC   C4912649   5.413   7.858   3.016
  253DPPC   C5012650   5.502   7.885   3.137
  254DPPC    C112651   3.015   1.457   2.246
  254DPPC    C212652   2.922   1.677   2.227
  254DPPC    C312653   3.037   1.574   2.050
  254DPPC    N412654   2.940   1.549   2.157
  254DPPC    C512655   2.817   1.487   2.105
  254DPPC    C612656   2.740   1.543   1.985
  254DPPC    O712657   2.605   1.577   2.016
  254DPPC    P812658   2.555   1.647   1.880
  254DPPC    O912659   2.612   1.568   1.769
  254DPPC   O1012660   2.581   1.790   1.910
  254DPPC   O1112661   2.407   1.613   1.932
  254DPPC   C1212662   2.362   1.707   2.031
  254DPPC   C1312663   2.216   1.705   2.076
  254DPPC   O1412664   2.172   1.789   2.183
  254DPPC   C1512665   2.192   1.923   2.174
  254DPPC   O1612666   2.241   1.988   2.082
  254DPPC   C1712667   2.132   2.000   2.292
  254DPPC   C1812668   2.238   2.064   2.382
  254DPPC   C1912669   2.174   2.107   2.514
  254DPPC   C2012670   2.289   2.140   2.608
  254DPPC   C2112671   2.234   2.220   2.726
  254DPPC   C2212672   2.313   2.186   2.852
  254DPPC   C2312673   2.322   2.042   2.902
  254DPPC   C2412674   2.212   2.002   3.001
  254DPPC   C2512675   2.237   1.860   3.053
  254DPPC   C2612676   2.129   1.832   3.157
  254DPPC   C2712677   2.136   1.701   3.235
  254DPPC   C2812678   2.273   1.711   3.304
  254DPPC   C2912679   2.306   1.587   3.388
  254DPPC   C3012680   2.192   1.550   3.484
  254DPPC   C3112681   2.248   1.441   3.575
  254DPPC   C3212682   2.200   1.554   2.100
  254DPPC   O3312683   2.270   1.503   2.214
  254DPPC   C3412684   2.296   1.370   2.206
  254DPPC   O3512685   2.258   1.303   2.110
  254DPPC   C3612686   2.381   1.315   2.321
  254DPPC   C3712687   2.300   1.218   2.407
  254DPPC   C3812688   2.394   1.159   2.512
  254DPPC   C3912689   2.327   1.057   2.603
  254DPPC   C4012690   2.430   1.006   2.704
  254DPPC   C4112691   2.377   0.892   2.791
  254DPPC   C4212692   2.502   0.822   2.843
  254DPPC   C4312693   2.586   0.888   2.952
  254DPPC   C4412694   2.689   0.784   2.996
  254DPPC   C4512695   2.763   0.817   3.126
  254DPPC   C4612696   2.676   0.826   3.252
  254DPPC   C4712697   2.769   0.816   3.374
  254DPPC   C4812698   2.698   0.803   3.509
  254DPPC   C4912699   2.800   0.792   3.622
  254DPPC   C5012700   2.752   0.853   3.754
  255DPPC    C112701   1.443   7.691   1.565
  255DPPC    C212702   1.451   7.462   1.490
  255DPPC    C312703   1.287   7.599   1.409
  255DPPC    N412704   1.428   7.601   1.450
  255DPPC    C512705   1.510   7.651   1.339
  255DPPC    C612706   1.662   7.665   1.342
  255DPPC    O712707   1.752   7.554   1.339
  255DPPC    P812708   1.907   7.592   1.319
  255DPPC    O912709   1.911   7.713   1.235
  255DPPC   O1012710   1.976   7.465   1.286
  255DPPC   O1112711   1.916   7.619   1.478
  255DPPC   C1212712   1.900   7.492   1.543
  255DPPC   C1312713   1.919   7.494   1.694
  255DPPC   O1412714   1.927   7.364   1.753
  255DPPC   C1512715   2.052   7.311   1.767
  255DPPC   O1612716   2.152   7.355   1.712
  255DPPC   C1712717   2.061   7.178   1.843
  255DPPC   C1812718   1.946   7.137   1.934
  255DPPC   C1912719   1.986   7.023   2.028
  255DPPC   C2012720   1.863   6.959   2.093
  255DPPC   C2112721   1.792   6.865   1.995
  255DPPC   C2212722   1.663   6.808   2.053
  255DPPC   C2312723   1.684   6.706   2.166
  255DPPC   C2412724   1.554   6.682   2.244
  255DPPC   C2512725   1.585   6.558   2.328
  255DPPC   C2612726   1.476   6.530   2.431
  255DPPC   C2712727   1.485   6.382   2.470
  255DPPC   C2812728   1.367   6.342   2.559
  255DPPC   C2912729   1.373   6.425   2.687
  255DPPC   C3012730   1.298   6.333   2.783
  255DPPC   C3112731   1.363   6.199   2.817
  255DPPC   C3212732   1.813   7.594   1.742
  255DPPC   O3312733   1.821   7.660   1.869
  255DPPC   C3412734   1.699   7.709   1.904
  255DPPC   O3512735   1.604   7.692   1.828
  255DPPC   C3612736   1.666   7.760   2.044
  255DPPC   C3712737   1.738   7.892   2.069
  255DPPC   C3812738   1.694   7.950   2.203
  255DPPC   C3912739   1.764   8.083   2.232
  255DPPC   C4012740   1.728   8.117   2.377
  255DPPC   C4112741   1.785   8.257   2.400
  255DPPC   C4212742   1.762   8.309   2.542
  255DPPC   C4312743   1.853   8.227   2.634
  255DPPC   C4412744   1.778   8.161   2.750
  255DPPC   C4512745   1.887   8.080   2.821
  255DPPC   C4612746   1.837   8.018   2.951
  255DPPC   C4712747   1.938   7.925   3.018
  255DPPC   C4812748   1.904   7.778   2.993
  255DPPC   C4912749   2.013   7.693   3.058
  255DPPC   C5012750   2.008   7.722   3.208
  256DPPC    C112751   2.639   6.733   1.597
  256DPPC    C212752   2.601   6.507   1.647
  256DPPC    C312753   2.490   6.621   1.459
  256DPPC    N412754   2.614   6.602   1.536
  256DPPC    C512755   2.725   6.575   1.444
  256DPPC    C612756   2.766   6.428   1.434
  256DPPC    O712757   2.666   6.356   1.361
  256DPPC    P812758   2.712   6.203   1.346
  256DPPC    O912759   2.859   6.210   1.331
  256DPPC   O1012760   2.614   6.160   1.244
  256DPPC   O1112761   2.659   6.167   1.494
  256DPPC   C1212762   2.519   6.160   1.468
  256DPPC   C1312763   2.441   6.107   1.589
  256DPPC   O1412764   2.395   6.210   1.678
  256DPPC   C1512765   2.270   6.261   1.666
  256DPPC   O1612766   2.203   6.254   1.563
  256DPPC   C1712767   2.237   6.365   1.773
  256DPPC   C1812768   2.162   6.292   1.885
  256DPPC   C1912769   2.116   6.407   1.975
  256DPPC   C2012770   2.032   6.341   2.085
  256DPPC   C2112771   2.009   6.446   2.193
  256DPPC   C2212772   2.127   6.506   2.270
  256DPPC   C2312773   2.076   6.590   2.387
  256DPPC   C2412774   2.037   6.727   2.330
  256DPPC   C2512775   1.991   6.805   2.454
  256DPPC   C2612776   1.883   6.737   2.538
  256DPPC   C2712777   1.853   6.795   2.676
  256DPPC   C2812778   1.725   6.737   2.735
  256DPPC   C2912779   1.752   6.592   2.777
  256DPPC   C3012780   1.653   6.551   2.886
  256DPPC   C3112781   1.708   6.422   2.948
  256DPPC   C3212782   2.525   5.991   1.642
  256DPPC   O3312783   2.468   5.907   1.742
  256DPPC   C3412784   2.542   5.802   1.788
  256DPPC   O3512785   2.661   5.790   1.761
  256DPPC   C3612786   2.453   5.698   1.857
  256DPPC   C3712787   2.524   5.635   1.978
  256DPPC   C3812788   2.430   5.572   2.080
  256DPPC   C3912789   2.383   5.436   2.027
  256DPPC   C4012790   2.276   5.382   2.122
  256DPPC   C4112791   2.344   5.364   2.258
  256DPPC   C4212792   2.230   5.333   2.356
  256DPPC   C4312793   2.161   5.204   2.312
  256DPPC   C4412794   2.057   5.149   2.409
  256DPPC   C4512795   2.007   5.011   2.363
  256DPPC   C4612796   1.893   4.971   2.456
  256DPPC   C4712797   1.941   4.961   2.601
  256DPPC   C4812798   1.819   4.957   2.694
  256DPPC   C4912799   1.808   4.811   2.739
  256DPPC   C5012800   1.684   4.803   2.828
  257SOL     OW12801   6.120   8.199   1.023
  257SOL    HW112802   6.219   8.191   1.038
  257SOL    HW212803   6.090   8.291   1.048
  258SOL     OW12804   7.454   3.077   6.563
  258SOL    HW112805   7.398   3.009   6.516
  258SOL    HW212806   7.551   3.052   6.554
  259SOL     OW12807   3.665   2.445   0.537
  259SOL    HW112808   3.635   2.509   0.608
  259SOL    HW212809   3.763   2.431   0.545
  260SOL     OW12810   6.241   1.368   0.488
  260SOL    HW112811   6.267   1.418   0.571
  260SOL    HW212812   6.168   1.417   0.442
  261SOL     OW12813   2.810   0.421   6.258
  261SOL    HW112814   2.887   0.485   6.247
  261SOL    HW212815   2.732   0.470   6.297
  262SOL     OW12816   0.902   5.560   4.303
  262SOL    HW112817   0.836   5.491   4.275
  262SOL    HW212818   0.994   5.520   4.307
  263SOL     OW12819   0.618   4.012   6.441
  263SOL    HW112820   0.621   3.913   6.452
  263SOL    HW212821   0.675   4.039   6.362
  264SOL     OW12822   3.984   1.965   0.729
  264SOL    HW112823   4.009   1.957   0.633
  264SOL    HW212824   4.013   2.055   0.763
  265SOL     OW12825   4.203   5.193   1.840
  265SOL    HW112826   4.240   5.154   1.925
  265SOL    HW212827   4.104   5.182   1.838
  266SOL     OW12828   3.390   1.502   1.739
  266SOL    HW112829   3.335   1.480   1.819
  266SOL    HW212830   3.472   1.446   1.737
  267SOL     OW12831   4.039   7.445   1.790
  267SOL    HW112832   3.998   7.537   1.787
  267SOL    HW212833   3.967   7.377   1.803
  268SOL     OW12834   8.277   3.162   5.355
  268SOL    HW112835   8.278   3.223   5.276
  268SOL    HW212836   8.195   3.106   5.353
  269SOL     OW12837   3.412   1.529   0.284
  269SOL    HW112838   3.396   1.608   0.224
  269SOL    HW212839   3.363   1.541   0.370
  270SOL     OW12840   6.489   0.439   0.936
  270SOL    HW112841   6.496   0.349   0.893
  270SOL    HW212842   6.417   0.492   0.892
  271SOL     OW12843   4.436   2.669   1.178
  271SOL    HW112844   4.390   2.742   1.229
  271SOL    HW212845   4.521   2.645   1.225
  272SOL     OW12846   9.163   1.117   6.155
  272SOL    HW112847   9.149   1.216   6.144
  272SOL    HW212848   9.260   1.099   6.168
  273SOL     OW12849   7.478   7.665   4.782
  273SOL    HW112850   7.536   7.718   4.844
  273SOL    HW212851   7.484   7.704   4.690
  274SOL     OW12852   2.414   6.643   6.699
  274SOL    HW112853   2.476   6.688   6.634
  274SOL    HW212854   2.360   6.712   6.747
  275SOL     OW12855   8.892   6.769   0.029
  275SOL    HW112856   8.941   6.853   0.006
  275SOL    HW212857   8.879   6.714  -0.053
  276SOL     OW12858   9.265   0.725   6.276
  276SOL    HW112859   9.199   0.769   6.215
  276SOL    HW212860   9.223   0.713   6.366
  277SOL     OW12861   1.240   4.429   6.380
  277SOL    HW112862   1.307   4.354   6.373
  277SOL    HW212863   1.225   4.451   6.476
  278SOL     OW12864   5.792   3.082   1.174
  278SOL    HW112865   5.795   3.181   1.192
  278SOL    HW212866   5.852   3.061   1.097
  279SOL     OW12867   9.338   7.151   6.626
  279SOL    HW112868   9.346   7.215   6.703
  279SOL    HW212869   9.271   7.187   6.560
  280SOL     OW12870   1.017   6.769   6.137
  280SOL    HW112871   0.936   6.817   6.101
  280SOL    HW212872   1.075   6.834   6.186
  281SOL     OW12873   9.185   3.412   0.454
  281SOL    HW112874   9.179   3.507   0.486
  281SOL    HW212875   9.224   3.356   0.527
  282SOL     OW12876   5.659   5.773   5.730
  282SOL    HW112877   5.733   5.813   5.784
  282SOL    HW212878   5.595   5.845   5.703
  283SOL     OW12879   5.554   7.365   6.087
  283SOL    HW112880   5.599   7.286   6.128
  283SOL    HW212881   5.561   7.360   5.987
  284SOL     OW12882   6.197   4.521   0.238
  284SOL    HW112883   6.236   4.576   0.164
  284SOL    HW212884   6.249   4.536   0.322
  285SOL     OW12885   5.946   0.545   1.586
  285SOL    HW112886   5.958   0.644   1.587
  285SOL    HW212887   5.932   0.512   1.679
  286SOL     OW12888   3.777   2.835   5.213
  286SOL    HW112889   3.813   2.884   5.292
  286SOL    HW212890   3.838   2.847   5.135
  287SOL     OW12891   2.987   6.595   4.793
  287SOL    HW112892   3.066   6.653   4.815
  287SOL    HW212893   2.904   6.651   4.792
  288SOL     OW12894   1.665   3.741   6.567
  288SOL    HW112895   1.568   3.725   6.582
  288SOL    HW212896   1.687   3.723   6.471
  289SOL     OW12897   8.143   8.088   5.713
  289SOL    HW112898   8.193   8.148   5.777
  289SOL    HW212899   8.098   8.144   5.643
  290SOL     OW12900   2.388   1.471   6.701
  290SOL    HW112901   2.429   1.504   6.787
  290SOL    HW212902   2.367   1.549   6.642
  291SOL     OW12903   4.033   1.040   0.958
  291SOL    HW112904   3.987   0.987   0.887
  291SOL    HW212905   4.070   1.124   0.918
  292SOL     OW12906   6.863   7.159   1.429
  292SOL    HW112907   6.938   7.094   1.420
  292SOL    HW212908   6.830   7.159   1.523
  293SOL     OW12909   2.990   6.954   0.289
  293SOL    HW112910   2.957   6.960   0.194
  293SOL    HW212911   3.087   6.930   0.289
  294SOL     OW12912   8.795   6.506   0.588
  294SOL    HW112913   8.724   6.552   0.641
  294SOL    HW212914   8.817   6.418   0.631
  295SOL     OW12915   6.531   6.448   6.259
  295SOL    HW112916   6.495   6.439   6.166
  295SOL    HW212917   6.620   6.494   6.256
  296SOL     OW12918   0.712   2.562   0.741
  296SOL    HW112919   0.739   2.630   0.673
  296SOL    HW212920   0.734   2.595   0.833
  297SOL     OW12921   2.946   1.274   1.242
  297SOL    HW112922   2.874   1.230   1.189
  297SOL    HW212923   3.034   1.258   1.198
  298SOL     OW12924   7.191   6.473   6.025
  298SOL    HW112925   7.104   6.428   6.004
  298SOL    HW212926   7.262   6.404   6.040
  299SOL     OW12927   7.621   2.457   6.502
  299SOL    HW112928   7.675   2.410   6.572
  299SOL    HW212929   7.582   2.540   6.540
  300SOL     OW12930   6.566   6.905   5.459
  300SOL    HW112931   6.626   6.898   5.540
  300SOL    HW212932   6.622   6.897   5.376
  301SOL     OW12933   5.521   0.948   0.138
  301SOL    HW112934   5.609   0.904   0.121
  301SOL    HW212935   5.449   0.896   0.092
  302SOL     OW12936   1.045   0.911   6.119
  302SOL    HW112937   1.003   0.956   6.197
  302SOL    HW212938   1.121   0.968   6.085
  303SOL     OW12939   4.495   4.312   1.865
  303SOL    HW112940   4.483   4.367   1.782
  303SOL    HW212941   4.592   4.308   1.888
  304SOL     OW12942   8.610   6.072   6.232
  304SOL    HW112943   8.653   6.096   6.145
  304SOL    HW212944   8.518   6.037   6.214
  305SOL     OW12945   6.802   1.095   6.674
  305SOL    HW112946   6.823   1.048   6.589
  305SOL    HW212947   6.877   1.083   6.739
  306SOL     OW12948   4.219   0.396   5.622
  306SOL    HW112949   4.313   0.373   5.646
  306SOL    HW212950   4.211   0.494   5.605
  307SOL     OW12951   6.013   4.577   0.454
  307SOL    HW112952   6.049   4.551   0.364
  307SOL    HW212953   5.947   4.508   0.485
  308SOL     OW12954   0.905   8.308   6.688
  308SOL    HW112955   0.869   8.218   6.711
  308SOL    HW212956   0.878   8.374   6.758
  309SOL     OW12957   3.406   6.051   6.015
  309SOL    HW112958   3.307   6.055   6.018
  309SOL    HW212959   3.443   6.071   6.106
  310SOL     OW12960   3.114   0.420   5.029
  310SOL    HW112961   3.022   0.431   4.992
  310SOL    HW212962   3.110   0.370   5.115
  311SOL     OW12963   4.186   6.999   5.569
  311SOL    HW112964   4.154   6.911   5.603
  311SOL    HW212965   4.122   7.034   5.501
  312SOL     OW12966   2.480   3.584   0.895
  312SOL    HW112967   2.573   3.567   0.925
  312SOL    HW212968   2.451   3.675   0.926
  313SOL     OW12969   4.625   1.450   1.350
  313SOL    HW112970   4.675   1.366   1.330
  313SOL    HW212971   4.612   1.458   1.448
  314SOL     OW12972   6.871   4.760   5.994
  314SOL    HW112973   6.870   4.731   5.899
  314SOL    HW212974   6.816   4.843   6.004
  315SOL     OW12975   6.369   3.361   0.210
  315SOL    HW112976   6.457   3.372   0.163
  315SOL    HW212977   6.379   3.392   0.305
  316SOL     OW12978   7.940   4.602   5.221
  316SOL    HW112979   7.841   4.591   5.230
  316SOL    HW212980   7.978   4.524   5.170
  317SOL     OW12981   1.443   0.937   5.386
  317SOL    HW112982   1.348   0.911   5.401
  317SOL    HW212983   1.501   0.856   5.388
  318SOL     OW12984   2.964   6.259   6.192
  318SOL    HW112985   2.998   6.339   6.241
  318SOL    HW212986   2.903   6.287   6.118
  319SOL     OW12987   1.640   4.267   0.588
  319SOL    HW112988   1.561   4.278   0.528
  319SOL    HW212989   1.610   4.231   0.677
  320SOL     OW12990   4.309   0.114   6.508
  320SOL    HW112991   4.364   0.197   6.497
  320SOL    HW212992   4.245   0.106   6.432
  321SOL     OW12993   6.878   1.339   6.297
  321SOL    HW112994   6.864   1.422   6.242
  321SOL    HW212995   6.838   1.261   6.251
  322SOL     OW12996   6.778   2.787   1.707
  322SOL    HW112997   6.753   2.862   1.767
  322SOL    HW212998   6.858   2.813   1.652
  323SOL     OW12999   7.524   7.627   1.000
  323SOL    HW113000   7.599   7.626   0.934
  323SOL    HW213001   7.437   7.610   0.952
  324SOL     OW13002   7.883   8.119   0.484
  324SOL    HW113003   7.972   8.164   0.479
  324SOL    HW213004   7.870   8.063   0.402
  325SOL     OW13005   0.931   0.040   1.006
  325SOL    HW113006   0.927  -0.043   1.062
  325SOL    HW213007   0.909   0.017   0.911
  326SOL     OW13008   3.080   8.466   1.932
  326SOL    HW113009   3.119   8.553   1.960
  326SOL    HW213010   2.982   8.465   1.950
  327SOL     OW13011   0.273   3.710   1.024
  327SOL    HW113012   0.301   3.752   1.111
  327SOL    HW213013   0.350   3.710   0.960
  328SOL     OW13014   7.040   3.218   0.321
  328SOL    HW113015   7.047   3.135   0.376
  328SOL    HW213016   6.995   3.290   0.374
  329SOL     OW13017   1.777   0.573   0.900
  329SOL    HW113018   1.828   0.650   0.861
  329SOL    HW213019   1.772   0.498   0.834
  330SOL     OW13020   0.137   3.116   0.291
  330SOL    HW113021   0.152   3.017   0.297
  330SOL    HW213022   0.039   3.136   0.291
  331SOL     OW13023   3.929   6.146   5.925
  331SOL    HW113024   3.892   6.069   5.978
  331SOL    HW213025   3.853   6.199   5.887
  332SOL     OW13026   2.356   6.070   6.158
  332SOL    HW113027   2.340   6.046   6.254
  332SOL    HW213028   2.269   6.096   6.116
  333SOL     OW13029   1.461   4.167   0.192
  333SOL    HW113030   1.503   4.246   0.147
  333SOL    HW213031   1.530   4.095   0.204
  334SOL     OW13032   7.708   3.318   6.074
  334SOL    HW113033   7.660   3.375   6.008
  334SOL    HW213034   7.729   3.373   6.156
  335SOL     OW13035   7.730   6.057   6.227
  335SOL    HW113036   7.660   6.059   6.298
  335SOL    HW213037   7.796   5.985   6.248
  336SOL     OW13038   7.178   1.534   1.203
  336SOL    HW113039   7.184   1.436   1.186
  336SOL    HW213040   7.222   1.556   1.290
  337SOL     OW13041   6.428   3.420   1.207
  337SOL    HW113042   6.507   3.374   1.246
  337SOL    HW213043   6.372   3.354   1.157
  338SOL     OW13044   7.300   2.973   6.089
  338SOL    HW113045   7.328   2.889   6.135
  338SOL    HW213046   7.362   3.047   6.115
  339SOL     OW13047   3.368   1.022   0.938
  339SOL    HW113048   3.274   1.033   0.905
  339SOL    HW213049   3.422   1.102   0.913
  340SOL     OW13050   4.121   8.384   6.119
  340SOL    HW113051   4.183   8.308   6.100
  340SOL    HW213052   4.031   8.365   6.080
  341SOL     OW13053   2.931   6.266   6.625
  341SOL    HW113054   2.876   6.247   6.544
  341SOL    HW213055   3.023   6.291   6.597
  342SOL     OW13056   0.507   4.595   6.631
  342SOL    HW113057   0.487   4.501   6.661
  342SOL    HW213058   0.595   4.597   6.584
  343SOL     OW13059   2.522   3.269   5.512
  343SOL    HW113060   2.581   3.199   5.553
  343SOL    HW213061   2.527   3.264   5.413
  344SOL     OW13062   6.009   6.503   5.259
  344SOL    HW113063   6.094   6.504   5.206
  344SOL    HW213064   5.934   6.538   5.202
  345SOL     OW13065   5.327   2.570   1.348
  345SOL    HW113066   5.368   2.480   1.334
  345SOL    HW213067   5.250   2.581   1.285
  346SOL     OW13068   9.012   3.966   0.923
  346SOL    HW113069   9.107   3.938   0.909
  346SOL    HW213070   9.009   4.057   0.965
  347SOL     OW13071   0.273   3.208   5.450
  347SOL    HW113072   0.328   3.208   5.366
  347SOL    HW213073   0.190   3.263   5.435
  348SOL     OW13074   7.043   4.470   6.301
  348SOL    HW113075   6.957   4.422   6.315
  348SOL    HW213076   7.111   4.407   6.263
  349SOL     OW13077   0.964   8.037   1.416
  349SOL    HW113078   1.007   8.126   1.429
  349SOL    HW213079   0.870   8.040   1.450
  350SOL     OW13080   0.526   1.299   4.657
  350SOL    HW113081   0.467   1.380   4.652
  350SOL    HW213082   0.471   1.218   4.676
  351SOL     OW13083   4.553   5.883   6.628
  351SOL    HW113084   4.640   5.932   6.621
  351SOL    HW213085   4.570   5.791   6.663
  352SOL     OW13086   0.178   4.170   6.522
  352SOL    HW113087   0.150   4.077   6.546
  352SOL    HW213088   0.104   4.216   6.473
  353SOL     OW13089   7.506   6.324   6.696
  353SOL    HW113090   7.462   6.414   6.695
  353SOL    HW213091   7.585   6.325   6.634
  354SOL     OW13092   3.367   6.347   6.384
  354SOL    HW113093   3.423   6.289   6.324
  354SOL    HW213094   3.313   6.410   6.328
  355SOL     OW13095   6.423   3.738   6.578
  355SOL    HW113096   6.359   3.814   6.569
  355SOL    HW213097   6.516   3.770   6.558
  356SOL     OW13098   7.670   0.678   5.759
  356SOL    HW113099   7.744   0.637   5.706
  356SOL    HW213100   7.604   0.720   5.696
  357SOL     OW13101   7.819   7.464   4.894
  357SOL    HW113102   7.858   7.477   4.985
  357SOL    HW213103   7.719   7.471   4.899
  358SOL     OW13104   3.921   5.973   0.740
  358SOL    HW113105   3.854   6.014   0.678
  358SOL    HW213106   4.007   5.958   0.692
  359SOL     OW13107   2.400   1.437   0.352
  359SOL    HW113108   2.396   1.533   0.379
  359SOL    HW213109   2.329   1.385   0.400
  360SOL     OW13110   6.420   1.873   5.715
  360SOL    HW113111   6.425   1.958   5.662
  360SOL    HW213112   6.347   1.816   5.677
  361SOL     OW13113   5.615   3.688   0.589
  361SOL    HW113114   5.579   3.652   0.675
  361SOL    HW213115   5.573   3.777   0.570
  362SOL     OW13116   5.115   0.416   6.265
  362SOL    HW113117   5.208   0.440   6.238
  362SOL    HW213118   5.090   0.467   6.348
  363SOL     OW13119   7.421   3.585   0.774
  363SOL    HW113120   7.415   3.683   0.787
  363SOL    HW213121   7.455   3.541   0.857
  364SOL     OW13122   0.281   3.268   6.181
  364SOL    HW113123   0.224   3.186   6.173
  364SOL    HW213124   0.230   3.346   6.145
  365SOL     OW13125   2.401   0.014   5.871
  365SOL    HW113126   2.336   0.090   5.861
  365SOL    HW213127   2.386  -0.052   5.798
  366SOL     OW13128   3.278   3.540   0.128
  366SOL    HW113129   3.254   3.606   0.058
  366SOL    HW213130   3.378   3.531   0.133
  367SOL     OW13131   2.204   5.072   6.704
  367SOL    HW113132   2.263   5.149   6.683
  367SOL    HW213133   2.113   5.088   6.664
  368SOL     OW13134   2.642   3.323   6.587
  368SOL    HW113135   2.566   3.286   6.642
  368SOL    HW213136   2.648   3.422   6.602
  369SOL     OW13137   7.229   5.953   5.478
  369SOL    HW113138   7.235   5.875   5.416
  369SOL    HW213139   7.148   6.008   5.455
  370SOL     OW13140   7.502   3.793   6.330
  370SOL    HW113141   7.575   3.771   6.395
  370SOL    HW213142   7.519   3.747   6.243
  371SOL     OW13143   1.087   7.209   5.572
  371SOL    HW113144   1.108   7.148   5.648
  371SOL    HW213145   1.050   7.295   5.608
  372SOL     OW13146   8.005   6.209   0.021
  372SOL    HW113147   8.050   6.120   0.013
  372SOL    HW213148   8.013   6.259  -0.065
  373SOL     OW13149   4.697   7.455   6.325
  373SOL    HW113150   4.754   7.400   6.386
  373SOL    HW213151   4.618   7.490   6.375
  374SOL     OW13152   4.745   0.558   0.368
  374SOL    HW113153   4.680   0.579   0.441
  374SOL    HW213154   4.723   0.470   0.327
  375SOL     OW13155   2.133   0.475   0.760
  375SOL    HW113156   2.126   0.423   0.846
  375SOL    HW213157   2.079   0.431   0.689
  376SOL     OW13158   0.367   0.317   5.608
  376SOL    HW113159   0.465   0.298   5.614
  376SOL    HW213160   0.348   0.409   5.643
  377SOL     OW13161   8.735   1.895   0.142
  377SOL    HW113162   8.694   1.859   0.058
  377SOL    HW213163   8.784   1.980   0.122
  378SOL     OW13164   3.818   4.320   0.579
  378SOL    HW113165   3.841   4.383   0.505
  378SOL    HW213166   3.901   4.300   0.632
  379SOL     OW13167   2.541   2.254   0.385
  379SOL    HW113168   2.611   2.214   0.444
  379SOL    HW213169   2.464   2.286   0.441
  380SOL     OW13170   8.764   4.287   6.357
  380SOL    HW113171   8.737   4.356   6.423
  380SOL    HW213172   8.761   4.326   6.265
  381SOL     OW13173   7.994   1.135   5.902
  381SOL    HW113174   8.020   1.179   5.816
  381SOL    HW213175   7.985   1.036   5.887
  382SOL     OW13176   0.724   4.924   0.176
  382SOL    HW113177   0.661   4.982   0.123
  382SOL    HW213178   0.785   4.876   0.113
  383SOL     OW13179   6.942   5.509   5.752
  383SOL    HW113180   6.931   5.606   5.732
  383SOL    HW213181   7.013   5.471   5.693
  384SOL     OW13182   5.644   1.536   0.352
  384SOL    HW113183   5.669   1.464   0.417
  384SOL    HW213184   5.696   1.524   0.267
  385SOL     OW13185   5.025   7.466   6.263
  385SOL    HW113186   5.017   7.485   6.165
  385SOL    HW213187   5.016   7.368   6.279
  386SOL     OW13188   0.340   3.397   0.932
  386SOL    HW113189   0.424   3.449   0.915
  386SOL    HW213190   0.359   3.325   0.998
  387SOL     OW13191   6.417   4.966   0.847
  387SOL    HW113192   6.437   5.055   0.806
  387SOL    HW213193   6.492   4.902   0.828
  388SOL     OW13194   3.727   0.103   0.274
  388SOL    HW113195   3.708   0.009   0.300
  388SOL    HW213196   3.825   0.114   0.256
  389SOL     OW13197   2.325   5.669   6.462
  389SOL    HW113198   2.420   5.675   6.493
  389SOL    HW213199   2.264   5.676   6.541
  390SOL     OW13200   8.365   3.978   5.243
  390SOL    HW113201   8.291   3.916   5.218
  390SOL    HW213202   8.387   4.037   5.165
  391SOL     OW13203   3.420   2.385   5.171
  391SOL    HW113204   3.357   2.462   5.185
  391SOL    HW213205   3.435   2.372   5.073
  392SOL     OW13206   8.348   1.871   0.401
  392SOL    HW113207   8.446   1.866   0.383
  392SOL    HW213208   8.306   1.936   0.339
  393SOL     OW13209   3.890   5.237   1.704
  393SOL    HW113210   3.826   5.312   1.720
  393SOL    HW213211   3.849   5.172   1.640
  394SOL     OW13212   6.065   1.013   1.316
  394SOL    HW113213   6.019   1.083   1.371
  394SOL    HW213214   6.000   0.975   1.250
  395SOL     OW13215   6.433   7.856   1.149
  395SOL    HW113216   6.498   7.863   1.226
  395SOL    HW213217   6.482   7.828   1.067
  396SOL     OW13218   5.782   0.497   5.222
  396SOL    HW113219   5.735   0.584   5.232
  396SOL    HW213220   5.831   0.476   5.307
  397SOL     OW13221   8.272   0.094   6.175
  397SOL    HW113222   8.251  -0.000   6.148
  397SOL    HW213223   8.195   0.132   6.226
  398SOL     OW13224   0.246   8.350   1.443
  398SOL    HW113225   0.318   8.377   1.507
  398SOL    HW213226   0.162   8.329   1.494
  399SOL     OW13227   6.529   1.126   0.580
  399SOL    HW113228   6.487   1.036   0.588
  399SOL    HW213229   6.459   1.196   0.580
  400SOL     OW13230   6.478   7.575   0.395
  400SOL    HW113231   6.518   7.660   0.429
  400SOL    HW213232   6.381   7.589   0.376
  401SOL     OW13233   6.432   2.764   0.986
  401SOL    HW113234   6.532   2.763   0.978
  401SOL    HW213235   6.405   2.833   1.053
  402SOL     OW13236   5.970   6.764   6.287
  402SOL    HW113237   5.928   6.767   6.196
  402SOL    HW213238   5.951   6.675   6.329
  403SOL     OW13239   5.601   7.298   5.819
  403SOL    HW113240   5.692   7.340   5.815
  403SOL    HW213241   5.560   7.299   5.728
  404SOL     OW13242   4.992   4.061   1.171
  404SOL    HW113243   4.945   4.149   1.159
  404SOL    HW213244   5.078   4.076   1.219
  405SOL     OW13245   6.377   3.431   0.478
  405SOL    HW113246   6.313   3.381   0.536
  405SOL    HW213247   6.459   3.454   0.531
  406SOL     OW13248   0.550   5.157   5.384
  406SOL    HW113249   0.555   5.095   5.306
  406SOL    HW213250   0.489   5.233   5.363
  407SOL     OW13251   3.500   0.048   1.043
  407SOL    HW113252   3.598   0.048   1.022
  407SOL    HW213253   3.449   0.078   0.963
  408SOL     OW13254   4.475   2.048   1.092
  408SOL    HW113255   4.548   2.052   1.024
  408SOL    HW213256   4.394   2.006   1.052
  409SOL     OW13257   8.252   5.029   6.215
  409SOL    HW113258   8.252   5.080   6.301
  409SOL    HW213259   8.283   5.088   6.140
  410SOL     OW13260   8.426   2.924   6.190
  410SOL    HW113261   8.471   2.929   6.280
  410SOL    HW213262   8.408   2.829   6.167
  411SOL     OW13263   6.752   5.918   5.356
  411SOL    HW113264   6.764   5.869   5.270
  411SOL    HW213265   6.802   5.871   5.429
  412SOL     OW13266   8.499   7.806   5.769
  412SOL    HW113267   8.509   7.707   5.777
  412SOL    HW213268   8.432   7.827   5.697
  413SOL     OW13269   3.048   3.213   6.442
  413SOL    HW113270   3.042   3.217   6.343
  413SOL    HW213271   3.116   3.145   6.469
  414SOL     OW13272   1.524   5.763   5.406
  414SOL    HW113273   1.600   5.699   5.392
  414SOL    HW213274   1.440   5.723   5.371
  415SOL     OW13275   8.641   4.795   0.246
  415SOL    HW113276   8.548   4.813   0.280
  415SOL    HW213277   8.643   4.707   0.199
  416SOL     OW13278   5.589   4.061   5.607
  416SOL    HW113279   5.551   4.018   5.689
  416SOL    HW213280   5.572   4.002   5.528
  417SOL     OW13281   6.356   2.487   0.589
  417SOL    HW113282   6.312   2.409   0.544
  417SOL    HW213283   6.378   2.556   0.520
  418SOL     OW13284   3.392   1.787   6.240
  418SOL    HW113285   3.382   1.762   6.337
  418SOL    HW213286   3.308   1.761   6.191
  419SOL     OW13287   0.127   1.367   6.150
  419SOL    HW113288   0.069   1.448   6.143
  419SOL    HW213289   0.109   1.306   6.073
  420SOL     OW13290   0.233   4.703   1.259
  420SOL    HW113291   0.290   4.746   1.188
  420SOL    HW213292   0.176   4.773   1.302
  421SOL     OW13293   8.519   6.956   0.432
  421SOL    HW113294   8.545   6.873   0.382
  421SOL    HW213295   8.514   7.033   0.368
  422SOL     OW13296   2.573   8.015   6.538
  422SOL    HW113297   2.523   8.101   6.544
  422SOL    HW213298   2.509   7.939   6.551
  423SOL     OW13299   1.472   7.264   0.210
  423SOL    HW113300   1.497   7.323   0.133
  423SOL    HW213301   1.541   7.273   0.282
  424SOL     OW13302   9.475   0.136   1.087
  424SOL    HW113303   9.376   0.129   1.103
  424SOL    HW213304   9.501   0.074   1.013
  425SOL     OW13305   8.534   2.097   0.501
  425SOL    HW113306   8.581   2.013   0.475
  425SOL    HW213307   8.595   2.175   0.483
  426SOL     OW13308   6.795   7.964   0.731
  426SOL    HW113309   6.857   7.889   0.708
  426SOL    HW213310   6.810   7.992   0.826
  427SOL     OW13311   1.149   0.066   5.085
  427SOL    HW113312   1.084   0.141   5.100
  427SOL    HW213313   1.112  -0.018   5.125
  428SOL     OW13314   3.038   1.031   6.509
  428SOL    HW113315   3.048   0.960   6.578
  428SOL    HW213316   2.964   1.093   6.534
  429SOL     OW13317   5.698   4.434   6.109
  429SOL    HW113318   5.734   4.503   6.172
  429SOL    HW213319   5.754   4.432   6.026
  430SOL     OW13320   1.947   0.706   4.973
  430SOL    HW113321   2.003   0.669   4.899
  430SOL    HW213322   1.942   0.639   5.047
  431SOL     OW13323   0.431   6.972   1.014
  431SOL    HW113324   0.358   6.905   0.997
  431SOL    HW213325   0.462   6.963   1.109
  432SOL     OW13326   1.820   7.942   4.091
  432SOL    HW113327   1.733   7.980   4.120
  432SOL    HW213328   1.866   8.006   4.030
  433SOL     OW13329   7.562   6.527   6.392
  433SOL    HW113330   7.524   6.548   6.482
  433SOL    HW213331   7.630   6.596   6.368
  434SOL     OW13332   6.480   3.176   0.693
  434SOL    HW113333   6.466   3.098   0.631
  434SOL    HW213334   6.539   3.147   0.769
  435SOL     OW13335   0.603   3.423   5.112
  435SOL    HW113336   0.508   3.444   5.132
  435SOL    HW213337   0.635   3.480   5.036
  436SOL     OW13338   2.999   0.450   5.984
  436SOL    HW113339   3.062   0.379   5.951
  436SOL    HW213340   3.021   0.473   6.079
  437SOL     OW13341   1.168   2.830   1.028
  437SOL    HW113342   1.080   2.806   1.069
  437SOL    HW213343   1.177   2.929   1.025
  438SOL     OW13344   5.528   0.015   1.129
  438SOL    HW113345   5.573  -0.028   1.050
  438SOL    HW213346   5.594   0.071   1.178
  439SOL     OW13347   3.100   6.424   5.635
  439SOL    HW113348   3.114   6.347   5.573
  439SOL    HW213349   3.011   6.466   5.618
  440SOL     OW13350   0.240   0.532   5.744
  440SOL    HW113351   0.163   0.589   5.714
  440SOL    HW213352   0.222   0.498   5.836
  441SOL     OW13353   2.751   7.881   0.770
  441SOL    HW113354   2.793   7.801   0.727
  441SOL    HW213355   2.653   7.866   0.780
  442SOL     OW13356   7.613   6.532   5.840
  442SOL    HW113357   7.611   6.631   5.851
  442SOL    HW213358   7.583   6.508   5.748
  443SOL     OW13359   1.244   5.137   5.674
  443SOL    HW113360   1.210   5.150   5.581
  443SOL    HW213361   1.174   5.163   5.739
  444SOL     OW13362   7.066   3.039   1.040
  444SOL    HW113363   7.108   3.015   1.128
  444SOL    HW213364   7.049   3.137   1.038
  445SOL     OW13365   2.061   6.536   5.387
  445SOL    HW113366   2.079   6.545   5.289
  445SOL    HW213367   1.981   6.589   5.412
  446SOL     OW13368   1.041   4.048   6.129
  446SOL    HW113369   1.101   3.970   6.111
  446SOL    HW213370   1.068   4.091   6.215
  447SOL     OW13371   9.295   3.062   0.981
  447SOL    HW113372   9.274   3.099   1.072
  447SOL    HW213373   9.382   3.013   0.985
  448SOL     OW13374   0.395   1.813   0.659
  448SOL    HW113375   0.487   1.813   0.698
  448SOL    HW213376   0.341   1.886   0.702
  449SOL     OW13377   4.078   6.533   0.967
  449SOL    HW113378   4.167   6.541   1.012
  449SOL    HW213379   4.011   6.496   1.031
  450SOL     OW13380   4.539   4.713   5.417
  450SOL    HW113381   4.594   4.752   5.343
  450SOL    HW213382   4.564   4.617   5.431
  451SOL     OW13383   0.344   7.315   6.245
  451SOL    HW113384   0.328   7.412   6.262
  451SOL    HW213385   0.377   7.302   6.151
  452SOL     OW13386   9.260   2.758   5.951
  452SOL    HW113387   9.224   2.784   6.041
  452SOL    HW213388   9.201   2.687   5.912
  453SOL     OW13389   4.376   6.507   0.091
  453SOL    HW113390   4.460   6.472   0.132
  453SOL    HW213391   4.398   6.588   0.036
  454SOL     OW13392   3.826   1.900   0.392
  454SOL    HW113393   3.801   1.859   0.305
  454SOL    HW213394   3.754   1.963   0.421
  455SOL     OW13395   4.742   7.206   6.522
  455SOL    HW113396   4.654   7.194   6.568
  455SOL    HW213397   4.803   7.130   6.547
  456SOL     OW13398   7.800   0.340   0.758
  456SOL    HW113399   7.751   0.406   0.815
  456SOL    HW213400   7.869   0.292   0.813
  457SOL     OW13401   3.484   6.169   0.140
  457SOL    HW113402   3.531   6.177   0.227
  457SOL    HW213403   3.416   6.243   0.132
  458SOL     OW13404   7.360   5.295   5.204
  458SOL    HW113405   7.317   5.363   5.145
  458SOL    HW213406   7.429   5.244   5.152
  459SOL     OW13407   4.167   6.444   0.355
  459SOL    HW113408   4.098   6.424   0.285
  459SOL    HW213409   4.182   6.363   0.412
  460SOL     OW13410   9.468   5.425   0.264
  460SOL    HW113411   9.412   5.356   0.218
  460SOL    HW213412   9.451   5.421   0.363
  461SOL     OW13413   6.706   3.246   5.544
  461SOL    HW113414   6.763   3.328   5.544
  461SOL    HW213415   6.615   3.270   5.510
  462SOL     OW13416   3.538   4.974   5.480
  462SOL    HW113417   3.547   4.995   5.577
  462SOL    HW213418   3.508   4.880   5.468
  463SOL     OW13419   0.034   4.379   0.037
  463SOL    HW113420   0.061   4.475   0.026
  463SOL    HW213421   0.108   4.329   0.082
  464SOL     OW13422   0.107   1.940   5.595
  464SOL    HW113423   0.062   1.915   5.510
  464SOL    HW213424   0.057   1.900   5.672
  465SOL     OW13425   3.544   3.665   0.624
  465SOL    HW113426   3.539   3.714   0.711
  465SOL    HW213427   3.550   3.730   0.549
  466SOL     OW13428   1.808   7.302   6.367
  466SOL    HW113429   1.785   7.338   6.457
  466SOL    HW213430   1.862   7.370   6.317
  467SOL     OW13431   9.111   2.931   5.732
  467SOL    HW113432   9.085   3.020   5.767
  467SOL    HW213433   9.175   2.888   5.796
  468SOL     OW13434   1.925   1.495   6.490
  468SOL    HW113435   1.836   1.540   6.503
  468SOL    HW213436   1.991   1.536   6.553
  469SOL     OW13437   6.511   3.021   0.472
  469SOL    HW113438   6.445   3.026   0.397
  469SOL    HW213439   6.601   3.053   0.440
  470SOL     OW13440   2.314   5.762   1.129
  470SOL    HW113441   2.311   5.820   1.210
  470SOL    HW213442   2.408   5.757   1.095
  471SOL     OW13443   9.155   2.897   6.200
  471SOL    HW113444   9.097   2.965   6.155
  471SOL    HW213445   9.116   2.873   6.289
  472SOL     OW13446   6.262   7.673   0.068
  472SOL    HW113447   6.265   7.620   0.152
  472SOL    HW213448   6.234   7.614  -0.008
  473SOL     OW13449   5.171   5.349   0.287
  473SOL    HW113450   5.096   5.294   0.325
  473SOL    HW213451   5.163   5.351   0.187
  474SOL     OW13452   9.172   5.403   6.082
  474SOL    HW113453   9.216   5.320   6.050
  474SOL    HW213454   9.142   5.391   6.177
  475SOL     OW13455   9.027   3.131   6.212
  475SOL    HW113456   9.062   3.216   6.173
  475SOL    HW213457   8.937   3.148   6.254
  476SOL     OW13458   1.029   0.425   6.355
  476SOL    HW113459   1.063   0.400   6.446
  476SOL    HW213460   1.024   0.525   6.349
  477SOL     OW13461   2.958   6.509   6.292
  477SOL    HW113462   2.885   6.547   6.235
  477SOL    HW213463   2.957   6.553   6.382
  478SOL     OW13464   4.305   0.586   5.301
  478SOL    HW113465   4.255   0.505   5.269
  478SOL    HW213466   4.353   0.628   5.224
  479SOL     OW13467   7.362   3.647   6.665
  479SOL    HW113468   7.319   3.570   6.618
  479SOL    HW213469   7.371   3.625   6.762
  480SOL     OW13470   2.042   8.405   0.953
  480SOL    HW113471   1.996   8.340   0.893
  480SOL    HW213472   2.138   8.379   0.964
  481SOL     OW13473   9.315   4.881   0.545
  481SOL    HW113474   9.365   4.822   0.609
  481SOL    HW213475   9.297   4.830   0.461
  482SOL     OW13476   6.286   6.701   0.121
  482SOL    HW113477   6.341   6.617   0.123
  482SOL    HW213478   6.344   6.778   0.097
  483SOL     OW13479   8.857   4.789   6.670
  483SOL    HW113480   8.933   4.731   6.699
  483SOL    HW213481   8.847   4.866   6.734
  484SOL     OW13482   7.352   7.427   6.055
  484SOL    HW113483   7.287   7.352   6.069
  484SOL    HW213484   7.420   7.426   6.128
  485SOL     OW13485   3.030   7.662   6.152
  485SOL    HW113486   2.953   7.695   6.207
  485SOL    HW213487   3.038   7.717   6.069
  486SOL     OW13488   0.860   6.593   4.799
  486SOL    HW113489   0.951   6.553   4.798
  486SOL    HW213490   0.834   6.614   4.894
  487SOL     OW13491   0.247   6.953   0.446
  487SOL    HW113492   0.307   7.001   0.383
  487SOL    HW213493   0.289   6.866   0.472
  488SOL     OW13494   5.310   5.521   0.426
  488SOL    HW113495   5.255   5.455   0.375
  488SOL    HW213496   5.254   5.600   0.451
  489SOL     OW13497   0.155   7.650   6.676
  489SOL    HW113498   0.191   7.643   6.769
  489SOL    HW213499   0.104   7.567   6.654
  490SOL     OW13500   4.896   7.969   5.444
  490SOL    HW113501   4.916   7.895   5.508
  490SOL    HW213502   4.922   7.941   5.352
  491SOL     OW13503   6.762   3.532   0.067
  491SOL    HW113504   6.836   3.519   0.001
  491SOL    HW213505   6.674   3.524   0.020
  492SOL     OW13506   1.870   4.545   4.621
  492SOL    HW113507   1.850   4.448   4.631
  492SOL    HW213508   1.786   4.595   4.603
  493SOL     OW13509   8.125   2.509   5.709
  493SOL    HW113510   8.125   2.557   5.621
  493SOL    HW213511   8.127   2.410   5.693
  494SOL     OW13512   4.319   5.790   0.114
  494SOL    HW113513   4.318   5.695   0.146
  494SOL    HW213514   4.413   5.822   0.107
  495SOL     OW13515   8.045   2.462   0.257
  495SOL    HW113516   7.971   2.419   0.309
  495SOL    HW213517   8.011   2.546   0.214
  496SOL     OW13518   8.760   7.462   6.334
  496SOL    HW113519   8.672   7.452   6.380
  496SOL    HW213520   8.775   7.385   6.272
  497SOL     OW13521   0.556   4.738   5.376
  497SOL    HW113522   0.627   4.688   5.327
  497SOL    HW213523   0.599   4.796   5.446
  498SOL     OW13524   2.038   4.485   0.838
  498SOL    HW113525   2.097   4.460   0.915
  498SOL    HW213526   1.948   4.510   0.872
  499SOL     OW13527   5.871   7.858   2.055
  499SOL    HW113528   5.942   7.883   2.121
  499SOL    HW213529   5.891   7.768   2.017
  500SOL     OW13530   2.497   1.235   5.761
  500SOL    HW113531   2.457   1.315   5.716
  500SOL    HW213532   2.547   1.266   5.843
  501SOL     OW13533   5.742   1.987   1.542
  501SOL    HW113534   5.738   1.908   1.602
  501SOL    HW213535   5.837   2.003   1.514
  502SOL     OW13536   1.147   5.541   4.550
  502SOL    HW113537   1.072   5.478   4.570
  502SOL    HW213538   1.177   5.529   4.456
  503SOL     OW13539   8.016   6.204   5.547
  503SOL    HW113540   7.919   6.225   5.557
  503SOL    HW213541   8.071   6.274   5.592
  504SOL     OW13542   0.842   6.847   5.648
  504SOL    HW113543   0.910   6.857   5.575
  504SOL    HW213544   0.751   6.838   5.606
  505SOL     OW13545   1.787   3.792   0.311
  505SOL    HW113546   1.706   3.825   0.359
  505SOL    HW213547   1.806   3.698   0.339
  506SOL     OW13548   0.049   7.548   6.426
  506SOL    HW113549   0.013   7.641   6.429
  506SOL    HW213550  -0.017   7.487   6.382
  507SOL     OW13551   1.340   7.136   0.762
  507SOL    HW113552   1.272   7.202   0.793
  507SOL    HW213553   1.335   7.053   0.819
  508SOL     OW13554   4.897   5.649   4.952
  508SOL    HW113555   4.857   5.711   4.884
  508SOL    HW213556   4.980   5.609   4.915
  509SOL     OW13557   8.998   4.711   5.042
  509SOL    HW113558   8.935   4.772   5.090
  509SOL    HW213559   8.972   4.616   5.058
  510SOL     OW13560   5.839   5.502   0.290
  510SOL    HW113561   5.754   5.531   0.335
  510SOL    HW213562   5.917   5.551   0.331
  511SOL     OW13563   1.617   1.236   0.892
  511SOL    HW113564   1.638   1.283   0.978
  511SOL    HW213565   1.522   1.207   0.891
  512SOL     OW13566   7.827   0.528   6.447
  512SOL    HW113567   7.754   0.478   6.494
  512SOL    HW213568   7.843   0.487   6.357
  513SOL     OW13569   4.603   7.857   6.088
  513SOL    HW113570   4.695   7.883   6.057
  513SOL    HW213571   4.593   7.757   6.082
  514SOL     OW13572   1.743   1.501   1.593
  514SOL    HW113573   1.838   1.480   1.618
  514SOL    HW213574   1.680   1.451   1.652
  515SOL     OW13575   8.449   2.626   6.459
  515SOL    HW113576   8.488   2.599   6.547
  515SOL    HW213577   8.387   2.554   6.426
  516SOL     OW13578   8.358   7.277   0.605
  516SOL    HW113579   8.377   7.200   0.666
  516SOL    HW213580   8.440   7.334   0.597
  517SOL     OW13581   1.191   4.305   1.146
  517SOL    HW113582   1.272   4.313   1.205
  517SOL    HW213583   1.114   4.353   1.189
  518SOL     OW13584   6.586   7.168   0.886
  518SOL    HW113585   6.577   7.241   0.954
  518SOL    HW213586   6.626   7.087   0.929
  519SOL     OW13587   1.934   7.601   6.647
  519SOL    HW113588   2.024   7.623   6.608
  519SOL    HW213589   1.920   7.653   6.730
  520SOL     OW13590   1.215   4.199   0.040
  520SOL    HW113591   1.203   4.106   0.004
  520SOL    HW213592   1.287   4.198   0.110
  521SOL     OW13593   4.434   3.641   1.241
  521SOL    HW113594   4.423   3.607   1.335
  521SOL    HW213595   4.364   3.600   1.182
  522SOL     OW13596   3.583   2.034   0.052
  522SOL    HW113597   3.655   2.043  -0.018
  522SOL    HW213598   3.495   2.022   0.007
  523SOL     OW13599   0.951   6.640   5.124
  523SOL    HW113600   0.900   6.685   5.197
  523SOL    HW213601   1.006   6.566   5.163
  524SOL     OW13602   2.147   1.849   6.394
  524SOL    HW113603   2.162   1.805   6.305
  524SOL    HW213604   2.231   1.845   6.448
  525SOL     OW13605   5.950   3.644   0.614
  525SOL    HW113606   5.862   3.659   0.570
  525SOL    HW213607   5.951   3.690   0.703
  526SOL     OW13608   2.802   4.232   6.061
  526SOL    HW113609   2.842   4.322   6.043
  526SOL    HW213610   2.731   4.212   5.993
  527SOL     OW13611   8.692   2.649   0.783
  527SOL    HW113612   8.764   2.626   0.848
  527SOL    HW213613   8.663   2.744   0.796
  528SOL     OW13614   8.525   0.568   5.637
  528SOL    HW113615   8.548   0.666   5.637
  528SOL    HW213616   8.584   0.520   5.702
  529SOL     OW13617   2.892   7.017   0.762
  529SOL    HW113618   2.950   6.982   0.836
  529SOL    HW213619   2.796   7.013   0.791
  530SOL     OW13620   4.437   4.041   0.042
  530SOL    HW113621   4.490   3.978  -0.015
  530SOL    HW213622   4.408   4.119  -0.014
  531SOL     OW13623   3.224   8.007   0.109
  531SOL    HW113624   3.311   8.026   0.156
  531SOL    HW213625   3.216   8.069   0.031
  532SOL     OW13626   0.936   1.031   6.369
  532SOL    HW113627   0.961   1.022   6.465
  532SOL    HW213628   0.887   1.117   6.355
  533SOL     OW13629   1.520   1.779   0.228
  533SOL    HW113630   1.506   1.800   0.325
  533SOL    HW213631   1.617   1.769   0.210
  534SOL     OW13632   0.485   2.400   1.297
  534SOL    HW113633   0.462   2.477   1.237
  534SOL    HW213634   0.554   2.430   1.363
  535SOL     OW13635   5.570   7.647   0.897
  535SOL    HW113636   5.635   7.715   0.863
  535SOL    HW213637   5.529   7.680   0.982
  536SOL     OW13638   3.545   5.508   5.594
  536SOL    HW113639   3.540   5.515   5.693
  536SOL    HW213640   3.456   5.478   5.559
  537SOL     OW13641   4.074   3.371   6.384
  537SOL    HW113642   3.985   3.332   6.409
  537SOL    HW213643   4.136   3.297   6.358
  538SOL     OW13644   2.447   0.076   5.377
  538SOL    HW113645   2.544   0.087   5.397
  538SOL    HW213646   2.412   0.158   5.332
  539SOL     OW13647   5.544   3.266   0.494
  539SOL    HW113648   5.597   3.240   0.575
  539SOL    HW213649   5.519   3.183   0.443
  540SOL     OW13650   7.148   1.941   6.031
  540SOL    HW113651   7.181   1.931   5.937
  540SOL    HW213652   7.192   1.872   6.088
  541SOL     OW13653   2.594   1.519   6.039
  541SOL    HW113654   2.649   1.436   6.039
  541SOL    HW213655   2.534   1.519   5.958
  542SOL     OW13656   4.584   7.411   0.074
  542SOL    HW113657   4.675   7.419   0.114
  542SOL    HW213658   4.552   7.502   0.047
  543SOL     OW13659   7.759   4.261   0.546
  543SOL    HW113660   7.779   4.342   0.601
  543SOL    HW213661   7.845   4.221   0.513
  544SOL     OW13662   0.081   3.261   5.663
  544SOL    HW113663   0.125   3.253   5.752
  544SOL    HW213664   0.151   3.270   5.592
  545SOL     OW13665   2.822   7.981   1.491
  545SOL    HW113666   2.862   8.063   1.532
  545SOL    HW213667   2.893   7.912   1.478
  546SOL     OW13668   0.931   5.445   1.354
  546SOL    HW113669   0.884   5.532   1.371
  546SOL    HW213670   1.023   5.449   1.391
  547SOL     OW13671   1.479   4.247   6.563
  547SOL    HW113672   1.512   4.154   6.575
  547SOL    HW213673   1.435   4.279   6.647
  548SOL     OW13674   1.035   2.105   0.763
  548SOL    HW113675   0.971   2.028   0.763
  548SOL    HW213676   1.118   2.079   0.714
  549SOL     OW13677   3.554   6.154   6.220
  549SOL    HW113678   3.635   6.175   6.274
  549SOL    HW213679   3.559   6.202   6.132
  550SOL     OW13680   1.021   7.774   5.922
  550SOL    HW113681   1.065   7.858   5.892
  550SOL    HW213682   1.020   7.770   6.022
  551SOL     OW13683   7.211   7.166   1.098
  551SOL    HW113684   7.208   7.161   1.198
  551SOL    HW213685   7.228   7.261   1.070
  552SOL     OW13686   3.368   2.789   6.371
  552SOL    HW113687   3.457   2.789   6.325
  552SOL    HW213688   3.378   2.752   6.464
  553SOL     OW13689   2.684   7.060   1.516
  553SOL    HW113690   2.728   7.136   1.563
  553SOL    HW213691   2.587   7.057   1.540
  554SOL     OW13692   8.082   7.713   6.364
  554SOL    HW113693   8.069   7.664   6.278
  554SOL    HW213694   8.013   7.785   6.373
  555SOL     OW13695   6.834   3.574   6.340
  555SOL    HW113696   6.801   3.667   6.324
  555SOL    HW213697   6.755   3.515   6.359
  556SOL     OW13698   8.198   6.830   5.947
  556SOL    HW113699   8.237   6.857   5.859
  556SOL    HW213700   8.246   6.878   6.021
  557SOL     OW13701   0.676   6.064   0.927
  557SOL    HW113702   0.725   6.065   0.840
  557SOL    HW213703   0.592   6.117   0.918
  558SOL     OW13704   5.343   1.278   0.913
  558SOL    HW113705   5.423   1.223   0.887
  558SOL    HW213706   5.263   1.219   0.918
  559SOL     OW13707   8.415   8.049   5.416
  559SOL    HW113708   8.402   8.144   5.445
  559SOL    HW213709   8.389   8.040   5.319
  560SOL     OW13710   5.337   0.267   0.618
  560SOL    HW113711   5.374   0.348   0.664
  560SOL    HW213712   5.305   0.201   0.687
  561SOL     OW13713   9.089   7.718   6.194
  561SOL    HW113714   9.120   7.803   6.151
  561SOL    HW213715   8.992   7.725   6.214
  562SOL     OW13716   5.333   1.056   1.609
  562SOL    HW113717   5.373   0.973   1.569
  562SOL    HW213718   5.399   1.098   1.671
  563SOL     OW13719   0.651   3.007   5.316
  563SOL    HW113720   0.567   2.959   5.290
  563SOL    HW213721   0.693   3.046   5.234
  564SOL     OW13722   1.684   2.021   5.029
  564SOL    HW113723   1.659   1.969   4.947
  564SOL    HW213724   1.706   2.115   5.003
  565SOL     OW13725   9.124   1.384   6.070
  565SOL    HW113726   9.049   1.420   6.015
  565SOL    HW213727   9.187   1.458   6.093
  566SOL     OW13728   6.067   0.964   5.593
  566SOL    HW113729   6.141   1.013   5.547
  566SOL    HW213730   6.001   0.933   5.526
  567SOL     OW13731   5.946   3.309   1.005
  567SOL    HW113732   5.905   3.365   0.933
  567SOL    HW213733   5.951   3.363   1.089
  568SOL     OW13734   3.399   4.562   6.104
  568SOL    HW113735   3.494   4.590   6.092
  568SOL    HW213736   3.355   4.557   6.014
  569SOL     OW13737   6.083   2.463   6.242
  569SOL    HW113738   6.157   2.517   6.282
  569SOL    HW213739   5.995   2.498   6.274
  570SOL     OW13740   0.139   7.352   0.260
  570SOL    HW113741   0.135   7.442   0.304
  570SOL    HW213742   0.205   7.355   0.184
  571SOL     OW13743   2.515   1.549   0.747
  571SOL    HW113744   2.556   1.548   0.656
  571SOL    HW213745   2.586   1.531   0.816
  572SOL     OW13746   3.292   6.589   0.766
  572SOL    HW113747   3.286   6.684   0.796
  572SOL    HW213748   3.327   6.532   0.840
  573SOL     OW13749   5.423   0.667   6.384
  573SOL    HW113750   5.381   0.752   6.352
  573SOL    HW213751   5.405   0.594   6.318
  574SOL     OW13752   7.691   2.060   0.332
  574SOL    HW113753   7.612   2.122   0.322
  574SOL    HW213754   7.664   1.980   0.387
  575SOL     OW13755   0.697   4.933   5.522
  575SOL    HW113756   0.788   4.893   5.526
  575SOL    HW213757   0.700   5.017   5.466
  576SOL     OW13758   9.350   7.610   5.405
  576SOL    HW113759   9.443   7.575   5.391
  576SOL    HW213760   9.338   7.632   5.502
  577SOL     OW13761   8.561   3.623   0.590
  577SOL    HW113762   8.480   3.573   0.560
  577SOL    HW213763   8.629   3.622   0.516
  578SOL     OW13764   8.576   6.881   5.755
  578SOL    HW113765   8.497   6.851   5.703
  578SOL    HW213766   8.659   6.871   5.699
  579SOL     OW13767   5.560   5.118   0.915
  579SOL    HW113768   5.656   5.135   0.936
  579SOL    HW213769   5.509   5.204   0.923
  580SOL     OW13770   0.113   5.875   0.741
  580SOL    HW113771   0.212   5.865   0.754
  580SOL    HW213772   0.089   5.972   0.742
  581SOL     OW13773   0.926   8.254   0.570
  581SOL    HW113774   0.994   8.181   0.561
  581SOL    HW213775   0.910   8.273   0.667
  582SOL     OW13776   6.701   7.163   5.352
  582SOL    HW113777   6.758   7.118   5.421
  582SOL    HW213778   6.604   7.143   5.371
  583SOL     OW13779   9.415   1.034   6.245
  583SOL    HW113780   9.420   1.095   6.324
  583SOL    HW213781   9.493   0.972   6.245
  584SOL     OW13782   4.411   7.821   0.570
  584SOL    HW113783   4.464   7.792   0.650
  584SOL    HW213784   4.467   7.811   0.488
  585SOL     OW13785   7.100   0.958   5.974
  585SOL    HW113786   7.110   1.053   6.001
  585SOL    HW213787   7.173   0.934   5.909
  586SOL     OW13788   8.697   5.583   5.442
  586SOL    HW113789   8.736   5.601   5.352
  586SOL    HW213790   8.767   5.599   5.512
  587SOL     OW13791   2.902   2.038   2.392
  587SOL    HW113792   2.936   1.966   2.453
  587SOL    HW213793   2.941   2.126   2.420
  588SOL     OW13794   5.591   5.184   5.178
  588SOL    HW113795   5.568   5.092   5.147
  588SOL    HW213796   5.551   5.200   5.268
  589SOL     OW13797   1.038   3.786   0.004
  589SOL    HW113798   1.074   3.795   0.097
  589SOL    HW213799   1.051   3.872  -0.046
  590SOL     OW13800   6.264   8.021   5.336
  590SOL    HW113801   6.357   8.036   5.369
  590SOL    HW213802   6.255   8.056   5.243
  591SOL     OW13803   3.943   8.140   6.271
  591SOL    HW113804   3.934   8.098   6.181
  591SOL    HW213805   3.909   8.077   6.341
  592SOL     OW13806   6.442   6.763   0.582
  592SOL    HW113807   6.405   6.674   0.608
  592SOL    HW213808   6.491   6.755   0.496
  593SOL     OW13809   5.877   6.143   1.310
  593SOL    HW113810   5.922   6.229   1.288
  593SOL    HW213811   5.884   6.126   1.409
  594SOL     OW13812   3.205   6.064   5.257
  594SOL    HW113813   3.226   5.966   5.247
  594SOL    HW213814   3.279   6.118   5.218
  595SOL     OW13815   8.154   2.060   5.851
  595SOL    HW113816   8.121   2.117   5.775
  595SOL    HW213817   8.109   1.971   5.848
  596SOL     OW13818   4.932   5.341   5.987
  596SOL    HW113819   4.972   5.352   5.897
  596SOL    HW213820   4.919   5.244   6.006
  597SOL     OW13821   0.700   8.440   5.768
  597SOL    HW113822   0.611   8.408   5.736
  597SOL    HW213823   0.702   8.441   5.868
  598SOL     OW13824   0.421   8.242   6.215
  598SOL    HW113825   0.501   8.223   6.158
  598SOL    HW213826   0.417   8.174   6.289
  599SOL     OW13827   4.439   7.956   0.891
  599SOL    HW113828   4.365   7.888   0.894
  599SOL    HW213829   4.490   7.945   0.806
  600SOL     OW13830   5.109   5.682   0.773
  600SOL    HW113831   5.181   5.708   0.838
  600SOL    HW213832   5.088   5.760   0.714
  601SOL     OW13833   0.159   1.175   5.584
  601SOL    HW113834   0.117   1.148   5.670
  601SOL    HW213835   0.235   1.114   5.562
  602SOL     OW13836   7.325   2.501   0.867
  602SOL    HW113837   7.398   2.537   0.925
  602SOL    HW213838   7.259   2.574   0.847
  603SOL     OW13839   0.574   0.645   1.064
  603SOL    HW113840   0.626   0.713   1.116
  603SOL    HW213841   0.479   0.645   1.095
  604SOL     OW13842   7.901   5.929   0.562
  604SOL    HW113843   7.846   6.012   0.566
  604SOL    HW213844   7.969   5.931   0.636
  605SOL     OW13845   3.636   6.812   0.320
  605SOL    HW113846   3.668   6.766   0.403
  605SOL    HW213847   3.631   6.910   0.336
  606SOL     OW13848   4.007   2.951   0.700
  606SOL    HW113849   4.026   3.010   0.621
  606SOL    HW213850   3.908   2.936   0.707
  607SOL     OW13851   8.368   6.326   5.612
  607SOL    HW113852   8.387   6.260   5.685
  607SOL    HW213853   8.454   6.360   5.574
  608SOL     OW13854   4.947   7.307   0.703
  608SOL    HW113855   4.998   7.388   0.733
  608SOL    HW213856   4.885   7.278   0.775
  609SOL     OW13857   8.508   2.199   6.114
  609SOL    HW113858   8.462   2.219   6.028
  609SOL    HW213859   8.527   2.101   6.120
  610SOL     OW13860   3.578   0.815   0.696
  610SOL    HW113861   3.505   0.764   0.743
  610SOL    HW213862   3.542   0.855   0.612
  611SOL     OW13863   4.433   3.969   0.675
  611SOL    HW113864   4.383   3.943   0.758
  611SOL    HW213865   4.432   3.892   0.611
  612SOL     OW13866   0.478   1.099   0.212
  612SOL    HW113867   0.555   1.035   0.212
  612SOL    HW213868   0.429   1.093   0.125
  613SOL     OW13869   7.086   5.111   5.522
  613SOL    HW113870   7.131   5.083   5.438
  613SOL    HW213871   7.032   5.035   5.558
  614SOL     OW13872   2.126   7.331   0.389
  614SOL    HW113873   2.178   7.290   0.314
  614SOL    HW213874   2.064   7.262   0.428
  615SOL     OW13875   5.186   7.003   1.725
  615SOL    HW113876   5.243   7.085   1.720
  615SOL    HW213877   5.138   7.001   1.813
  616SOL     OW13878   5.116   8.412   5.452
  616SOL    HW113879   5.103   8.468   5.370
  616SOL    HW213880   5.046   8.436   5.520
  617SOL     OW13881   3.626   6.532   6.348
  617SOL    HW113882   3.702   6.468   6.340
  617SOL    HW213883   3.627   6.575   6.439
  618SOL     OW13884   3.080   6.747   5.935
  618SOL    HW113885   3.150   6.783   5.997
  618SOL    HW213886   3.085   6.648   5.933
  619SOL     OW13887   7.924   0.345   6.249
  619SOL    HW113888   8.010   0.396   6.256
  619SOL    HW213889   7.891   0.349   6.155
  620SOL     OW13890   9.113   3.767   0.149
  620SOL    HW113891   9.117   3.706   0.070
  620SOL    HW213892   9.205   3.802   0.169
  621SOL     OW13893   7.360   6.274   5.406
  621SOL    HW113894   7.266   6.309   5.405
  621SOL    HW213895   7.394   6.267   5.313
  622SOL     OW13896   8.768   6.119   6.033
  622SOL    HW113897   8.804   6.207   6.063
  622SOL    HW213898   8.829   6.080   5.963
  623SOL     OW13899   2.306   7.725   1.435
  623SOL    HW113900   2.299   7.629   1.462
  623SOL    HW213901   2.300   7.783   1.516
  624SOL     OW13902   4.441   7.634   6.711
  624SOL    HW113903   4.345   7.636   6.736
  624SOL    HW213904   4.450   7.632   6.611
  625SOL     OW13905   8.513   5.424   0.688
  625SOL    HW113906   8.547   5.331   0.673
  625SOL    HW213907   8.588   5.489   0.673
  626SOL     OW13908   6.166   0.719   5.696
  626SOL    HW113909   6.159   0.819   5.690
  626SOL    HW213910   6.222   0.685   5.621
  627SOL     OW13911   8.924   6.321   4.940
  627SOL    HW113912   8.910   6.290   4.845
  627SOL    HW213913   8.888   6.252   5.003
  628SOL     OW13914   0.547   7.475   5.469
  628SOL    HW113915   0.541   7.390   5.522
  628SOL    HW213916   0.456   7.500   5.436
  629SOL     OW13917   6.048   5.941   6.339
  629SOL    HW113918   5.950   5.953   6.352
  629SOL    HW213919   6.091   6.029   6.319
  630SOL     OW13920   5.769   2.733   6.165
  630SOL    HW113921   5.759   2.681   6.251
  630SOL    HW213922   5.859   2.714   6.126
  631SOL     OW13923   9.254   5.806   6.160
  631SOL    HW113924   9.256   5.879   6.228
  631SOL    HW213925   9.162   5.769   6.152
  632SOL     OW13926   7.099   3.288   6.662
  632SOL    HW113927   7.164   3.216   6.635
  632SOL    HW213928   7.020   3.246   6.707
  633SOL     OW13929   3.318   2.209   6.461
  633SOL    HW113930   3.275   2.173   6.544
  633SOL    HW213931   3.414   2.230   6.479
  634SOL     OW13932   1.816   3.692   0.799
  634SOL    HW113933   1.800   3.610   0.854
  634SOL    HW213934   1.851   3.665   0.709
  635SOL     OW13935   1.943   4.827   4.833
  635SOL    HW113936   2.033   4.796   4.803
  635SOL    HW213937   1.881   4.831   4.755
  636SOL     OW13938   4.594   4.850   0.121
  636SOL    HW113939   4.596   4.857   0.221
  636SOL    HW213940   4.548   4.765   0.095
  637SOL     OW13941   2.638   3.976   6.538
  637SOL    HW113942   2.607   3.969   6.443
  637SOL    HW213943   2.582   4.043   6.586
  638SOL     OW13944   4.834   5.785   6.528
  638SOL    HW113945   4.820   5.693   6.566
  638SOL    HW213946   4.834   5.852   6.603
  639SOL     OW13947   7.890   3.699   0.801
  639SOL    HW113948   7.849   3.629   0.741
  639SOL    HW213949   7.880   3.671   0.896
  640SOL     OW13950   1.725   0.763   0.073
  640SOL    HW113951   1.655   0.832   0.092
  640SOL    HW213952   1.687   0.693   0.013
  641SOL     OW13953   2.493   3.587   6.695
  641SOL    HW113954   2.404   3.580   6.651
  641SOL    HW213955   2.493   3.535   6.780
  642SOL     OW13956   6.933   5.028   0.697
  642SOL    HW113957   6.848   5.077   0.719
  642SOL    HW213958   6.919   4.930   0.709
  643SOL     OW13959   4.464   1.967   6.576
  643SOL    HW113960   4.371   1.932   6.584
  643SOL    HW213961   4.462   2.063   6.548
  644SOL     OW13962   4.988   5.024   0.099
  644SOL    HW113963   5.066   5.074   0.061
  644SOL    HW213964   4.934   4.985   0.025
  645SOL     OW13965   6.346   6.835   6.338
  645SOL    HW113966   6.254   6.870   6.355
  645SOL    HW213967   6.348   6.737   6.357
  646SOL     OW13968   7.550   7.478   0.138
  646SOL    HW113969   7.590   7.395   0.178
  646SOL    HW213970   7.552   7.471   0.038
  647SOL     OW13971   7.648   2.464   0.235
  647SOL    HW113972   7.684   2.422   0.152
  647SOL    HW213973   7.624   2.559   0.216
  648SOL     OW13974   0.961   6.394   6.627
  648SOL    HW113975   0.941   6.337   6.706
  648SOL    HW213976   0.969   6.490   6.656
  649SOL     OW13977   4.246   4.974   0.182
  649SOL    HW113978   4.205   4.892   0.144
  649SOL    HW213979   4.346   4.962   0.189
  650SOL     OW13980   1.374   0.457   1.249
  650SOL    HW113981   1.427   0.540   1.266
  650SOL    HW213982   1.427   0.395   1.191
  651SOL     OW13983   5.833   5.041   5.843
  651SOL    HW113984   5.764   4.969   5.844
  651SOL    HW213985   5.923   5.001   5.829
  652SOL     OW13986   3.450   4.903   1.013
  652SOL    HW113987   3.443   4.965   1.091
  652SOL    HW213988   3.533   4.925   0.961
  653SOL     OW13989   3.336   3.433   0.994
  653SOL    HW113990   3.382   3.372   1.058
  653SOL    HW213991   3.239   3.438   1.017
  654SOL     OW13992   0.268   5.796   5.871
  654SOL    HW113993   0.243   5.832   5.781
  654SOL    HW213994   0.361   5.760   5.867
  655SOL     OW13995   6.118   5.742   6.164
  655SOL    HW113996   6.102   5.787   6.252
  655SOL    HW213997   6.087   5.647   6.168
  656SOL     OW13998   6.723   2.043   1.063
  656SOL    HW113999   6.782   2.118   1.093
  656SOL    HW214000   6.686   2.064   0.973
  657SOL     OW14001   5.760   6.440   0.968
  657SOL    HW114002   5.741   6.377   0.892
  657SOL    HW214003   5.673   6.470   1.008
  658SOL     OW14004   3.934   7.575   4.863
  658SOL    HW114005   4.028   7.551   4.888
  658SOL    HW214006   3.933   7.665   4.820
  659SOL     OW14007   9.140   3.591   6.658
  659SOL    HW114008   9.179   3.518   6.714
  659SOL    HW214009   9.192   3.600   6.574
  660SOL     OW14010   5.934   0.597   5.650
  660SOL    HW114011   5.895   0.669   5.593
  660SOL    HW214012   6.025   0.624   5.681
  661SOL     OW14013   0.360   0.099   4.672
  661SOL    HW114014   0.268   0.073   4.643
  661SOL    HW214015   0.384   0.187   4.632
  662SOL     OW14016   6.259   1.049   0.903
  662SOL    HW114017   6.219   1.087   0.987
  662SOL    HW214018   6.354   1.078   0.896
  663SOL     OW14019   2.867   1.536   1.264
  663SOL    HW114020   2.802   1.543   1.340
  663SOL    HW214021   2.901   1.442   1.258
  664SOL     OW14022   6.529   5.711   5.371
  664SOL    HW114023   6.437   5.723   5.334
  664SOL    HW214024   6.573   5.800   5.379
  665SOL     OW14025   4.823   5.183   1.009
  665SOL    HW114026   4.806   5.226   0.921
  665SOL    HW214027   4.896   5.115   1.000
  666SOL     OW14028   2.451   1.914   6.534
  666SOL    HW114029   2.459   2.009   6.502
  666SOL    HW214030   2.405   1.912   6.622
  667SOL     OW14031   3.542   2.589   1.406
  667SOL    HW114032   3.487   2.516   1.365
  667SOL    HW214033   3.598   2.552   1.480
  668SOL     OW14034   5.237   6.404   0.169
  668SOL    HW114035   5.147   6.376   0.204
  668SOL    HW214036   5.243   6.504   0.168
  669SOL     OW14037   3.547   1.202   1.112
  669SOL    HW114038   3.587   1.191   1.203
  669SOL    HW214039   3.618   1.223   1.046
  670SOL     OW14040   1.605   6.588   4.560
  670SOL    HW114041   1.677   6.520   4.547
  670SOL    HW214042   1.577   6.626   4.472
  671SOL     OW14043   1.818   5.051   5.298
  671SOL    HW114044   1.812   5.003   5.211
  671SOL    HW214045   1.879   5.129   5.290
  672SOL     OW14046   6.556   7.682   1.689
  672SOL    HW114047   6.630   7.615   1.682
  672SOL    HW214048   6.581   7.753   1.756
  673SOL     OW14049   5.567   0.280   5.852
  673SOL    HW114050   5.480   0.282   5.802
  673SOL    HW214051   5.643   0.280   5.787
  674SOL     OW14052   1.864   6.232   0.869
  674SOL    HW114053   1.777   6.200   0.831
  674SOL    HW214054   1.924   6.261   0.794
  675SOL     OW14055   3.880   6.821   0.177
  675SOL    HW114056   3.797   6.806   0.232
  675SOL    HW214057   3.904   6.736   0.130
  676SOL     OW14058   3.745   5.396   0.437
  676SOL    HW114059   3.811   5.467   0.459
  676SOL    HW214060   3.775   5.347   0.354
  677SOL     OW14061   5.092   2.482   1.215
  677SOL    HW114062   5.043   2.455   1.132
  677SOL    HW214063   5.043   2.556   1.260
  678SOL     OW14064   7.963   4.189   0.895
  678SOL    HW114065   8.018   4.107   0.876
  678SOL    HW214066   8.024   4.263   0.922
  679SOL     OW14067   7.043   7.721   6.051
  679SOL    HW114068   7.111   7.678   5.991
  679SOL    HW214069   7.021   7.812   6.015
  680SOL     OW14070   6.456   4.271   0.470
  680SOL    HW114071   6.546   4.229   0.480
  680SOL    HW214072   6.394   4.206   0.425
  681SOL     OW14073   5.614   6.326   0.382
  681SOL    HW114074   5.707   6.296   0.404
  681SOL    HW214075   5.582   6.279   0.300
  682SOL     OW14076   3.422   7.336   1.665
  682SOL    HW114077   3.490   7.318   1.736
  682SOL    HW214078   3.355   7.402   1.700
  683SOL     OW14079   1.872   1.770   6.168
  683SOL    HW114080   1.782   1.756   6.126
  683SOL    HW214081   1.865   1.757   6.267
  684SOL     OW14082   1.469   8.279   6.013
  684SOL    HW114083   1.547   8.241   5.965
  684SOL    HW214084   1.428   8.351   5.956
  685SOL     OW14085   1.716   1.707   5.603
  685SOL    HW114086   1.623   1.735   5.627
  685SOL    HW214087   1.781   1.745   5.668
  686SOL     OW14088   4.730   5.401   1.352
  686SOL    HW114089   4.804   5.350   1.311
  686SOL    HW214090   4.744   5.408   1.451
  687SOL     OW14091   3.605   8.349   5.642
  687SOL    HW114092   3.622   8.252   5.626
  687SOL    HW214093   3.532   8.360   5.709
  688SOL     OW14094   0.629   5.381   5.767
  688SOL    HW114095   0.539   5.339   5.754
  688SOL    HW214096   0.622   5.454   5.835
  689SOL     OW14097   8.236   7.282   0.848
  689SOL    HW114098   8.265   7.279   0.752
  689SOL    HW214099   8.291   7.350   0.897
  690SOL     OW14100   3.555   7.065   0.797
  690SOL    HW114101   3.621   7.050   0.724
  690SOL    HW214102   3.601   7.102   0.878
  691SOL     OW14103   9.204   1.374   6.401
  691SOL    HW114104   9.108   1.368   6.373
  691SOL    HW214105   9.216   1.327   6.488
  692SOL     OW14106   0.808   6.889   4.822
  692SOL    HW114107   0.722   6.895   4.772
  692SOL    HW214108   0.856   6.806   4.796
  693SOL     OW14109   6.577   8.181   6.044
  693SOL    HW114110   6.504   8.139   5.991
  693SOL    HW214111   6.599   8.271   6.006
  694SOL     OW14112   5.840   5.770   0.891
  694SOL    HW114113   5.784   5.813   0.821
  694SOL    HW214114   5.937   5.786   0.871
  695SOL     OW14115   8.258   3.415   0.876
  695SOL    HW114116   8.191   3.394   0.947
  695SOL    HW214117   8.224   3.492   0.821
  696SOL     OW14118   3.995   0.272   0.104
  696SOL    HW114119   3.984   0.176   0.075
  696SOL    HW214120   4.091   0.290   0.123
  697SOL     OW14121   6.890   7.430   1.044
  697SOL    HW114122   6.950   7.458   1.119
  697SOL    HW214123   6.872   7.332   1.051
  698SOL     OW14124   8.485   6.120   5.800
  698SOL    HW114125   8.440   6.052   5.858
  698SOL    HW214126   8.572   6.083   5.767
  699SOL     OW14127   5.767   6.747   6.064
  699SOL    HW114128   5.720   6.685   6.001
  699SOL    HW214129   5.841   6.794   6.016
  700SOL     OW14130   4.099   2.990   1.424
  700SOL    HW114131   4.072   2.965   1.516
  700SOL    HW214132   4.021   3.029   1.375
  701SOL     OW14133   1.737   0.138   6.024
  701SOL    HW114134   1.785   0.104   6.105
  701SOL    HW214135   1.739   0.238   6.023
  702SOL     OW14136   7.988   1.602   6.421
  702SOL    HW114137   7.941   1.519   6.450
  702SOL    HW214138   8.028   1.588   6.330
  703SOL     OW14139   0.142   6.003   0.434
  703SOL    HW114140   0.173   5.987   0.341
  703SOL    HW214141   0.152   5.920   0.488
  704SOL     OW14142   7.340   2.742   6.253
  704SOL    HW114143   7.285   2.779   6.327
  704SOL    HW214144   7.313   2.647   6.234
  705SOL     OW14145   4.905   7.604   0.949
  705SOL    HW114146   4.851   7.668   0.894
  705SOL    HW214147   4.859   7.516   0.951
  706SOL     OW14148   8.650   1.682   6.193
  706SOL    HW114149   8.635   1.584   6.178
  706SOL    HW214150   8.716   1.716   6.125
  707SOL     OW14151   8.022   5.051   0.170
  707SOL    HW114152   8.072   5.109   0.106
  707SOL    HW214153   8.035   5.085   0.263
  708SOL     OW14154   4.582   6.423   0.943
  708SOL    HW114155   4.508   6.368   0.904
  708SOL    HW214156   4.621   6.481   0.871
  709SOL     OW14157   6.865   6.767   0.322
  709SOL    HW114158   6.804   6.769   0.243
  709SOL    HW214159   6.958   6.744   0.291
  710SOL     OW14160   3.630   6.659   5.741
  710SOL    HW114161   3.680   6.648   5.826
  710SOL    HW214162   3.570   6.580   5.727
  711SOL     OW14163   4.385   3.154   1.640
  711SOL    HW114164   4.446   3.222   1.601
  711SOL    HW214165   4.401   3.065   1.597
  712SOL     OW14166   0.036   3.772   0.918
  712SOL    HW114167   0.119   3.741   0.965
  712SOL    HW214168   0.051   3.864   0.882
  713SOL     OW14169   8.041   3.839   0.551
  713SOL    HW114170   8.062   3.926   0.595
  713SOL    HW214171   7.947   3.841   0.517
  714SOL     OW14172   4.240   3.565   6.485
  714SOL    HW114173   4.157   3.511   6.468
  714SOL    HW214174   4.314   3.530   6.429
  715SOL     OW14175   2.979   2.453   0.069
  715SOL    HW114176   2.972   2.356   0.091
  715SOL    HW214177   2.887   2.491   0.058
  716SOL     OW14178   1.800   3.214   5.275
  716SOL    HW114179   1.822   3.164   5.191
  716SOL    HW214180   1.700   3.219   5.285
  717SOL     OW14181   3.985   2.617   0.149
  717SOL    HW114182   3.891   2.583   0.152
  717SOL    HW214183   3.995   2.679   0.071
  718SOL     OW14184   0.065   4.975   5.933
  718SOL    HW114185   0.081   5.064   5.890
  718SOL    HW214186   0.083   4.982   6.032
  719SOL     OW14187   1.664   7.405   5.600
  719SOL    HW114188   1.586   7.439   5.651
  719SOL    HW214189   1.681   7.464   5.521
  720SOL     OW14190   4.587   5.169   6.168
  720SOL    HW114191   4.558   5.252   6.120
  720SOL    HW214192   4.507   5.115   6.192
  721SOL     OW14193   0.761   1.662   6.334
  721SOL    HW114194   0.733   1.710   6.251
  721SOL    HW214195   0.683   1.611   6.371
  722SOL     OW14196   4.538   3.354   1.529
  722SOL    HW114197   4.473   3.426   1.506
  722SOL    HW214198   4.629   3.381   1.499
  723SOL     OW14199   8.316   5.152   5.868
  723SOL    HW114200   8.408   5.165   5.905
  723SOL    HW214201   8.313   5.186   5.774
  724SOL     OW14202   0.085   0.525   0.374
  724SOL    HW114203   0.105   0.428   0.387
  724SOL    HW214204   0.077   0.545   0.277
  725SOL     OW14205   0.173   1.393   6.429
  725SOL    HW114206   0.164   1.487   6.462
  725SOL    HW214207   0.142   1.388   6.334
  726SOL     OW14208   0.636   1.555   5.048
  726SOL    HW114209   0.553   1.606   5.071
  726SOL    HW214210   0.667   1.582   4.957
  727SOL     OW14211   8.753   7.881   0.682
  727SOL    HW114212   8.657   7.910   0.673
  727SOL    HW214213   8.757   7.797   0.736
  728SOL     OW14214   9.023   8.264   5.294
  728SOL    HW114215   8.927   8.267   5.321
  728SOL    HW214216   9.049   8.351   5.251
  729SOL     OW14217   5.558   5.393   6.700
  729SOL    HW114218   5.516   5.472   6.745
  729SOL    HW214219   5.540   5.311   6.755
  730SOL     OW14220   8.611   2.678   5.885
  730SOL    HW114221   8.612   2.752   5.819
  730SOL    HW214222   8.595   2.715   5.977
  731SOL     OW14223   1.463   0.807   0.384
  731SOL    HW114224   1.421   0.858   0.309
  731SOL    HW214225   1.550   0.767   0.353
  732SOL     OW14226   7.003   0.716   0.188
  732SOL    HW114227   6.909   0.732   0.158
  732SOL    HW214228   7.064   0.782   0.143
  733SOL     OW14229   2.563   6.776   1.057
  733SOL    HW114230   2.491   6.804   1.120
  733SOL    HW214231   2.617   6.703   1.098
  734SOL     OW14232   2.219   3.636   6.579
  734SOL    HW114233   2.221   3.579   6.497
  734SOL    HW214234   2.198   3.731   6.554
  735SOL     OW14235   6.172   4.218   5.298
  735SOL    HW114236   6.193   4.261   5.386
  735SOL    HW214237   6.194   4.121   5.302
  736SOL     OW14238   3.822   5.634   6.162
  736SOL    HW114239   3.767   5.558   6.196
  736SOL    HW214240   3.763   5.702   6.118
  737SOL     OW14241   7.674   6.815   5.981
  737SOL    HW114242   7.600   6.835   5.917
  737SOL    HW214243   7.727   6.899   5.998
  738SOL     OW14244   1.735   4.655   5.540
  738SOL    HW114245   1.833   4.661   5.524
  738SOL    HW214246   1.685   4.693   5.462
  739SOL     OW14247   4.590   1.587   4.968
  739SOL    HW114248   4.585   1.503   5.021
  739SOL    HW214249   4.501   1.632   4.966
  740SOL     OW14250   3.553   0.563   0.418
  740SOL    HW114251   3.471   0.533   0.468
  740SOL    HW214252   3.622   0.491   0.420
  741SOL     OW14253   4.084   3.401   5.189
  741SOL    HW114254   4.059   3.305   5.200
  741SOL    HW214255   4.025   3.444   5.121
  742SOL     OW14256   5.200   2.215   1.256
  742SOL    HW114257   5.174   2.172   1.170
  742SOL    HW214258   5.167   2.310   1.258
  743SOL     OW14259   4.100   2.686   0.523
  743SOL    HW114260   4.106   2.703   0.621
  743SOL    HW214261   4.045   2.758   0.480
  744SOL     OW14262   5.337   8.183   1.848
  744SOL    HW114263   5.436   8.193   1.854
  744SOL    HW214264   5.298   8.177   1.939
  745SOL     OW14265   5.661   2.250   1.152
  745SOL    HW114266   5.573   2.277   1.190
  745SOL    HW214267   5.651   2.230   1.054
  746SOL     OW14268   2.602   0.582   6.433
  746SOL    HW114269   2.580   0.552   6.526
  746SOL    HW214270   2.517   0.601   6.383
  747SOL     OW14271   8.197   4.371   5.998
  747SOL    HW114272   8.227   4.457   5.957
  747SOL    HW214273   8.257   4.348   6.075
  748SOL     OW14274   1.841   0.149   5.389
  748SOL    HW114275   1.806   0.063   5.352
  748SOL    HW214276   1.853   0.215   5.315
  749SOL     OW14277   5.593   5.563   0.949
  749SOL    HW114278   5.539   5.643   0.973
  749SOL    HW214279   5.532   5.487   0.923
  750SOL     OW14280   6.333   1.071   1.235
  750SOL    HW114281   6.389   0.998   1.196
  750SOL    HW214282   6.239   1.041   1.244
  751SOL     OW14283   1.436   6.167   5.412
  751SOL    HW114284   1.402   6.105   5.341
  751SOL    HW214285   1.442   6.117   5.499
  752SOL     OW14286   6.782   3.766   0.959
  752SOL    HW114287   6.718   3.690   0.958
  752SOL    HW214288   6.858   3.747   0.897
  753SOL     OW14289   3.811   5.356   6.411
  753SOL    HW114290   3.740   5.379   6.343
  753SOL    HW214291   3.899   5.350   6.365
  754SOL     OW14292   5.804   1.476   1.373
  754SOL    HW114293   5.737   1.517   1.436
  754SOL    HW214294   5.834   1.388   1.409
  755SOL     OW14295   2.320   1.017   0.287
  755SOL    HW114296   2.319   1.069   0.373
  755SOL    HW214297   2.414   1.007   0.256
  756SOL     OW14298   5.768   0.149   5.478
  756SOL    HW114299   5.758   0.086   5.555
  756SOL    HW214300   5.681   0.198   5.463
  757SOL     OW14301   0.902   0.208   5.025
  757SOL    HW114302   0.978   0.270   5.003
  757SOL    HW214303   0.830   0.259   5.071
  758SOL     OW14304   6.352   3.260   1.505
  758SOL    HW114305   6.284   3.332   1.521
  758SOL    HW214306   6.422   3.294   1.442
  759SOL     OW14307   7.080   0.242   1.010
  759SOL    HW114308   7.157   0.245   1.074
  759SOL    HW214309   7.114   0.249   0.917
  760SOL     OW14310   2.935   4.487   6.167
  760SOL    HW114311   2.960   4.553   6.096
  760SOL    HW214312   3.018   4.453   6.211
  761SOL     OW14313   8.889   2.583   6.231
  761SOL    HW114314   8.984   2.555   6.242
  761SOL    HW214315   8.839   2.515   6.178
  762SOL     OW14316   7.181   4.406   6.713
  762SOL    HW114317   7.214   4.454   6.794
  762SOL    HW214318   7.088   4.373   6.729
  763SOL     OW14319   4.559   6.104   0.910
  763SOL    HW114320   4.484   6.123   0.847
  763SOL    HW214321   4.526   6.114   1.005
  764SOL     OW14322   4.692   6.990   0.053
  764SOL    HW114323   4.604   6.983   0.005
  764SOL    HW214324   4.676   6.997   0.151
  765SOL     OW14325   4.953   7.516   6.564
  765SOL    HW114326   4.986   7.458   6.489
  765SOL    HW214327   4.890   7.584   6.527
  766SOL     OW14328   5.122   2.325   6.259
  766SOL    HW114329   5.152   2.401   6.316
  766SOL    HW214330   5.064   2.359   6.185
  767SOL     OW14331   2.615   4.141   5.901
  767SOL    HW114332   2.555   4.061   5.917
  767SOL    HW214333   2.680   4.120   5.828
  768SOL     OW14334   4.344   7.133   1.851
  768SOL    HW114335   4.422   7.174   1.899
  768SOL    HW214336   4.281   7.094   1.918
  769SOL     OW14337   2.800   7.600   6.321
  769SOL    HW114338   2.798   7.623   6.418
  769SOL    HW214339   2.727   7.648   6.273
  770SOL     OW14340   5.451   4.443   0.426
  770SOL    HW114341   5.539   4.410   0.390
  770SOL    HW214342   5.387   4.366   0.429
  771SOL     OW14343   2.414   7.034   1.542
  771SOL    HW114344   2.342   7.101   1.527
  771SOL    HW214345   2.374   6.949   1.576
  772SOL     OW14346   3.081   6.838   1.320
  772SOL    HW114347   3.052   6.776   1.393
  772SOL    HW214348   3.163   6.887   1.349
  773SOL     OW14349   3.112   3.882   6.240
  773SOL    HW114350   3.042   3.917   6.177
  773SOL    HW214351   3.125   3.784   6.225
  774SOL     OW14352   5.073   8.213   0.048
  774SOL    HW114353   5.125   8.185  -0.033
  774SOL    HW214354   5.095   8.308   0.070
  775SOL     OW14355   8.265   2.974   0.779
  775SOL    HW114356   8.230   2.898   0.834
  775SOL    HW214357   8.306   3.042   0.840
  776SOL     OW14358   5.008   5.415   6.405
  776SOL    HW114359   5.098   5.455   6.416
  776SOL    HW214360   4.942   5.461   6.465
  777SOL     OW14361   3.918   8.152   2.020
  777SOL    HW114362   3.852   8.155   2.095
  777SOL    HW214363   3.915   8.062   1.977
  778SOL     OW14364   3.867   0.966   6.056
  778SOL    HW114365   3.827   0.950   6.146
  778SOL    HW214366   3.964   0.988   6.066
  779SOL     OW14367   8.126   6.375   5.734
  779SOL    HW114368   8.213   6.348   5.691
  779SOL    HW214369   8.124   6.343   5.828
  780SOL     OW14370   8.935   7.361   0.280
  780SOL    HW114371   9.027   7.352   0.318
  780SOL    HW214372   8.889   7.272   0.283
  781SOL     OW14373   2.199   6.817   0.823
  781SOL    HW114374   2.208   6.864   0.910
  781SOL    HW214375   2.277   6.756   0.809
  782SOL     OW14376   6.244   7.382   6.716
  782SOL    HW114377   6.204   7.347   6.631
  782SOL    HW214378   6.238   7.312   6.787
  783SOL     OW14379   1.607   2.464   0.760
  783SOL    HW114380   1.639   2.559   0.750
  783SOL    HW214381   1.685   2.404   0.777
  784SOL     OW14382   2.730   5.914   0.960
  784SOL    HW114383   2.732   5.826   1.008
  784SOL    HW214384   2.670   5.977   1.009
  785SOL     OW14385   3.129   5.157   0.125
  785SOL    HW114386   3.056   5.203   0.175
  785SOL    HW214387   3.102   5.064   0.102
  786SOL     OW14388   3.406   1.857   0.888
  786SOL    HW114389   3.336   1.850   0.816
  786SOL    HW214390   3.446   1.948   0.887
  787SOL     OW14391   9.422   6.690   6.444
  787SOL    HW114392   9.364   6.769   6.424
  787SOL    HW214393   9.489   6.677   6.370
  788SOL     OW14394   1.602   4.366   0.088
  788SOL    HW114395   1.678   4.324   0.038
  788SOL    HW214396   1.618   4.464   0.098
  789SOL     OW14397   2.652   8.462   6.119
  789SOL    HW114398   2.598   8.400   6.175
  789SOL    HW214399   2.591   8.523   6.068
  790SOL     OW14400   3.785   5.037   6.321
  790SOL    HW114401   3.686   5.030   6.309
  790SOL    HW214402   3.808   5.129   6.354
  791SOL     OW14403   2.680   3.276   6.300
  791SOL    HW114404   2.758   3.329   6.266
  791SOL    HW214405   2.665   3.296   6.397
  792SOL     OW14406   3.443   7.885   5.581
  792SOL    HW114407   3.453   7.826   5.501
  792SOL    HW214408   3.530   7.928   5.602
  793SOL     OW14409   9.074   0.021   5.233
  793SOL    HW114410   8.976   0.042   5.227
  793SOL    HW214411   9.125   0.107   5.240
  794SOL     OW14412   7.033   7.638   5.099
  794SOL    HW114413   7.106   7.608   5.036
  794SOL    HW214414   6.953   7.664   5.046
  795SOL     OW14415   6.266   5.791   0.296
  795SOL    HW114416   6.365   5.796   0.310
  795SOL    HW214417   6.243   5.829   0.206
  796SOL     OW14418   8.462   4.137   5.012
  796SOL    HW114419   8.440   4.234   5.013
  796SOL    HW214420   8.516   4.115   4.931
  797SOL     OW14421   7.177   5.822   0.389
  797SOL    HW114422   7.241   5.761   0.436
  797SOL    HW214423   7.085   5.808   0.427
  798SOL     OW14424   4.355   6.565   1.964
  798SOL    HW114425   4.310   6.648   1.932
  798SOL    HW214426   4.454   6.576   1.956
  799SOL     OW14427   4.071   3.482   5.906
  799SOL    HW114428   4.163   3.468   5.870
  799SOL    HW214429   4.014   3.403   5.884
  800SOL     OW14430   3.658   2.190   5.546
  800SOL    HW114431   3.702   2.104   5.522
  800SOL    HW214432   3.579   2.205   5.487
  801SOL     OW14433   0.388   5.251   0.137
  801SOL    HW114434   0.358   5.208   0.222
  801SOL    HW214435   0.449   5.328   0.158
  802SOL     OW14436   2.036   3.479   5.674
  802SOL    HW114437   2.087   3.563   5.659
  802SOL    HW214438   1.969   3.467   5.601
  803SOL     OW14439   0.429   4.843   5.667
  803SOL    HW114440   0.342   4.815   5.709
  803SOL    HW214441   0.426   4.825   5.569
  804SOL     OW14442   4.322   8.189   6.076
  804SOL    HW114443   4.315   8.092   6.051
  804SOL    HW214444   4.417   8.211   6.096
  805SOL     OW14445   1.450   8.335   6.321
  805SOL    HW114446   1.524   8.282   6.278
  805SOL    HW214447   1.362   8.305   6.284
  806SOL     OW14448   6.463   0.326   0.246
  806SOL    HW114449   6.513   0.394   0.300
  806SOL    HW214450   6.527   0.271   0.193
  807SOL     OW14451   5.568   1.108   6.102
  807SOL    HW114452   5.594   1.120   6.006
  807SOL    HW214453   5.626   1.038   6.144
  808SOL     OW14454   7.845   4.805   6.131
  808SOL    HW114455   7.797   4.791   6.044
  808SOL    HW214456   7.943   4.792   6.117
  809SOL     OW14457   4.047   8.248   0.513
  809SOL    HW114458   4.131   8.202   0.542
  809SOL    HW214459   4.021   8.216   0.422
  810SOL     OW14460   3.725   4.301   1.424
  810SOL    HW114461   3.782   4.248   1.487
  810SOL    HW214462   3.656   4.352   1.476
  811SOL     OW14463   0.244   6.787   0.949
  811SOL    HW114464   0.221   6.710   1.009
  811SOL    HW214465   0.285   6.753   0.864
  812SOL     OW14466   6.231   1.731   0.501
  812SOL    HW114467   6.153   1.674   0.476
  812SOL    HW214468   6.278   1.691   0.579
  813SOL     OW14469   7.772   8.489   5.158
  813SOL    HW114470   7.801   8.494   5.063
  813SOL    HW214471   7.684   8.536   5.168
  814SOL     OW14472   3.706   4.270   1.156
  814SOL    HW114473   3.724   4.283   1.254
  814SOL    HW214474   3.652   4.186   1.143
  815SOL     OW14475   4.249   6.845   5.252
  815SOL    HW114476   4.161   6.802   5.271
  815SOL    HW214477   4.239   6.909   5.176
  816SOL     OW14478   8.974   4.578   5.788
  816SOL    HW114479   8.956   4.494   5.840
  816SOL    HW214480   9.022   4.555   5.704
  817SOL     OW14481   4.178   1.492   0.420
  817SOL    HW114482   4.202   1.576   0.469
  817SOL    HW214483   4.099   1.509   0.362
  818SOL     OW14484   3.694   2.138   1.528
  818SOL    HW114485   3.646   2.223   1.506
  818SOL    HW214486   3.788   2.158   1.553
  819SOL     OW14487   6.281   3.949   6.673
  819SOL    HW114488   6.195   3.990   6.705
  819SOL    HW214489   6.320   4.006   6.601
  820SOL     OW14490   5.429   0.861   1.362
  820SOL    HW114491   5.419   0.916   1.279
  820SOL    HW214492   5.505   0.797   1.351
  821SOL     OW14493   8.373   5.380   6.126
  821SOL    HW114494   8.424   5.444   6.184
  821SOL    HW214495   8.436   5.336   6.062
  822SOL     OW14496   4.645   7.003   6.363
  822SOL    HW114497   4.695   7.076   6.410
  822SOL    HW214498   4.611   7.038   6.275
  823SOL     OW14499   4.418   5.151   5.746
  823SOL    HW114500   4.452   5.089   5.675
  823SOL    HW214501   4.494   5.186   5.800
  824SOL     OW14502   7.781   3.793   5.649
  824SOL    HW114503   7.818   3.702   5.669
  824SOL    HW214504   7.709   3.786   5.580
  825SOL     OW14505   1.471   2.365   5.461
  825SOL    HW114506   1.519   2.415   5.389
  825SOL    HW214507   1.378   2.345   5.431
  826SOL     OW14508   7.567   6.078   6.441
  826SOL    HW114509   7.478   6.087   6.395
  826SOL    HW214510   7.606   6.169   6.454
  827SOL     OW14511   7.072   6.550   5.785
  827SOL    HW114512   7.071   6.644   5.750
  827SOL    HW214513   7.127   6.546   5.868
  828SOL     OW14514   2.065   1.158   0.651
  828SOL    HW114515   2.085   1.176   0.747
  828SOL    HW214516   1.966   1.158   0.637
  829SOL     OW14517   8.357   2.359   6.626
  829SOL    HW114518   8.262   2.336   6.647
  829SOL    HW214519   8.397   2.288   6.567
  830SOL     OW14520   1.571   4.900   0.760
  830SOL    HW114521   1.651   4.867   0.710
  830SOL    HW214522   1.511   4.950   0.698
  831SOL     OW14523   3.473   6.005   1.445
  831SOL    HW114524   3.533   6.029   1.521
  831SOL    HW214525   3.528   5.978   1.366
  832SOL     OW14526   3.407   5.257   0.970
  832SOL    HW114527   3.410   5.233   0.872
  832SOL    HW214528   3.367   5.349   0.980
  833SOL     OW14529   4.523   7.700   4.835
  833SOL    HW114530   4.442   7.683   4.780
  833SOL    HW214531   4.605   7.687   4.779
  834SOL     OW14532   6.268   1.159   5.506
  834SOL    HW114533   6.273   1.234   5.440
  834SOL    HW214534   6.331   1.086   5.479
  835SOL     OW14535   7.201   8.360   0.354
  835SOL    HW114536   7.143   8.280   0.342
  835SOL    HW214537   7.145   8.437   0.386
  836SOL     OW14538   7.546   4.060   0.555
  836SOL    HW114539   7.609   4.127   0.517
  836SOL    HW214540   7.452   4.092   0.543
  837SOL     OW14541   3.606   6.257   5.959
  837SOL    HW114542   3.537   6.197   5.919
  837SOL    HW214543   3.669   6.287   5.887
  838SOL     OW14544   5.754   0.442   6.708
  838SOL    HW114545   5.698   0.493   6.643
  838SOL    HW214546   5.702   0.362   6.740
  839SOL     OW14547   0.011   5.448   6.347
  839SOL    HW114548   0.019   5.391   6.266
  839SOL    HW214549   0.021   5.392   6.429
  840SOL     OW14550   8.629   6.838   0.035
  840SOL    HW114551   8.726   6.820   0.050
  840SOL    HW214552   8.580   6.751   0.026
  841SOL     OW14553   6.718   7.949   6.127
  841SOL    HW114554   6.670   8.036   6.118
  841SOL    HW214555   6.655   7.875   6.103
  842SOL     OW14556   6.777   7.480   1.669
  842SOL    HW114557   6.868   7.519   1.657
  842SOL    HW214558   6.785   7.383   1.691
  843SOL     OW14559   8.004   3.377   0.529
  843SOL    HW114560   7.936   3.445   0.556
  843SOL    HW214561   8.032   3.393   0.435
  844SOL     OW14562   1.107   3.057   6.581
  844SOL    HW114563   1.076   3.097   6.667
  844SOL    HW214564   1.028   3.026   6.528
  845SOL     OW14565   1.079   8.165   0.297
  845SOL    HW114566   1.131   8.233   0.348
  845SOL    HW214567   1.141   8.114   0.237
  846SOL     OW14568   7.110   5.008   1.170
  846SOL    HW114569   7.193   5.036   1.219
  846SOL    HW214570   7.129   4.925   1.118
  847SOL     OW14571   2.091   8.435   6.001
  847SOL    HW114572   2.113   8.338   6.004
  847SOL    HW214573   2.157   8.486   6.055
  848SOL     OW14574   0.762   2.498   6.052
  848SOL    HW114575   0.806   2.519   6.140
  848SOL    HW214576   0.666   2.475   6.068
  849SOL     OW14577   7.925   2.463   5.324
  849SOL    HW114578   8.012   2.462   5.373
  849SOL    HW214579   7.942   2.459   5.226
  850SOL     OW14580   6.975   0.776   6.170
  850SOL    HW114581   6.887   0.818   6.189
  850SOL    HW214582   7.033   0.839   6.119
  851SOL     OW14583   4.394   2.718   6.642
  851SOL    HW114584   4.375   2.659   6.563
  851SOL    HW214585   4.489   2.704   6.672
  852SOL     OW14586   2.275   8.452   5.014
  852SOL    HW114587   2.308   8.532   4.964
  852SOL    HW214588   2.321   8.370   4.979
  853SOL     OW14589   4.816   1.648   0.130
  853SOL    HW114590   4.907   1.690   0.135
  853SOL    HW214591   4.749   1.718   0.107
  854SOL     OW14592   0.045   5.627   1.113
  854SOL    HW114593  -0.041   5.669   1.083
  854SOL    HW214594   0.115   5.697   1.121
  855SOL     OW14595   4.179   0.190   5.918
  855SOL    HW114596   4.222   0.251   5.851
  855SOL    HW214597   4.104   0.141   5.875
  856SOL     OW14598   2.922   1.920   1.451
  856SOL    HW114599   3.021   1.906   1.443
  856SOL    HW214600   2.886   1.954   1.364
  857SOL     OW14601   6.608   3.190   6.177
  857SOL    HW114602   6.639   3.180   6.082
  857SOL    HW214603   6.621   3.103   6.225
  858SOL     OW14604   8.747   3.898   0.413
  858SOL    HW114605   8.757   3.799   0.408
  858SOL    HW214606   8.669   3.926   0.357
  859SOL     OW14607   1.817   0.060   6.640
  859SOL    HW114608   1.783   0.033   6.731
  859SOL    HW214609   1.917   0.065   6.641
  860SOL     OW14610   4.455   0.856   1.695
  860SOL    HW114611   4.415   0.777   1.648
  860SOL    HW214612   4.499   0.826   1.780
  861SOL     OW14613   3.501   5.450   6.480
  861SOL    HW114614   3.476   5.492   6.393
  861SOL    HW214615   3.581   5.497   6.518
  862SOL     OW14616   7.286   3.508   6.215
  862SOL    HW114617   7.371   3.547   6.179
  862SOL    HW214618   7.208   3.548   6.167
  863SOL     OW14619   0.050   2.093   0.449
  863SOL    HW114620   0.020   2.104   0.544
  863SOL    HW214621   0.117   2.164   0.426
  864SOL     OW14622   3.184   1.962   1.457
  864SOL    HW114623   3.182   1.947   1.556
  864SOL    HW214624   3.191   2.059   1.438
  865SOL     OW14625   7.681   6.589   0.832
  865SOL    HW114626   7.672   6.500   0.876
  865SOL    HW214627   7.599   6.644   0.849
  866SOL     OW14628   3.347   1.701   1.086
  866SOL    HW114629   3.357   1.732   1.181
  866SOL    HW214630   3.380   1.772   1.024
  867SOL     OW14631   0.327   7.687   1.388
  867SOL    HW114632   0.288   7.655   1.475
  867SOL    HW214633   0.427   7.681   1.392
  868SOL     OW14634   6.294   4.709   6.460
  868SOL    HW114635   6.251   4.658   6.385
  868SOL    HW214636   6.389   4.728   6.437
  869SOL     OW14637   8.264   1.393   0.549
  869SOL    HW114638   8.362   1.384   0.531
  869SOL    HW214639   8.228   1.471   0.500
  870SOL     OW14640   1.564   1.779   0.508
  870SOL    HW114641   1.559   1.840   0.588
  870SOL    HW214642   1.513   1.695   0.528
  871SOL     OW14643   8.464   1.578   0.288
  871SOL    HW114644   8.517   1.624   0.360
  871SOL    HW214645   8.426   1.647   0.226
  872SOL     OW14646   8.960   3.150   0.712
  872SOL    HW114647   8.980   3.054   0.733
  872SOL    HW214648   8.990   3.170   0.618
  873SOL     OW14649   1.656   3.611   1.096
  873SOL    HW114650   1.649   3.627   1.194
  873SOL    HW214651   1.710   3.529   1.079
  874SOL     OW14652   5.290   0.765   6.715
  874SOL    HW114653   5.300   0.723   6.805
  874SOL    HW214654   5.337   0.708   6.647
  875SOL     OW14655   0.720   6.786   1.598
  875SOL    HW114656   0.767   6.720   1.656
  875SOL    HW214657   0.774   6.871   1.595
  876SOL     OW14658   0.784   7.492   6.685
  876SOL    HW114659   0.843   7.428   6.638
  876SOL    HW214660   0.768   7.461   6.779
  877SOL     OW14661   6.010   8.300   6.369
  877SOL    HW114662   5.984   8.383   6.418
  877SOL    HW214663   6.035   8.229   6.434
  878SOL     OW14664   3.881   2.153   6.243
  878SOL    HW114665   3.846   2.065   6.213
  878SOL    HW214666   3.910   2.147   6.338
  879SOL     OW14667   1.073   1.504   5.615
  879SOL    HW114668   1.116   1.431   5.667
  879SOL    HW214669   0.975   1.483   5.603
  880SOL     OW14670   1.723   1.857   0.024
  880SOL    HW114671   1.767   1.946   0.029
  880SOL    HW214672   1.625   1.869   0.010
  881SOL     OW14673   4.446   1.418   0.729
  881SOL    HW114674   4.467   1.435   0.825
  881SOL    HW214675   4.415   1.324   0.718
  882SOL     OW14676   5.631   7.093   6.086
  882SOL    HW114677   5.592   7.091   5.994
  882SOL    HW214678   5.724   7.055   6.084
  883SOL     OW14679   7.900   1.167   0.631
  883SOL    HW114680   7.839   1.098   0.670
  883SOL    HW214681   7.896   1.163   0.532
  884SOL     OW14682   3.398   0.569   6.337
  884SOL    HW114683   3.442   0.657   6.352
  884SOL    HW214684   3.318   0.560   6.397
  885SOL     OW14685   0.205   5.714   0.459
  885SOL    HW114686   0.114   5.703   0.499
  885SOL    HW214687   0.208   5.666   0.371
  886SOL     OW14688   4.903   1.614   0.897
  886SOL    HW114689   4.841   1.682   0.935
  886SOL    HW214690   4.920   1.634   0.801
  887SOL     OW14691   3.464   2.296   0.400
  887SOL    HW114692   3.370   2.318   0.425
  887SOL    HW214693   3.527   2.354   0.452
  888SOL     OW14694   5.202   1.273   1.635
  888SOL    HW114695   5.233   1.180   1.619
  888SOL    HW214696   5.149   1.278   1.720
  889SOL     OW14697   1.594   2.476   1.075
  889SOL    HW114698   1.511   2.450   1.124
  889SOL    HW214699   1.579   2.466   0.976
  890SOL     OW14700   5.888   6.479   0.676
  890SOL    HW114701   5.835   6.429   0.745
  890SOL    HW214702   5.831   6.548   0.632
  891SOL     OW14703   7.546   6.430   5.560
  891SOL    HW114704   7.514   6.345   5.518
  891SOL    HW214705   7.473   6.497   5.560
  892SOL     OW14706   1.065   0.371   6.615
  892SOL    HW114707   1.130   0.338   6.683
  892SOL    HW214708   0.973   0.370   6.653
  893SOL     OW14709   3.765   3.572   5.760
  893SOL    HW114710   3.829   3.550   5.833
  893SOL    HW214711   3.753   3.493   5.700
  894SOL     OW14712   0.278   8.491   1.205
  894SOL    HW114713   0.230   8.578   1.202
  894SOL    HW214714   0.250   8.440   1.286
  895SOL     OW14715   9.212   6.624   5.681
  895SOL    HW114716   9.280   6.619   5.609
  895SOL    HW214717   9.251   6.669   5.761
  896SOL     OW14718   5.832   6.361   5.933
  896SOL    HW114719   5.898   6.346   6.006
  896SOL    HW214720   5.805   6.274   5.892
  897SOL     OW14721   0.889   7.797   6.395
  897SOL    HW114722   0.867   7.815   6.491
  897SOL    HW214723   0.858   7.705   6.370
  898SOL     OW14724   2.574   1.860   5.480
  898SOL    HW114725   2.641   1.899   5.417
  898SOL    HW214726   2.503   1.812   5.429
  899SOL     OW14727   4.787   3.592   1.283
  899SOL    HW114728   4.723   3.657   1.323
  899SOL    HW214729   4.840   3.637   1.211
  900SOL     OW14730   5.981   6.521   6.464
  900SOL    HW114731   5.925   6.572   6.530
  900SOL    HW214732   6.073   6.510   6.500
  901SOL     OW14733   2.068   0.974   5.685
  901SOL    HW114734   2.043   0.971   5.782
  901SOL    HW214735   2.167   0.964   5.676
  902SOL     OW14736   1.340   1.183   5.505
  902SOL    HW114737   1.373   1.097   5.465
  902SOL    HW214738   1.251   1.206   5.465
  903SOL     OW14739   3.984   3.955   0.884
  903SOL    HW114740   3.979   3.974   0.786
  903SOL    HW214741   3.978   4.041   0.935
  904SOL     OW14742   7.809   8.453   6.453
  904SOL    HW114743   7.771   8.519   6.518
  904SOL    HW214744   7.815   8.363   6.496
  905SOL     OW14745   1.514   0.703   1.024
  905SOL    HW114746   1.608   0.691   0.991
  905SOL    HW214747   1.453   0.639   0.978
  906SOL     OW14748   7.462   5.567   6.191
  906SOL    HW114749   7.489   5.488   6.246
  906SOL    HW214750   7.489   5.651   6.237
  907SOL     OW14751   6.450   6.130   0.788
  907SOL    HW114752   6.378   6.109   0.854
  907SOL    HW214753   6.539   6.117   0.831
  908SOL     OW14754   5.078   1.885   1.556
  908SOL    HW114755   5.041   1.821   1.623
  908SOL    HW214756   5.100   1.971   1.601
  909SOL     OW14757   1.627   5.328   5.354
  909SOL    HW114758   1.630   5.291   5.261
  909SOL    HW214759   1.536   5.315   5.393
  910SOL     OW14760   2.812   2.338   0.807
  910SOL    HW114761   2.879   2.412   0.803
  910SOL    HW214762   2.720   2.376   0.799
  911SOL     OW14763   4.104   0.700   2.056
  911SOL    HW114764   4.021   0.679   2.005
  911SOL    HW214765   4.085   0.696   2.154
  912SOL     OW14766   7.797   0.400   0.203
  912SOL    HW114767   7.857   0.452   0.263
  912SOL    HW214768   7.843   0.316   0.174
  913SOL     OW14769   9.419   6.976   4.700
  913SOL    HW114770   9.509   6.982   4.657
  913SOL    HW214771   9.352   7.022   4.643
  914SOL     OW14772   2.682   3.169   1.328
  914SOL    HW114773   2.625   3.229   1.383
  914SOL    HW214774   2.704   3.087   1.380
  915SOL     OW14775   4.704   0.678   5.898
  915SOL    HW114776   4.801   0.684   5.874
  915SOL    HW214777   4.686   0.734   5.979
  916SOL     OW14778   8.911   4.573   0.323
  916SOL    HW114779   8.836   4.515   0.352
  916SOL    HW214780   8.898   4.666   0.358
  917SOL     OW14781   4.049   4.115   5.790
  917SOL    HW114782   3.954   4.099   5.763
  917SOL    HW214783   4.105   4.126   5.708
  918SOL     OW14784   2.825   5.716   0.516
  918SOL    HW114785   2.760   5.642   0.496
  918SOL    HW214786   2.915   5.677   0.534
  919SOL     OW14787   5.413   4.506   1.424
  919SOL    HW114788   5.383   4.421   1.466
  919SOL    HW214789   5.335   4.567   1.412
  920SOL     OW14790   0.606   6.145   0.261
  920SOL    HW114791   0.693   6.195   0.267
  920SOL    HW214792   0.610   6.083   0.183
  921SOL     OW14793   5.507   6.039   6.065
  921SOL    HW114794   5.453   6.003   6.142
  921SOL    HW214795   5.490   6.137   6.056
  922SOL     OW14796   1.284   7.595   6.206
  922SOL    HW114797   1.262   7.509   6.252
  922SOL    HW214798   1.199   7.641   6.181
  923SOL     OW14799   8.702   5.886   6.610
  923SOL    HW114800   8.645   5.856   6.534
  923SOL    HW214801   8.691   5.984   6.624
  924SOL     OW14802   9.120   5.027   0.661
  924SOL    HW114803   9.145   5.067   0.749
  924SOL    HW214804   9.201   4.987   0.617
  925SOL     OW14805   4.205   0.715   0.033
  925SOL    HW114806   4.128   0.776   0.013
  925SOL    HW214807   4.208   0.641  -0.034
  926SOL     OW14808   6.009   5.507   0.664
  926SOL    HW114809   6.056   5.581   0.713
  926SOL    HW214810   5.913   5.505   0.690
  927SOL     OW14811   1.126   1.968   4.924
  927SOL    HW114812   1.222   1.961   4.896
  927SOL    HW214813   1.101   2.064   4.935
  928SOL     OW14814   2.675   0.256   1.148
  928SOL    HW114815   2.579   0.283   1.153
  928SOL    HW214816   2.712   0.278   1.058
  929SOL     OW14817   8.614   6.433   5.590
  929SOL    HW114818   8.664   6.439   5.504
  929SOL    HW214819   8.678   6.439   5.667
  930SOL     OW14820   0.644   6.474   6.192
  930SOL    HW114821   0.570   6.418   6.153
  930SOL    HW214822   0.605   6.550   6.243
  931SOL     OW14823   5.863   6.922   0.446
  931SOL    HW114824   5.941   6.871   0.410
  931SOL    HW214825   5.789   6.921   0.378
  932SOL     OW14826   3.406   5.067   5.259
  932SOL    HW114827   3.458   5.019   5.330
  932SOL    HW214828   3.317   5.022   5.246
  933SOL     OW14829   8.316   0.062   6.682
  933SOL    HW114830   8.391   0.071   6.747
  933SOL    HW214831   8.265  -0.022   6.702
  934SOL     OW14832   1.119   0.903   1.063
  934SOL    HW114833   1.074   0.847   1.132
  934SOL    HW214834   1.076   0.887   0.974
  935SOL     OW14835   1.032   2.384   0.754
  935SOL    HW114836   1.091   2.417   0.680
  935SOL    HW214837   1.030   2.284   0.754
  936SOL     OW14838   8.287   4.067   0.744
  936SOL    HW114839   8.351   3.993   0.728
  936SOL    HW214840   8.225   4.042   0.819
  937SOL     OW14841   2.142   8.174   6.110
  937SOL    HW114842   2.107   8.205   6.198
  937SOL    HW214843   2.242   8.177   6.111
  938SOL     OW14844   6.406   8.196   1.018
  938SOL    HW114845   6.429   8.217   0.923
  938SOL    HW214846   6.426   8.099   1.037
  939SOL     OW14847   0.307   2.644   6.222
  939SOL    HW114848   0.235   2.574   6.227
  939SOL    HW214849   0.282   2.713   6.154
  940SOL     OW14850   5.108   8.208   1.431
  940SOL    HW114851   5.096   8.148   1.352
  940SOL    HW214852   5.187   8.177   1.485
  941SOL     OW14853   4.800   1.397   0.241
  941SOL    HW114854   4.792   1.486   0.197
  941SOL    HW214855   4.822   1.328   0.172
  942SOL     OW14856   8.284   5.101   6.486
  942SOL    HW114857   8.349   5.119   6.560
  942SOL    HW214858   8.247   5.188   6.453
  943SOL     OW14859   1.885   2.417   0.826
  943SOL    HW114860   1.876   2.324   0.790
  943SOL    HW214861   1.969   2.458   0.792
  944SOL     OW14862   1.832   1.719   0.763
  944SOL    HW114863   1.740   1.709   0.800
  944SOL    HW214864   1.895   1.660   0.814
  945SOL     OW14865   0.793   8.051   0.753
  945SOL    HW114866   0.754   7.970   0.708
  945SOL    HW214867   0.874   8.024   0.806
  946SOL     OW14868   6.193   4.777   0.502
  946SOL    HW114869   6.253   4.698   0.487
  946SOL    HW214870   6.098   4.751   0.486
  947SOL     OW14871   2.208   5.714   0.054
  947SOL    HW114872   2.168   5.700   0.144
  947SOL    HW214873   2.291   5.770   0.062
  948SOL     OW14874   8.724   0.935   5.757
  948SOL    HW114875   8.782   1.016   5.750
  948SOL    HW214876   8.661   0.932   5.679
  949SOL     OW14877   4.595   4.868   0.381
  949SOL    HW114878   4.630   4.913   0.463
  949SOL    HW214879   4.538   4.790   0.406
  950SOL     OW14880   1.144   6.252   5.081
  950SOL    HW114881   1.105   6.291   5.164
  950SOL    HW214882   1.147   6.323   5.010
  951SOL     OW14883   4.165   5.188   6.028
  951SOL    HW114884   4.147   5.168   5.931
  951SOL    HW214885   4.257   5.224   6.038
  952SOL     OW14886   5.112   7.630   0.432
  952SOL    HW114887   5.103   7.533   0.457
  952SOL    HW214888   5.179   7.638   0.358
  953SOL     OW14889   9.347   4.864   5.787
  953SOL    HW114890   9.334   4.933   5.716
  953SOL    HW214891   9.429   4.884   5.840
  954SOL     OW14892   6.843   1.014   0.282
  954SOL    HW114893   6.799   0.933   0.243
  954SOL    HW214894   6.921   1.040   0.225
  955SOL     OW14895   3.532   0.259   5.744
  955SOL    HW114896   3.568   0.275   5.836
  955SOL    HW214897   3.433   0.275   5.743
  956SOL     OW14898   8.198   7.755   5.953
  956SOL    HW114899   8.234   7.685   5.891
  956SOL    HW214900   8.251   7.754   6.038
  957SOL     OW14901   2.341   3.368   5.716
  957SOL    HW114902   2.408   3.320   5.660
  957SOL    HW214903   2.360   3.466   5.715
  958SOL     OW14904   0.909   6.383   5.782
  958SOL    HW114905   0.838   6.426   5.837
  958SOL    HW214906   0.927   6.439   5.701
  959SOL     OW14907   1.847   5.478   0.903
  959SOL    HW114908   1.901   5.407   0.948
  959SOL    HW214909   1.752   5.448   0.894
  960SOL     OW14910   9.284   6.507   0.499
  960SOL    HW114911   9.208   6.562   0.535
  960SOL    HW214912   9.332   6.462   0.574
  961SOL     OW14913   8.634   4.895   5.089
  961SOL    HW114914   8.558   4.936   5.038
  961SOL    HW214915   8.630   4.795   5.080
  962SOL     OW14916   0.290   5.102   0.332
  962SOL    HW114917   0.242   5.100   0.420
  962SOL    HW214918   0.244   5.042   0.268
  963SOL     OW14919   9.166   7.537   5.970
  963SOL    HW114920   9.243   7.480   5.999
  963SOL    HW214921   9.114   7.567   6.050
  964SOL     OW14922   6.820   7.650   0.897
  964SOL    HW114923   6.822   7.561   0.944
  964SOL    HW214924   6.795   7.636   0.801
  965SOL     OW14925   9.279   6.778   4.503
  965SOL    HW114926   9.281   6.875   4.527
  965SOL    HW214927   9.305   6.767   4.407
  966SOL     OW14928   1.674   2.441   0.452
  966SOL    HW114929   1.772   2.457   0.463
  966SOL    HW214930   1.629   2.448   0.541
  967SOL     OW14931   5.985   1.190   0.806
  967SOL    HW114932   6.061   1.165   0.746
  967SOL    HW214933   6.022   1.230   0.890
  968SOL     OW14934   8.713   1.233   6.283
  968SOL    HW114935   8.659   1.171   6.340
  968SOL    HW214936   8.809   1.229   6.311
  969SOL     OW14937   6.087   4.661   6.273
  969SOL    HW114938   6.150   4.672   6.196
  969SOL    HW214939   6.068   4.750   6.313
  970SOL     OW14940   4.313   7.685   5.104
  970SOL    HW114941   4.230   7.740   5.091
  970SOL    HW214942   4.288   7.589   5.112
  971SOL     OW14943   4.189   4.807   1.639
  971SOL    HW114944   4.109   4.864   1.618
  971SOL    HW214945   4.223   4.830   1.730
  972SOL     OW14946   8.963   6.443   5.604
  972SOL    HW114947   9.037   6.505   5.626
  972SOL    HW214948   8.920   6.410   5.689
  973SOL     OW14949   0.523   8.014   5.493
  973SOL    HW114950   0.485   7.943   5.553
  973SOL    HW214951   0.452   8.044   5.429
  974SOL     OW14952   2.814   3.174   1.101
  974SOL    HW114953   2.779   3.188   1.193
  974SOL    HW214954   2.757   3.107   1.053
  975SOL     OW14955   8.825   5.014   0.610
  975SOL    HW114956   8.819   5.067   0.694
  975SOL    HW214957   8.918   4.979   0.600
  976SOL     OW14958   4.767   0.065   5.822
  976SOL    HW114959   4.763  -0.008   5.890
  976SOL    HW214960   4.784   0.152   5.867
  977SOL     OW14961   0.995   1.957   1.564
  977SOL    HW114962   0.983   2.034   1.627
  977SOL    HW214963   0.906   1.932   1.525
  978SOL     OW14964   5.109   7.360   0.495
  978SOL    HW114965   5.046   7.325   0.563
  978SOL    HW214966   5.171   7.287   0.465
  979SOL     OW14967   4.402   7.441   0.297
  979SOL    HW114968   4.453   7.401   0.221
  979SOL    HW214969   4.437   7.532   0.317
  980SOL     OW14970   8.020   5.746   0.058
  980SOL    HW114971   8.089   5.814   0.083
  980SOL    HW214972   7.939   5.793   0.022
  981SOL     OW14973   7.184   5.084   5.276
  981SOL    HW114974   7.137   5.024   5.211
  981SOL    HW214975   7.232   5.156   5.226
  982SOL     OW14976   6.121   4.294   6.694
  982SOL    HW114977   6.071   4.367   6.648
  982SOL    HW214978   6.135   4.319   6.790
  983SOL     OW14979   5.382   0.037   1.511
  983SOL    HW114980   5.291   0.057   1.549
  983SOL    HW214981   5.428   0.123   1.490
  984SOL     OW14982   2.477   3.866   5.569
  984SOL    HW114983   2.560   3.914   5.540
  984SOL    HW214984   2.425   3.837   5.488
  985SOL     OW14985   0.302   0.861   0.871
  985SOL    HW114986   0.322   0.812   0.956
  985SOL    HW214987   0.377   0.848   0.806
  986SOL     OW14988   1.560   1.407   6.211
  986SOL    HW114989   1.655   1.380   6.195
  986SOL    HW214990   1.551   1.506   6.201
  987SOL     OW14991   3.776   1.039   5.268
  987SOL    HW114992   3.715   1.089   5.207
  987SOL    HW214993   3.787   1.090   5.354
  988SOL     OW14994   4.673   1.538   6.605
  988SOL    HW114995   4.627   1.453   6.630
  988SOL    HW214996   4.724   1.572   6.684
  989SOL     OW14997   7.138   1.980   0.962
  989SOL    HW114998   7.115   2.023   1.049
  989SOL    HW214999   7.131   2.047   0.888
  990SOL     OW15000   2.048   0.998   5.941
  990SOL    HW115001   2.113   1.074   5.931
  990SOL    HW215002   2.032   0.980   6.038
  991SOL     OW15003   5.679   1.105   5.547
  991SOL    HW115004   5.599   1.045   5.552
  991SOL    HW215005   5.654   1.190   5.501
  992SOL     OW15006   8.405   1.667   0.597
  992SOL    HW115007   8.389   1.734   0.524
  992SOL    HW215008   8.493   1.623   0.581
  993SOL     OW15009   4.340   2.555   6.438
  993SOL    HW115010   4.250   2.546   6.396
  993SOL    HW215011   4.399   2.611   6.379
  994SOL     OW15012   5.497   0.261   0.348
  994SOL    HW115013   5.437   0.341   0.360
  994SOL    HW215014   5.447   0.178   0.374
  995SOL     OW15015   1.398   7.476   5.623
  995SOL    HW115016   1.343   7.477   5.706
  995SOL    HW215017   1.368   7.551   5.562
  996SOL     OW15018   0.069   2.259   1.009
  996SOL    HW115019   0.114   2.181   1.052
  996SOL    HW215020   0.117   2.284   0.925
  997SOL     OW15021   2.059   5.731   5.268
  997SOL    HW115022   2.029   5.662   5.201
  997SOL    HW215023   2.093   5.811   5.219
  998SOL     OW15024   6.694   1.722   0.667
  998SOL    HW115025   6.705   1.704   0.765
  998SOL    HW215026   6.717   1.639   0.616
  999SOL     OW15027   0.144   8.482   4.505
  999SOL    HW115028   0.188   8.393   4.494
  999SOL    HW215029   0.110   8.513   4.417
 1000SOL     OW15030   6.581   5.889   5.937
 1000SOL    HW115031   6.483   5.899   5.954
 1000SOL    HW215032   6.595   5.849   5.846
 1001SOL     OW15033   2.916   2.711   0.587
 1001SOL    HW115034   2.994   2.701   0.524
 1001SOL    HW215035   2.854   2.781   0.551
 1002SOL     OW15036   4.195   1.520   1.107
 1002SOL    HW115037   4.263   1.490   1.174
 1002SOL    HW215038   4.212   1.474   1.020
 1003SOL     OW15039   4.514   7.953   1.518
 1003SOL    HW115040   4.540   8.035   1.570
 1003SOL    HW215041   4.586   7.931   1.453
 1004SOL     OW15042   1.348   6.388   5.939
 1004SOL    HW115043   1.271   6.452   5.944
 1004SOL    HW215044   1.383   6.371   6.031
 1005SOL     OW15045   0.941   0.320   5.363
 1005SOL    HW115046   0.953   0.325   5.462
 1005SOL    HW215047   0.867   0.381   5.335
 1006SOL     OW15048   6.423   5.490   5.640
 1006SOL    HW115049   6.520   5.472   5.620
 1006SOL    HW215050   6.372   5.494   5.554
 1007SOL     OW15051   4.339   7.253   1.590
 1007SOL    HW115052   4.275   7.200   1.535
 1007SOL    HW215053   4.340   7.218   1.684
 1008SOL     OW15054   0.360   4.860   1.013
 1008SOL    HW115055   0.435   4.860   0.946
 1008SOL    HW215056   0.389   4.908   1.095
 1009SOL     OW15057   0.977   7.340   6.554
 1009SOL    HW115058   0.982   7.270   6.625
 1009SOL    HW215059   0.979   7.296   6.464
 1010SOL     OW15060   4.652   7.806   5.630
 1010SOL    HW115061   4.733   7.864   5.640
 1010SOL    HW215062   4.652   7.766   5.538
 1011SOL     OW15063   5.504   6.569   1.041
 1011SOL    HW115064   5.522   6.644   0.978
 1011SOL    HW215065   5.423   6.591   1.097
 1012SOL     OW15066   7.008   6.333   1.532
 1012SOL    HW115067   7.064   6.299   1.608
 1012SOL    HW215068   6.942   6.263   1.505
 1013SOL     OW15069   0.726   7.968   4.811
 1013SOL    HW115070   0.779   8.052   4.802
 1013SOL    HW215071   0.631   7.992   4.832
 1014SOL     OW15072   7.228   1.616   0.959
 1014SOL    HW115073   7.176   1.601   1.043
 1014SOL    HW215074   7.169   1.660   0.891
 1015SOL     OW15075   5.909   2.154   1.174
 1015SOL    HW115076   5.812   2.173   1.154
 1015SOL    HW215077   5.942   2.221   1.241
 1016SOL     OW15078   0.327   3.586   5.462
 1016SOL    HW115079   0.251   3.555   5.405
 1016SOL    HW215080   0.308   3.678   5.497
 1017SOL     OW15081   0.965   5.602   5.380
 1017SOL    HW115082   0.961   5.610   5.479
 1017SOL    HW215083   0.983   5.507   5.355
 1018SOL     OW15084   3.928   6.535   0.733
 1018SOL    HW115085   3.849   6.479   0.757
 1018SOL    HW215086   3.995   6.532   0.806
 1019SOL     OW15087   4.318   6.080   1.442
 1019SOL    HW115088   4.355   6.004   1.388
 1019SOL    HW215089   4.388   6.114   1.504
 1020SOL     OW15090   0.838   4.729   6.336
 1020SOL    HW115091   0.752   4.777   6.353
 1020SOL    HW215092   0.898   4.786   6.280
 1021SOL     OW15093   3.645   1.909   5.439
 1021SOL    HW115094   3.569   1.881   5.381
 1021SOL    HW215095   3.731   1.872   5.404
 1022SOL     OW15096   1.371   3.856   0.255
 1022SOL    HW115097   1.415   3.884   0.340
 1022SOL    HW215098   1.423   3.782   0.213
 1023SOL     OW15099   5.132   0.897   1.007
 1023SOL    HW115100   5.150   0.851   0.921
 1023SOL    HW215101   5.049   0.858   1.049
 1024SOL     OW15102   0.388   1.590   6.163
 1024SOL    HW115103   0.419   1.603   6.069
 1024SOL    HW215104   0.386   1.492   6.184
 1025SOL     OW15105   5.307   3.416   0.977
 1025SOL    HW115106   5.287   3.351   1.051
 1025SOL    HW215107   5.385   3.472   1.003
 1026SOL     OW15108   7.484   3.860   0.750
 1026SOL    HW115109   7.572   3.865   0.797
 1026SOL    HW215110   7.484   3.924   0.673
 1027SOL     OW15111   0.842   0.113   0.717
 1027SOL    HW115112   0.871   0.068   0.633
 1027SOL    HW215113   0.745   0.096   0.733
 1028SOL     OW15114   1.236   8.355   6.707
 1028SOL    HW115115   1.171   8.335   6.780
 1028SOL    HW215116   1.210   8.305   6.624
 1029SOL     OW15117   3.324   4.877   0.427
 1029SOL    HW115118   3.351   4.970   0.452
 1029SOL    HW215119   3.344   4.815   0.502
 1030SOL     OW15120   2.548   5.257   0.056
 1030SOL    HW115121   2.556   5.350   0.092
 1030SOL    HW215122   2.581   5.255  -0.038
 1031SOL     OW15123   5.621   4.291   6.510
 1031SOL    HW115124   5.654   4.374   6.556
 1031SOL    HW215125   5.606   4.311   6.413
 1032SOL     OW15126   5.877   6.025   4.743
 1032SOL    HW115127   5.939   5.951   4.769
 1032SOL    HW215128   5.912   6.071   4.662
 1033SOL     OW15129   1.460   8.018   0.564
 1033SOL    HW115130   1.425   8.019   0.658
 1033SOL    HW215131   1.560   8.019   0.566
 1034SOL     OW15132   4.975   8.315   1.003
 1034SOL    HW115133   4.951   8.282   1.095
 1034SOL    HW215134   4.978   8.238   0.940
 1035SOL     OW15135   4.001   7.809   0.755
 1035SOL    HW115136   3.988   7.900   0.715
 1035SOL    HW215137   3.921   7.753   0.738
 1036SOL     OW15138   4.289   2.864   1.022
 1036SOL    HW115139   4.326   2.794   1.083
 1036SOL    HW215140   4.231   2.821   0.953
 1037SOL     OW15141   8.986   6.986   6.391
 1037SOL    HW115142   8.903   7.010   6.442
 1037SOL    HW215143   9.005   7.058   6.324
 1038SOL     OW15144   6.883   8.487   6.249
 1038SOL    HW115145   6.969   8.468   6.296
 1038SOL    HW215146   6.853   8.580   6.270
 1039SOL     OW15147   3.905   4.124   0.320
 1039SOL    HW115148   3.816   4.137   0.278
 1039SOL    HW215149   3.971   4.189   0.281
 1040SOL     OW15150   1.343   5.400   6.556
 1040SOL    HW115151   1.394   5.486   6.566
 1040SOL    HW215152   1.321   5.363   6.646
 1041SOL     OW15153   6.260   2.545   5.602
 1041SOL    HW115154   6.299   2.485   5.533
 1041SOL    HW215155   6.197   2.492   5.659
 1042SOL     OW15156   1.014   7.614   1.140
 1042SOL    HW115157   1.005   7.666   1.225
 1042SOL    HW215158   1.023   7.516   1.161
 1043SOL     OW15159   2.662   0.208   0.689
 1043SOL    HW115160   2.571   0.217   0.730
 1043SOL    HW215161   2.731   0.218   0.761
 1044SOL     OW15162   5.274   8.213   1.131
 1044SOL    HW115163   5.187   8.167   1.150
 1044SOL    HW215164   5.268   8.259   1.043
 1045SOL     OW15165   5.718   8.009   1.697
 1045SOL    HW115166   5.697   8.076   1.626
 1045SOL    HW215167   5.658   8.023   1.775
 1046SOL     OW15168   6.468   6.318   0.578
 1046SOL    HW115169   6.443   6.249   0.646
 1046SOL    HW215170   6.546   6.371   0.612
 1047SOL     OW15171   8.058   5.165   0.425
 1047SOL    HW115172   7.991   5.125   0.488
 1047SOL    HW215173   8.141   5.188   0.475
 1048SOL     OW15174   0.176   5.290   1.433
 1048SOL    HW115175   0.120   5.369   1.408
 1048SOL    HW215176   0.184   5.286   1.533
 1049SOL     OW15177   5.630   4.343   0.748
 1049SOL    HW115178   5.560   4.339   0.676
 1049SOL    HW215179   5.695   4.268   0.735
 1050SOL     OW15180   2.543   0.139   0.054
 1050SOL    HW115181   2.524   0.221   0.107
 1050SOL    HW215182   2.477   0.067   0.077
 1051SOL     OW15183   5.997   6.452   0.084
 1051SOL    HW115184   6.033   6.438   0.177
 1051SOL    HW215185   6.057   6.407   0.018
 1052SOL     OW15186   4.155   3.649   0.746
 1052SOL    HW115187   4.060   3.678   0.755
 1052SOL    HW215188   4.211   3.697   0.814
 1053SOL     OW15189   0.252   8.202   1.099
 1053SOL    HW115190   0.227   8.153   1.183
 1053SOL    HW215191   0.249   8.301   1.117
 1054SOL     OW15192   8.577   5.040   6.228
 1054SOL    HW115193   8.523   4.956   6.226
 1054SOL    HW215194   8.586   5.072   6.323
 1055SOL     OW15195   6.148   0.094   5.765
 1055SOL    HW115196   6.090   0.055   5.693
 1055SOL    HW215197   6.200   0.020   5.809
 1056SOL     OW15198   9.089   2.871   6.472
 1056SOL    HW115199   9.065   2.963   6.504
 1056SOL    HW215200   9.009   2.812   6.478
 1057SOL     OW15201   4.383   4.299   0.731
 1057SOL    HW115202   4.475   4.271   0.703
 1057SOL    HW215203   4.317   4.274   0.660
 1058SOL     OW15204   1.392   0.250   6.204
 1058SOL    HW115205   1.376   0.185   6.130
 1058SOL    HW215206   1.451   0.208   6.273
 1059SOL     OW15207   7.119   3.985   6.336
 1059SOL    HW115208   7.135   3.923   6.413
 1059SOL    HW215209   7.200   4.042   6.323
 1060SOL     OW15210   6.997   0.187   5.594
 1060SOL    HW115211   6.949   0.153   5.512
 1060SOL    HW215212   6.978   0.284   5.605
 1061SOL     OW15213   1.257   7.812   1.065
 1061SOL    HW115214   1.258   7.712   1.055
 1061SOL    HW215215   1.350   7.845   1.079
 1062SOL     OW15216   9.267   1.632   6.087
 1062SOL    HW115217   9.202   1.664   6.018
 1062SOL    HW215218   9.313   1.711   6.129
 1063SOL     OW15219   7.461   2.421   5.893
 1063SOL    HW115220   7.493   2.420   5.798
 1063SOL    HW215221   7.540   2.432   5.955
 1064SOL     OW15222   0.736   4.805   4.880
 1064SOL    HW115223   0.747   4.710   4.909
 1064SOL    HW215224   0.818   4.835   4.830
 1065SOL     OW15225   3.387   7.552   2.116
 1065SOL    HW115226   3.468   7.496   2.137
 1065SOL    HW215227   3.406   7.647   2.139
 1066SOL     OW15228   6.243   1.006   6.275
 1066SOL    HW115229   6.280   1.081   6.220
 1066SOL    HW215230   6.182   0.951   6.219
 1067SOL     OW15231   5.209   3.844   1.173
 1067SOL    HW115232   5.217   3.911   1.247
 1067SOL    HW215233   5.179   3.889   1.089
 1068SOL     OW15234   8.600   3.166   6.428
 1068SOL    HW115235   8.521   3.209   6.385
 1068SOL    HW215236   8.578   3.071   6.451
 1069SOL     OW15237   3.967   8.015   6.002
 1069SOL    HW115238   4.001   7.941   6.060
 1069SOL    HW215239   3.868   8.007   5.990
 1070SOL     OW15240   0.727   7.568   5.277
 1070SOL    HW115241   0.818   7.549   5.315
 1070SOL    HW215242   0.657   7.540   5.342
 1071SOL     OW15243   0.877   5.764   0.214
 1071SOL    HW115244   0.895   5.845   0.270
 1071SOL    HW215245   0.863   5.684   0.274
 1072SOL     OW15246   3.750   0.428   0.318
 1072SOL    HW115247   3.817   0.394   0.384
 1072SOL    HW215248   3.787   0.509   0.271
 1073SOL     OW15249   0.775   8.229   1.183
 1073SOL    HW115250   0.737   8.275   1.103
 1073SOL    HW215251   0.825   8.295   1.239
 1074SOL     OW15252   0.229   3.533   0.708
 1074SOL    HW115253   0.132   3.508   0.708
 1074SOL    HW215254   0.274   3.492   0.787
 1075SOL     OW15255   1.462   6.141   6.576
 1075SOL    HW115256   1.406   6.224   6.575
 1075SOL    HW215257   1.512   6.133   6.490
 1076SOL     OW15258   6.753   6.613   6.576
 1076SOL    HW115259   6.791   6.630   6.485
 1076SOL    HW215260   6.656   6.639   6.578
 1077SOL     OW15261   7.413   6.796   0.788
 1077SOL    HW115262   7.349   6.863   0.825
 1077SOL    HW215263   7.450   6.828   0.701
 1078SOL     OW15264   5.321   0.168   1.111
 1078SOL    HW115265   5.305   0.195   1.205
 1078SOL    HW215266   5.394   0.100   1.107
 1079SOL     OW15267   4.884   7.345   5.683
 1079SOL    HW115268   4.911   7.386   5.596
 1079SOL    HW215269   4.804   7.287   5.669
 1080SOL     OW15270   6.364   3.079   0.220
 1080SOL    HW115271   6.318   3.161   0.254
 1080SOL    HW215272   6.403   3.097   0.130
 1081SOL     OW15273   3.208   2.424   0.725
 1081SOL    HW115274   3.124   2.470   0.754
 1081SOL    HW215275   3.193   2.380   0.636
 1082SOL     OW15276   5.296   8.128   0.598
 1082SOL    HW115277   5.276   8.051   0.658
 1082SOL    HW215278   5.212   8.179   0.580
 1083SOL     OW15279   3.858   5.679   1.189
 1083SOL    HW115280   3.912   5.605   1.229
 1083SOL    HW215281   3.864   5.674   1.089
 1084SOL     OW15282   4.375   0.846   6.509
 1084SOL    HW115283   4.385   0.842   6.608
 1084SOL    HW215284   4.323   0.928   6.484
 1085SOL     OW15285   1.188   6.019   4.973
 1085SOL    HW115286   1.146   6.002   4.884
 1085SOL    HW215287   1.174   6.114   5.000
 1086SOL     OW15288   6.884   1.814   1.556
 1086SOL    HW115289   6.784   1.821   1.552
 1086SOL    HW215290   6.923   1.856   1.475
 1087SOL     OW15291   1.079   5.421   6.414
 1087SOL    HW115292   1.079   5.468   6.326
 1087SOL    HW215293   1.167   5.437   6.460
 1088SOL     OW15294   0.447   3.421   5.676
 1088SOL    HW115295   0.419   3.457   5.587
 1088SOL    HW215296   0.545   3.400   5.673
 1089SOL     OW15297   3.642   1.499   0.692
 1089SOL    HW115298   3.709   1.560   0.649
 1089SOL    HW215299   3.584   1.552   0.754
 1090SOL     OW15300   8.554   7.927   1.296
 1090SOL    HW115301   8.457   7.952   1.291
 1090SOL    HW215302   8.566   7.836   1.255
 1091SOL     OW15303   2.546   7.788   0.134
 1091SOL    HW115304   2.551   7.760   0.038
 1091SOL    HW215305   2.629   7.758   0.182
 1092SOL     OW15306   2.844   6.735   5.827
 1092SOL    HW115307   2.810   6.826   5.806
 1092SOL    HW215308   2.941   6.741   5.852
 1093SOL     OW15309   8.165   2.872   1.256
 1093SOL    HW115310   8.070   2.892   1.277
 1093SOL    HW215311   8.192   2.786   1.300
 1094SOL     OW15312   4.296   8.492   5.134
 1094SOL    HW115313   4.200   8.484   5.160
 1094SOL    HW215314   4.306   8.466   5.038
 1095SOL     OW15315   4.984   4.738   1.513
 1095SOL    HW115316   4.977   4.643   1.544
 1095SOL    HW215317   4.933   4.797   1.575
 1096SOL     OW15318   3.661   4.623   0.734
 1096SOL    HW115319   3.621   4.533   0.751
 1096SOL    HW215320   3.721   4.648   0.810
 1097SOL     OW15321   1.854   1.152   5.845
 1097SOL    HW115322   1.807   1.112   5.766
 1097SOL    HW215323   1.919   1.086   5.882
 1098SOL     OW15324   8.803   7.506   0.469
 1098SOL    HW115325   8.841   7.438   0.406
 1098SOL    HW215326   8.735   7.462   0.528
 1099SOL     OW15327   5.612   1.432   1.014
 1099SOL    HW115328   5.650   1.340   1.012
 1099SOL    HW215329   5.534   1.434   1.076
 1100SOL     OW15330   7.075   6.213   5.896
 1100SOL    HW115331   7.143   6.194   5.825
 1100SOL    HW215332   7.085   6.146   5.970
 1101SOL     OW15333   4.975   7.224   5.933
 1101SOL    HW115334   4.975   7.261   5.840
 1101SOL    HW215335   5.038   7.147   5.938
 1102SOL     OW15336   2.505   0.656   5.415
 1102SOL    HW115337   2.411   0.679   5.437
 1102SOL    HW215338   2.511   0.561   5.385
 1103SOL     OW15339   0.786   7.086   1.025
 1103SOL    HW115340   0.844   7.085   1.107
 1103SOL    HW215341   0.753   7.180   1.010
 1104SOL     OW15342   8.499   0.802   0.979
 1104SOL    HW115343   8.553   0.740   1.036
 1104SOL    HW215344   8.558   0.844   0.910
 1105SOL     OW15345   6.269   2.036   6.404
 1105SOL    HW115346   6.319   2.103   6.349
 1105SOL    HW215347   6.253   2.073   6.496
 1106SOL     OW15348   7.940   3.946   5.408
 1106SOL    HW115349   7.860   3.895   5.440
 1106SOL    HW215350   7.961   3.920   5.314
 1107SOL     OW15351   7.788   3.511   1.365
 1107SOL    HW115352   7.829   3.423   1.387
 1107SOL    HW215353   7.855   3.584   1.382
 1108SOL     OW15354   6.053   3.931   6.284
 1108SOL    HW115355   6.019   3.934   6.378
 1108SOL    HW215356   6.117   3.854   6.274
 1109SOL     OW15357   4.398   2.280   1.183
 1109SOL    HW115358   4.466   2.317   1.247
 1109SOL    HW215359   4.435   2.197   1.141
 1110SOL     OW15360   3.591   5.178   1.848
 1110SOL    HW115361   3.541   5.239   1.909
 1110SOL    HW215362   3.653   5.121   1.902
 1111SOL     OW15363   1.948   4.901   5.091
 1111SOL    HW115364   1.957   4.813   5.138
 1111SOL    HW215365   1.945   4.886   4.992
 1112SOL     OW15366   0.517   5.502   5.466
 1112SOL    HW115367   0.465   5.491   5.381
 1112SOL    HW215368   0.597   5.442   5.464
 1113SOL     OW15369   2.492   4.439   0.525
 1113SOL    HW115370   2.564   4.378   0.558
 1113SOL    HW215371   2.504   4.530   0.564
 1114SOL     OW15372   4.922   0.074   6.094
 1114SOL    HW115373   4.852   0.015   6.135
 1114SOL    HW215374   4.889   0.168   6.092
 1115SOL     OW15375   6.760   5.516   6.006
 1115SOL    HW115376   6.800   5.489   5.918
 1115SOL    HW215377   6.680   5.573   5.990
 1116SOL     OW15378   4.195   4.356   0.916
 1116SOL    HW115379   4.214   4.427   0.984
 1116SOL    HW215380   4.278   4.338   0.864
 1117SOL     OW15381   6.357   4.546   0.453
 1117SOL    HW115382   6.429   4.609   0.426
 1117SOL    HW215383   6.396   4.456   0.470
 1118SOL     OW15384   0.108   5.514   0.823
 1118SOL    HW115385   0.088   5.535   0.919
 1118SOL    HW215386   0.110   5.598   0.770
 1119SOL     OW15387   0.894   3.329   0.891
 1119SOL    HW115388   0.839   3.336   0.808
 1119SOL    HW215389   0.835   3.344   0.971
 1120SOL     OW15390   4.682   3.001   6.734
 1120SOL    HW115391   4.701   3.028   6.639
 1120SOL    HW215392   4.673   3.083   6.791
 1121SOL     OW15393   7.912   2.799   0.169
 1121SOL    HW115394   7.921   2.794   0.268
 1121SOL    HW215395   7.891   2.893   0.141
 1122SOL     OW15396   8.173   8.073   6.084
 1122SOL    HW115397   8.087   8.073   6.136
 1122SOL    HW215398   8.167   8.005   6.010
 1123SOL     OW15399   0.382   8.031   6.681
 1123SOL    HW115400   0.298   8.002   6.727
 1123SOL    HW215401   0.368   8.031   6.582
 1124SOL     OW15402   3.112   0.803   6.692
 1124SOL    HW115403   3.193   0.825   6.746
 1124SOL    HW215404   3.036   0.862   6.720
 1125SOL     OW15405   6.841   0.037   5.776
 1125SOL    HW115406   6.919   0.098   5.761
 1125SOL    HW215407   6.873  -0.057   5.784
 1126SOL     OW15408   9.423   5.741   0.222
 1126SOL    HW115409   9.369   5.760   0.304
 1126SOL    HW215410   9.431   5.643   0.209
 1127SOL     OW15411   0.651   1.365   0.600
 1127SOL    HW115412   0.626   1.414   0.683
 1127SOL    HW215413   0.630   1.422   0.520
 1128SOL     OW15414   8.233   4.855   5.567
 1128SOL    HW115415   8.213   4.806   5.482
 1128SOL    HW215416   8.279   4.794   5.631
 1129SOL     OW15417   6.652   0.578   0.039
 1129SOL    HW115418   6.691   0.524   0.114
 1129SOL    HW215419   6.676   0.536  -0.048
 1130SOL     OW15420   0.077   6.530   4.828
 1130SOL    HW115421  -0.010   6.514   4.781
 1130SOL    HW215422   0.152   6.528   4.761
 1131SOL     OW15423   3.588   6.892   5.573
 1131SOL    HW115424   3.558   6.834   5.649
 1131SOL    HW215425   3.509   6.919   5.519
 1132SOL     OW15426   1.902   5.004   5.554
 1132SOL    HW115427   1.887   5.030   5.459
 1132SOL    HW215428   1.936   4.910   5.558
 1133SOL     OW15429   5.901   1.854   0.865
 1133SOL    HW115430   5.866   1.762   0.882
 1133SOL    HW215431   5.947   1.888   0.947
 1134SOL     OW15432   5.084   3.609   1.101
 1134SOL    HW115433   5.109   3.689   1.156
 1134SOL    HW215434   5.134   3.611   1.014
 1135SOL     OW15435   9.133   4.344   0.452
 1135SOL    HW115436   9.162   4.410   0.383
 1135SOL    HW215437   9.154   4.252   0.421
 1136SOL     OW15438   1.998   4.828   0.181
 1136SOL    HW115439   1.989   4.789   0.090
 1136SOL    HW215440   2.083   4.795   0.223
 1137SOL     OW15441   3.233   2.482   2.597
 1137SOL    HW115442   3.256   2.540   2.519
 1137SOL    HW215443   3.286   2.512   2.677
 1138SOL     OW15444   6.304   5.961   6.051
 1138SOL    HW115445   6.265   5.882   6.100
 1138SOL    HW215446   6.242   5.987   5.977
 1139SOL     OW15447   2.258   3.969   6.449
 1139SOL    HW115448   2.207   3.935   6.528
 1139SOL    HW215449   2.286   4.064   6.465
 1140SOL     OW15450   8.692   3.453   6.201
 1140SOL    HW115451   8.663   3.537   6.156
 1140SOL    HW215452   8.664   3.455   6.297
 1141SOL     OW15453   9.112   6.081   6.075
 1141SOL    HW115454   9.102   5.988   6.039
 1141SOL    HW215455   9.176   6.080   6.152
 1142SOL     OW15456   6.079   6.094   5.906
 1142SOL    HW115457   6.006   6.046   5.858
 1142SOL    HW215458   6.057   6.100   6.003
 1143SOL     OW15459   9.376   8.001   0.931
 1143SOL    HW115460   9.339   7.986   0.840
 1143SOL    HW215461   9.375   8.099   0.952
 1144SOL     OW15462   8.586   6.301   0.821
 1144SOL    HW115463   8.553   6.217   0.778
 1144SOL    HW215464   8.646   6.277   0.898
 1145SOL     OW15465   9.387   2.502   0.718
 1145SOL    HW115466   9.487   2.494   0.718
 1145SOL    HW215467   9.361   2.597   0.702
 1146SOL     OW15468   4.670   4.872   5.252
 1146SOL    HW115469   4.753   4.915   5.288
 1146SOL    HW215470   4.620   4.939   5.198
 1147SOL     OW15471   1.190   7.549   5.888
 1147SOL    HW115472   1.109   7.605   5.871
 1147SOL    HW215473   1.198   7.529   5.985
 1148SOL     OW15474   4.225   1.562   5.846
 1148SOL    HW115475   4.171   1.480   5.827
 1148SOL    HW215476   4.288   1.579   5.770
 1149SOL     OW15477   1.547   8.466   4.872
 1149SOL    HW115478   1.637   8.478   4.832
 1149SOL    HW215479   1.495   8.400   4.817
 1150SOL     OW15480   2.958   1.987   1.721
 1150SOL    HW115481   2.936   1.963   1.626
 1150SOL    HW215482   3.027   2.060   1.722
 1151SOL     OW15483   6.834   0.908   0.568
 1151SOL    HW115484   6.804   0.817   0.541
 1151SOL    HW215485   6.847   0.964   0.486
 1152SOL     OW15486   9.315   5.292   5.748
 1152SOL    HW115487   9.323   5.390   5.767
 1152SOL    HW215488   9.302   5.243   5.834
 1153SOL     OW15489   7.716   3.629   6.393
 1153SOL    HW115490   7.676   3.549   6.438
 1153SOL    HW215491   7.780   3.600   6.323
 1154SOL     OW15492   4.726   5.831   0.231
 1154SOL    HW115493   4.656   5.885   0.184
 1154SOL    HW215494   4.795   5.892   0.270
 1155SOL     OW15495   6.619   1.528   0.153
 1155SOL    HW115496   6.560   1.486   0.223
 1155SOL    HW215497   6.661   1.457   0.097
 1156SOL     OW15498   4.405   7.828   5.743
 1156SOL    HW115499   4.490   7.818   5.692
 1156SOL    HW215500   4.356   7.741   5.742
 1157SOL     OW15501   2.484   5.395   5.866
 1157SOL    HW115502   2.454   5.480   5.910
 1157SOL    HW215503   2.580   5.404   5.840
 1158SOL     OW15504   2.729   3.569   6.540
 1158SOL    HW115505   2.648   3.608   6.585
 1158SOL    HW215506   2.734   3.602   6.446
 1159SOL     OW15507   0.756   5.687   6.214
 1159SOL    HW115508   0.854   5.700   6.202
 1159SOL    HW215509   0.740   5.618   6.285
 1160SOL     OW15510   3.039   1.720   1.768
 1160SOL    HW115511   3.013   1.816   1.759
 1160SOL    HW215512   3.126   1.704   1.721
 1161SOL     OW15513   7.074   1.089   0.136
 1161SOL    HW115514   7.129   1.169   0.160
 1161SOL    HW215515   7.133   1.021   0.091
 1162SOL     OW15516   9.416   5.695   0.503
 1162SOL    HW115517   9.403   5.597   0.519
 1162SOL    HW215518   9.342   5.746   0.545
 1163SOL     OW15519   0.643   6.276   5.024
 1163SOL    HW115520   0.700   6.260   5.104
 1163SOL    HW215521   0.695   6.257   4.941
 1164SOL     OW15522   2.413   4.388   1.211
 1164SOL    HW115523   2.497   4.414   1.162
 1164SOL    HW215524   2.434   4.318   1.279
 1165SOL     OW15525   8.918   5.257   6.684
 1165SOL    HW115526   8.895   5.297   6.595
 1165SOL    HW215527   8.849   5.282   6.751
 1166SOL     OW15528   4.740   6.095   6.151
 1166SOL    HW115529   4.774   6.081   6.058
 1166SOL    HW215530   4.713   6.008   6.191
 1167SOL     OW15531   5.642   7.541   0.115
 1167SOL    HW115532   5.589   7.525   0.031
 1167SOL    HW215533   5.580   7.538   0.194
 1168SOL     OW15534   0.522   0.008   0.409
 1168SOL    HW115535   0.616  -0.002   0.442
 1168SOL    HW215536   0.467  -0.068   0.442
 1169SOL     OW15537   1.189   2.996   5.777
 1169SOL    HW115538   1.248   3.023   5.701
 1169SOL    HW215539   1.124   3.070   5.796
 1170SOL     OW15540   8.745   7.513   6.051
 1170SOL    HW115541   8.735   7.507   6.151
 1170SOL    HW215542   8.798   7.594   6.028
 1171SOL     OW15543   1.532   6.648   5.551
 1171SOL    HW115544   1.495   6.730   5.507
 1171SOL    HW215545   1.525   6.658   5.650
 1172SOL     OW15546   0.946   7.174   6.351
 1172SOL    HW115547   0.856   7.150   6.387
 1172SOL    HW215548   0.955   7.138   6.258
 1173SOL     OW15549   4.563   5.509   0.461
 1173SOL    HW115550   4.582   5.600   0.499
 1173SOL    HW215551   4.626   5.443   0.502
 1174SOL     OW15552   1.999   6.040   6.079
 1174SOL    HW115553   1.914   6.045   6.027
 1174SOL    HW215554   2.020   6.130   6.118
 1175SOL     OW15555   6.039   1.881   5.843
 1175SOL    HW115556   6.040   1.890   5.743
 1175SOL    HW215557   6.120   1.926   5.880
 1176SOL     OW15558   0.729   1.059   5.757
 1176SOL    HW115559   0.737   1.139   5.697
 1176SOL    HW215560   0.801   1.063   5.826
 1177SOL     OW15561   0.364   0.361   6.543
 1177SOL    HW115562   0.432   0.400   6.481
 1177SOL    HW215563   0.407   0.338   6.630
 1178SOL     OW15564   4.371   2.927   6.420
 1178SOL    HW115565   4.353   2.872   6.501
 1178SOL    HW215566   4.401   2.867   6.345
 1179SOL     OW15567   7.292   7.105   6.440
 1179SOL    HW115568   7.307   7.007   6.457
 1179SOL    HW215569   7.193   7.123   6.438
 1180SOL     OW15570   1.442   7.779   6.322
 1180SOL    HW115571   1.389   7.700   6.291
 1180SOL    HW215572   1.488   7.822   6.244
 1181SOL     OW15573   5.415   8.374   6.583
 1181SOL    HW115574   5.440   8.428   6.664
 1181SOL    HW215575   5.414   8.434   6.503
 1182SOL     OW15576   7.078   7.242   0.607
 1182SOL    HW115577   7.059   7.158   0.557
 1182SOL    HW215578   7.020   7.316   0.572
 1183SOL     OW15579   6.560   4.468   5.882
 1183SOL    HW115580   6.645   4.423   5.910
 1183SOL    HW215581   6.573   4.567   5.880
 1184SOL     OW15582   0.510   6.970   5.731
 1184SOL    HW115583   0.519   6.909   5.652
 1184SOL    HW215584   0.571   6.937   5.804
 1185SOL     OW15585   0.532   7.715   0.261
 1185SOL    HW115586   0.631   7.706   0.249
 1185SOL    HW215587   0.505   7.810   0.246
 1186SOL     OW15588   8.625   7.823   0.301
 1186SOL    HW115589   8.587   7.732   0.321
 1186SOL    HW215590   8.724   7.820   0.307
 1187SOL     OW15591   8.319   7.054   1.663
 1187SOL    HW115592   8.231   7.099   1.645
 1187SOL    HW215593   8.351   7.080   1.754
 1188SOL     OW15594   4.623   6.152   1.355
 1188SOL    HW115595   4.587   6.094   1.281
 1188SOL    HW215596   4.608   6.248   1.331
 1189SOL     OW15597   2.473   0.835   6.135
 1189SOL    HW115598   2.471   0.735   6.136
 1189SOL    HW215599   2.541   0.868   6.200
 1190SOL     OW15600   3.948   0.473   6.676
 1190SOL    HW115601   3.964   0.397   6.739
 1190SOL    HW215602   4.030   0.487   6.620
 1191SOL     OW15603   5.246   6.679   0.881
 1191SOL    HW115604   5.215   6.692   0.975
 1191SOL    HW215605   5.210   6.753   0.824
 1192SOL     OW15606   7.606   8.190   0.459
 1192SOL    HW115607   7.696   8.147   0.446
 1192SOL    HW215608   7.619   8.286   0.486
 1193SOL     OW15609   2.201   4.392   1.040
 1193SOL    HW115610   2.125   4.383   1.104
 1193SOL    HW215611   2.287   4.395   1.090
 1194SOL     OW15612   3.895   7.868   0.419
 1194SOL    HW115613   3.930   7.793   0.474
 1194SOL    HW215614   3.814   7.907   0.463
 1195SOL     OW15615   6.095   1.994   0.491
 1195SOL    HW115616   6.037   1.986   0.410
 1195SOL    HW215617   6.162   1.920   0.491
 1196SOL     OW15618   1.121   2.230   6.048
 1196SOL    HW115619   1.179   2.299   6.005
 1196SOL    HW215620   1.026   2.263   6.051
 1197SOL     OW15621   6.324   6.160   6.347
 1197SOL    HW115622   6.367   6.090   6.404
 1197SOL    HW215623   6.354   6.251   6.377
 1198SOL     OW15624   4.178   4.012   1.928
 1198SOL    HW115625   4.185   3.933   1.988
 1198SOL    HW215626   4.267   4.057   1.922
 1199SOL     OW15627   0.038   0.584   0.098
 1199SOL    HW115628   0.017   0.678   0.069
 1199SOL    HW215629   0.069   0.531   0.020
 1200SOL     OW15630   7.751   5.871   5.110
 1200SOL    HW115631   7.821   5.915   5.054
 1200SOL    HW215632   7.680   5.938   5.132
 1201SOL     OW15633   8.658   7.439   1.270
 1201SOL    HW115634   8.711   7.414   1.351
 1201SOL    HW215635   8.565   7.403   1.280
 1202SOL     OW15636   9.065   6.597   0.604
 1202SOL    HW115637   8.976   6.551   0.603
 1202SOL    HW215638   9.052   6.696   0.614
 1203SOL     OW15639   5.042   7.710   1.164
 1203SOL    HW115640   4.983   7.673   1.093
 1203SOL    HW215641   5.103   7.638   1.198
 1204SOL     OW15642   8.510   6.294   4.762
 1204SOL    HW115643   8.447   6.317   4.687
 1204SOL    HW215644   8.594   6.256   4.724
 1205SOL     OW15645   4.632   4.344   0.038
 1205SOL    HW115646   4.730   4.334   0.024
 1205SOL    HW215647   4.606   4.298   0.123
 1206SOL     OW15648   7.534   4.917   1.220
 1206SOL    HW115649   7.589   4.866   1.286
 1206SOL    HW215650   7.595   4.970   1.160
 1207SOL     OW15651   5.728   5.478   0.694
 1207SOL    HW115652   5.642   5.501   0.739
 1207SOL    HW215653   5.763   5.392   0.732
 1208SOL     OW15654   3.414   3.189   0.547
 1208SOL    HW115655   3.341   3.242   0.504
 1208SOL    HW215656   3.443   3.234   0.631
 1209SOL     OW15657   2.585   5.290   5.580
 1209SOL    HW115658   2.681   5.265   5.568
 1209SOL    HW215659   2.553   5.257   5.669
 1210SOL     OW15660   0.079   6.860   3.959
 1210SOL    HW115661   0.040   6.812   3.880
 1210SOL    HW215662   0.009   6.916   4.003
 1211SOL     OW15663   2.325   8.383   1.020
 1211SOL    HW115664   2.286   8.306   1.070
 1211SOL    HW215665   2.404   8.351   0.966
 1212SOL     OW15666   6.705   1.112   1.201
 1212SOL    HW115667   6.728   1.020   1.232
 1212SOL    HW215668   6.779   1.175   1.223
 1213SOL     OW15669   7.711   3.177   1.117
 1213SOL    HW115670   7.785   3.141   1.062
 1213SOL    HW215671   7.714   3.136   1.209
 1214SOL     OW15672   4.526   1.259   6.165
 1214SOL    HW115673   4.548   1.263   6.262
 1214SOL    HW215674   4.610   1.240   6.113
 1215SOL     OW15675   6.772   7.003   6.215
 1215SOL    HW115676   6.756   6.917   6.166
 1215SOL    HW215677   6.813   7.070   6.152
 1216SOL     OW15678   6.818   2.785   6.477
 1216SOL    HW115679   6.884   2.830   6.537
 1216SOL    HW215680   6.811   2.689   6.502
 1217SOL     OW15681   9.000   6.636   0.261
 1217SOL    HW115682   8.953   6.682   0.186
 1217SOL    HW215683   9.097   6.628   0.241
 1218SOL     OW15684   4.173   7.053   1.452
 1218SOL    HW115685   4.229   6.970   1.449
 1218SOL    HW215686   4.117   7.059   1.369
 1219SOL     OW15687   2.851   1.004   0.954
 1219SOL    HW115688   2.812   0.965   0.871
 1219SOL    HW215689   2.786   1.068   0.995
 1220SOL     OW15690   3.751   3.224   5.964
 1220SOL    HW115691   3.668   3.170   5.949
 1220SOL    HW215692   3.826   3.187   5.910
 1221SOL     OW15693   5.416   4.432   5.837
 1221SOL    HW115694   5.376   4.341   5.825
 1221SOL    HW215695   5.432   4.473   5.748
 1222SOL     OW15696   5.178   7.707   0.694
 1222SOL    HW115697   5.140   7.703   0.601
 1222SOL    HW215698   5.254   7.772   0.695
 1223SOL     OW15699   5.592   6.233   1.333
 1223SOL    HW115700   5.529   6.248   1.258
 1223SOL    HW215701   5.678   6.196   1.297
 1224SOL     OW15702   4.791   0.935   1.223
 1224SOL    HW115703   4.709   0.878   1.231
 1224SOL    HW215704   4.868   0.877   1.195
 1225SOL     OW15705   0.089   8.201   6.710
 1225SOL    HW115706   0.011   8.170   6.764
 1225SOL    HW215707   0.162   8.231   6.771
 1226SOL     OW15708   4.508   0.252   5.989
 1226SOL    HW115709   4.522   0.274   5.892
 1226SOL    HW215710   4.464   0.162   5.996
 1227SOL     OW15711   9.182   4.714   5.470
 1227SOL    HW115712   9.187   4.676   5.377
 1227SOL    HW215713   9.274   4.736   5.501
 1228SOL     OW15714   4.668   1.597   1.933
 1228SOL    HW115715   4.708   1.686   1.954
 1228SOL    HW215716   4.740   1.529   1.925
 1229SOL     OW15717   0.583   7.710   5.587
 1229SOL    HW115718   0.593   7.627   5.533
 1229SOL    HW215719   0.498   7.705   5.640
 1230SOL     OW15720   0.114   0.294   0.687
 1230SOL    HW115721   0.175   0.303   0.766
 1230SOL    HW215722   0.169   0.291   0.604
 1231SOL     OW15723   8.488   1.044   5.255
 1231SOL    HW115724   8.540   0.959   5.264
 1231SOL    HW215725   8.445   1.047   5.165
 1232SOL     OW15726   6.770   5.031   5.650
 1232SOL    HW115727   6.792   4.959   5.584
 1232SOL    HW215728   6.810   5.117   5.620
 1233SOL     OW15729   1.161   1.312   5.803
 1233SOL    HW115730   1.093   1.296   5.875
 1233SOL    HW215731   1.247   1.267   5.828
 1234SOL     OW15732   2.918   0.683   1.622
 1234SOL    HW115733   2.908   0.706   1.719
 1234SOL    HW215734   3.008   0.642   1.607
 1235SOL     OW15735   7.274   2.522   6.716
 1235SOL    HW115736   7.299   2.504   6.811
 1235SOL    HW215737   7.316   2.453   6.657
 1236SOL     OW15738   5.156   5.073   5.893
 1236SOL    HW115739   5.130   5.134   5.819
 1236SOL    HW215740   5.256   5.066   5.898
 1237SOL     OW15741   1.228   3.273   0.316
 1237SOL    HW115742   1.261   3.191   0.268
 1237SOL    HW215743   1.304   3.316   0.365
 1238SOL     OW15744   2.381   1.652   6.488
 1238SOL    HW115745   2.307   1.645   6.421
 1238SOL    HW215746   2.418   1.745   6.489
 1239SOL     OW15747   8.905   5.226   5.386
 1239SOL    HW115748   8.841   5.235   5.309
 1239SOL    HW215749   8.854   5.235   5.472
 1240SOL     OW15750   9.129   6.926   5.306
 1240SOL    HW115751   9.221   6.914   5.269
 1240SOL    HW215752   9.111   6.855   5.375
 1241SOL     OW15753   1.757   6.312   0.397
 1241SOL    HW115754   1.828   6.350   0.457
 1241SOL    HW215755   1.800   6.265   0.321
 1242SOL     OW15756   5.602   0.492   4.864
 1242SOL    HW115757   5.664   0.542   4.803
 1242SOL    HW215758   5.536   0.441   4.809
 1243SOL     OW15759   8.649   7.703   0.957
 1243SOL    HW115760   8.627   7.695   1.054
 1243SOL    HW215761   8.566   7.723   0.905
 1244SOL     OW15762   2.877   0.739   6.213
 1244SOL    HW115763   2.832   0.676   6.151
 1244SOL    HW215764   2.809   0.800   6.255
 1245SOL     OW15765   9.195   8.365   5.504
 1245SOL    HW115766   9.164   8.291   5.443
 1245SOL    HW215767   9.123   8.384   5.572
 1246SOL     OW15768   8.348   2.395   6.256
 1246SOL    HW115769   8.387   2.313   6.214
 1246SOL    HW215770   8.269   2.370   6.312
 1247SOL     OW15771   0.623   1.366   1.234
 1247SOL    HW115772   0.560   1.316   1.292
 1247SOL    HW215773   0.572   1.421   1.168
 1248SOL     OW15774   6.078   5.840   0.792
 1248SOL    HW115775   6.165   5.794   0.808
 1248SOL    HW215776   6.096   5.931   0.754
 1249SOL     OW15777   6.248   0.139   0.252
 1249SOL    HW115778   6.171   0.176   0.304
 1249SOL    HW215779   6.330   0.193   0.271
 1250SOL     OW15780   7.579   0.923   6.070
 1250SOL    HW115781   7.595   0.968   5.981
 1250SOL    HW215782   7.492   0.874   6.067
 1251SOL     OW15783   0.016   1.659   0.862
 1251SOL    HW115784   0.108   1.669   0.902
 1251SOL    HW215785   0.012   1.708   0.775
 1252SOL     OW15786   3.846   2.683   0.898
 1252SOL    HW115787   3.819   2.609   0.960
 1252SOL    HW215788   3.781   2.689   0.822
 1253SOL     OW15789   7.845   3.604   0.382
 1253SOL    HW115790   7.773   3.642   0.324
 1253SOL    HW215791   7.916   3.673   0.396
 1254SOL     OW15792   4.710   5.835   6.298
 1254SOL    HW115793   4.777   5.829   6.372
 1254SOL    HW215794   4.625   5.793   6.328
 1255SOL     OW15795   4.056   8.294   1.311
 1255SOL    HW115796   4.087   8.316   1.403
 1255SOL    HW215797   3.985   8.358   1.283
 1256SOL     OW15798   8.442   1.824   5.692
 1256SOL    HW115799   8.452   1.760   5.615
 1256SOL    HW215800   8.351   1.866   5.689
 1257SOL     OW15801   8.297   0.469   5.526
 1257SOL    HW115802   8.370   0.519   5.572
 1257SOL    HW215803   8.305   0.482   5.427
 1258SOL     OW15804   8.070   4.606   5.766
 1258SOL    HW115805   8.085   4.529   5.705
 1258SOL    HW215806   8.145   4.613   5.831
 1259SOL     OW15807   1.820   5.570   5.609
 1259SOL    HW115808   1.787   5.479   5.634
 1259SOL    HW215809   1.811   5.584   5.511
 1260SOL     OW15810   7.384   6.140   0.893
 1260SOL    HW115811   7.372   6.227   0.941
 1260SOL    HW215812   7.295   6.097   0.880
 1261SOL     OW15813   4.364   2.157   1.720
 1261SOL    HW115814   4.408   2.085   1.774
 1261SOL    HW215815   4.433   2.208   1.670
 1262SOL     OW15816   3.602   2.032   2.234
 1262SOL    HW115817   3.563   1.948   2.195
 1262SOL    HW215818   3.640   2.012   2.325
 1263SOL     OW15819   1.298   0.247   5.382
 1263SOL    HW115820   1.253   0.158   5.375
 1263SOL    HW215821   1.237   0.310   5.430
 1264SOL     OW15822   3.291   7.633   1.044
 1264SOL    HW115823   3.383   7.595   1.039
 1264SOL    HW215824   3.241   7.611   0.961
 1265SOL     OW15825   1.984   7.624   0.483
 1265SOL    HW115826   2.015   7.535   0.449
 1265SOL    HW215827   1.993   7.692   0.411
 1266SOL     OW15828   4.773   1.355   0.998
 1266SOL    HW115829   4.849   1.415   0.976
 1266SOL    HW215830   4.777   1.329   1.095
 1267SOL     OW15831   7.774   0.761   6.215
 1267SOL    HW115832   7.700   0.807   6.166
 1267SOL    HW215833   7.802   0.679   6.164
 1268SOL     OW15834   1.767   5.028   1.195
 1268SOL    HW115835   1.749   5.069   1.106
 1268SOL    HW215836   1.755   4.929   1.189
 1269SOL     OW15837   5.967   2.303   1.404
 1269SOL    HW115838   6.030   2.364   1.452
 1269SOL    HW215839   5.878   2.347   1.394
 1270SOL     OW15840   9.123   0.619   0.130
 1270SOL    HW115841   9.172   0.694   0.174
 1270SOL    HW215842   9.187   0.547   0.104
 1271SOL     OW15843   0.601   5.952   5.903
 1271SOL    HW115844   0.547   6.034   5.923
 1271SOL    HW215845   0.541   5.873   5.893
 1272SOL     OW15846   6.223   2.058   0.795
 1272SOL    HW115847   6.123   2.063   0.788
 1272SOL    HW215848   6.263   2.081   0.706
 1273SOL     OW15849   2.438   1.832   0.095
 1273SOL    HW115850   2.515   1.894   0.108
 1273SOL    HW215851   2.469   1.737   0.103
 1274SOL     OW15852   4.395   3.334   5.996
 1274SOL    HW115853   4.403   3.378   5.907
 1274SOL    HW215854   4.330   3.385   6.053
 1275SOL     OW15855   5.875   6.265   6.447
 1275SOL    HW115856   5.925   6.351   6.446
 1275SOL    HW215857   5.853   6.237   6.354
 1276SOL     OW15858   6.195   7.475   0.963
 1276SOL    HW115859   6.103   7.435   0.961
 1276SOL    HW215860   6.235   7.470   0.872
 1277SOL     OW15861   1.198   5.864   0.478
 1277SOL    HW115862   1.211   5.949   0.427
 1277SOL    HW215863   1.145   5.883   0.561
 1278SOL     OW15864   8.309   4.570   5.869
 1278SOL    HW115865   8.354   4.642   5.923
 1278SOL    HW215866   8.379   4.518   5.820
 1279SOL     OW15867   1.520   3.603   5.970
 1279SOL    HW115868   1.477   3.651   5.893
 1279SOL    HW215869   1.618   3.619   5.968
 1280SOL     OW15870   2.475   0.297   1.612
 1280SOL    HW115871   2.528   0.219   1.579
 1280SOL    HW215872   2.411   0.267   1.683
 1281SOL     OW15873   4.058   7.346   6.463
 1281SOL    HW115874   4.001   7.411   6.414
 1281SOL    HW215875   4.085   7.271   6.402
 1282SOL     OW15876   1.292   6.335   6.571
 1282SOL    HW115877   1.223   6.392   6.526
 1282SOL    HW215878   1.288   6.349   6.670
 1283SOL     OW15879   6.980   6.069   5.382
 1283SOL    HW115880   7.044   6.069   5.304
 1283SOL    HW215881   6.899   6.015   5.359
 1284SOL     OW15882   7.368   7.847   6.055
 1284SOL    HW115883   7.410   7.936   6.036
 1284SOL    HW215884   7.326   7.811   5.972
 1285SOL     OW15885   4.554   1.273   5.580
 1285SOL    HW115886   4.534   1.352   5.523
 1285SOL    HW215887   4.472   1.217   5.591
 1286SOL     OW15888   2.209   0.375   2.015
 1286SOL    HW115889   2.141   0.389   2.087
 1286SOL    HW215890   2.212   0.456   1.956
 1287SOL     OW15891   9.238   7.977   0.367
 1287SOL    HW115892   9.296   8.014   0.440
 1287SOL    HW215893   9.269   7.886   0.343
 1288SOL     OW15894   6.356   2.049   1.049
 1288SOL    HW115895   6.300   2.047   0.967
 1288SOL    HW215896   6.389   2.143   1.065
 1289SOL     OW15897   8.300   6.482   1.631
 1289SOL    HW115898   8.217   6.435   1.663
 1289SOL    HW215899   8.365   6.487   1.706
 1290SOL     OW15900   5.886   3.536   6.262
 1290SOL    HW115901   5.977   3.497   6.255
 1290SOL    HW215902   5.830   3.503   6.186
 1291SOL     OW15903   2.902   3.985   6.104
 1291SOL    HW115904   2.981   3.991   6.043
 1291SOL    HW215905   2.856   4.074   6.108
 1292SOL     OW15906   6.292   4.405   1.343
 1292SOL    HW115907   6.208   4.361   1.373
 1292SOL    HW215908   6.350   4.423   1.423
 1293SOL     OW15909   5.357   0.073   6.395
 1293SOL    HW115910   5.373   0.165   6.430
 1293SOL    HW215911   5.309   0.077   6.308
 1294SOL     OW15912   8.455   5.737   6.428
 1294SOL    HW115913   8.433   5.805   6.358
 1294SOL    HW215914   8.422   5.769   6.517
 1295SOL     OW15915   5.737   0.193   1.343
 1295SOL    HW115916   5.770   0.101   1.363
 1295SOL    HW215917   5.804   0.241   1.287
 1296SOL     OW15918   0.281   7.339   0.044
 1296SOL    HW115919   0.328   7.250   0.040
 1296SOL    HW215920   0.267   7.373  -0.049
 1297SOL     OW15921   9.255   7.714   0.321
 1297SOL    HW115922   9.310   7.646   0.369
 1297SOL    HW215923   9.212   7.672   0.241
 1298SOL     OW15924   3.845   6.596   5.883
 1298SOL    HW115925   3.823   6.635   5.973
 1298SOL    HW215926   3.938   6.621   5.858
 1299SOL     OW15927   2.470   7.306   5.758
 1299SOL    HW115928   2.398   7.324   5.825
 1299SOL    HW215929   2.480   7.385   5.697
 1300SOL     OW15930   8.075   3.991   6.354
 1300SOL    HW115931   8.127   3.954   6.431
 1300SOL    HW215932   7.980   3.958   6.360
 1301SOL     OW15933   0.742   8.221   4.985
 1301SOL    HW115934   0.697   8.305   4.954
 1301SOL    HW215935   0.674   8.161   5.027
 1302SOL     OW15936   3.324   1.596   5.924
 1302SOL    HW115937   3.381   1.523   5.885
 1302SOL    HW215938   3.304   1.664   5.853
 1303SOL     OW15939   7.815   7.721   0.192
 1303SOL    HW115940   7.910   7.741   0.214
 1303SOL    HW215941   7.780   7.652   0.255
 1304SOL     OW15942   4.643   1.550   0.595
 1304SOL    HW115943   4.573   1.507   0.653
 1304SOL    HW215944   4.724   1.492   0.591
 1305SOL     OW15945   1.878   3.024   0.838
 1305SOL    HW115946   1.907   3.012   0.933
 1305SOL    HW215947   1.805   2.960   0.817
 1306SOL     OW15948   0.193   0.326   0.974
 1306SOL    HW115949   0.152   0.405   1.019
 1306SOL    HW215950   0.143   0.244   0.999
 1307SOL     OW15951   7.199   6.754   6.141
 1307SOL    HW115952   7.131   6.815   6.100
 1307SOL    HW215953   7.181   6.660   6.112
 1308SOL     OW15954   7.548   0.199   1.072
 1308SOL    HW115955   7.553   0.262   1.149
 1308SOL    HW215956   7.632   0.145   1.068
 1309SOL     OW15957   7.176   3.763   1.116
 1309SOL    HW115958   7.079   3.743   1.117
 1309SOL    HW215959   7.203   3.806   1.202
 1310SOL     OW15960   1.020   3.111   6.007
 1310SOL    HW115961   0.951   3.052   6.049
 1310SOL    HW215962   1.036   3.191   6.066
 1311SOL     OW15963   8.589   3.094   5.420
 1311SOL    HW115964   8.520   3.070   5.489
 1311SOL    HW215965   8.566   3.051   5.333
 1312SOL     OW15966   2.286   6.131   5.703
 1312SOL    HW115967   2.221   6.057   5.720
 1312SOL    HW215968   2.335   6.113   5.618
 1313SOL     OW15969   4.081   8.427   0.935
 1313SOL    HW115970   4.012   8.396   0.999
 1313SOL    HW215971   4.037   8.466   0.854
 1314SOL     OW15972   5.144   0.740   0.762
 1314SOL    HW115973   5.082   0.734   0.684
 1314SOL    HW215974   5.234   0.706   0.736
 1315SOL     OW15975   4.921   7.002   6.656
 1315SOL    HW115976   4.987   7.037   6.723
 1315SOL    HW215977   4.830   6.996   6.699
 1316SOL     OW15978   2.761   6.210   5.898
 1316SOL    HW115979   2.682   6.149   5.908
 1316SOL    HW215980   2.733   6.303   5.921
 1317SOL     OW15981   6.331   5.029   6.637
 1317SOL    HW115982   6.247   4.983   6.608
 1317SOL    HW215983   6.343   5.114   6.585
 1318SOL     OW15984   9.199   5.679   6.620
 1318SOL    HW115985   9.110   5.723   6.632
 1318SOL    HW215986   9.272   5.745   6.637
 1319SOL     OW15987   5.025   7.914   6.482
 1319SOL    HW115988   5.081   7.832   6.467
 1319SOL    HW215989   5.080   7.995   6.463
 1320SOL     OW15990   7.907   3.864   0.070
 1320SOL    HW115991   7.847   3.929   0.024
 1320SOL    HW215992   7.956   3.911   0.143
 1321SOL     OW15993   5.088   3.057   0.384
 1321SOL    HW115994   5.006   3.022   0.340
 1321SOL    HW215995   5.161   3.068   0.316
 1322SOL     OW15996   9.152   3.289   1.547
 1322SOL    HW115997   9.214   3.237   1.607
 1322SOL    HW215998   9.109   3.228   1.481
 1323SOL     OW15999   4.852   1.027   6.253
 1323SOL    HW116000   4.868   0.952   6.316
 1323SOL    HW216001   4.926   1.031   6.186
 1324SOL     OW16002   5.750   0.097   2.065
 1324SOL    HW116003   5.800   0.163   2.120
 1324SOL    HW216004   5.755   0.007   2.108
 1325SOL     OW16005   7.959   4.142   0.411
 1325SOL    HW116006   7.995   4.233   0.394
 1325SOL    HW216007   8.014   4.074   0.363
 1326SOL     OW16008   4.544   1.371   0.279
 1326SOL    HW116009   4.509   1.464   0.290
 1326SOL    HW216010   4.644   1.374   0.270
 1327SOL     OW16011   1.700   8.240   0.799
 1327SOL    HW116012   1.653   8.304   0.738
 1327SOL    HW216013   1.777   8.286   0.842
 1328SOL     OW16014   2.921   5.243   6.257
 1328SOL    HW116015   2.852   5.313   6.243
 1328SOL    HW216016   2.923   5.217   6.354
 1329SOL     OW16017   9.064   1.560   1.257
 1329SOL    HW116018   9.000   1.570   1.180
 1329SOL    HW216019   9.018   1.583   1.342
 1330SOL     OW16020   6.595   2.822   5.708
 1330SOL    HW116021   6.654   2.753   5.751
 1330SOL    HW216022   6.648   2.905   5.693
 1331SOL     OW16023   4.660   6.917   1.876
 1331SOL    HW116024   4.647   6.821   1.899
 1331SOL    HW216025   4.641   6.974   1.956
 1332SOL     OW16026   1.407   3.654   6.584
 1332SOL    HW116027   1.364   3.615   6.665
 1332SOL    HW216028   1.427   3.582   6.518
 1333SOL     OW16029   7.951   1.168   6.717
 1333SOL    HW116030   8.042   1.126   6.707
 1333SOL    HW216031   7.930   1.180   6.814
 1334SOL     OW16032   9.127   1.987   5.996
 1334SOL    HW116033   9.181   2.000   6.079
 1334SOL    HW216034   9.033   2.019   6.012
 1335SOL     OW16035   4.113   6.491   6.218
 1335SOL    HW116036   4.097   6.586   6.242
 1335SOL    HW216037   4.049   6.463   6.146
 1336SOL     OW16038   4.927   4.954   5.421
 1336SOL    HW116039   4.962   4.860   5.418
 1336SOL    HW216040   4.953   5.003   5.338
 1337SOL     OW16041   5.290   7.486   5.731
 1337SOL    HW116042   5.295   7.456   5.636
 1337SOL    HW216043   5.318   7.411   5.791
 1338SOL     OW16044   3.781   1.576   0.054
 1338SOL    HW116045   3.871   1.595   0.015
 1338SOL    HW216046   3.772   1.477   0.069
 1339SOL     OW16047   7.289   6.598   1.509
 1339SOL    HW116048   7.286   6.614   1.608
 1339SOL    HW216049   7.308   6.684   1.462
 1340SOL     OW16050   5.981   3.927   6.547
 1340SOL    HW116051   5.890   3.908   6.509
 1340SOL    HW216052   6.011   3.849   6.601
 1341SOL     OW16053   1.189   6.085   6.473
 1341SOL    HW116054   1.230   6.171   6.503
 1341SOL    HW216055   1.091   6.087   6.491
 1342SOL     OW16056   7.195   5.454   6.201
 1342SOL    HW116057   7.273   5.510   6.173
 1342SOL    HW216058   7.111   5.509   6.196
 1343SOL     OW16059   3.518   3.356   1.490
 1343SOL    HW116060   3.519   3.430   1.556
 1343SOL    HW216061   3.526   3.268   1.538
 1344SOL     OW16062   5.397   0.452   1.215
 1344SOL    HW116063   5.304   0.415   1.223
 1344SOL    HW216064   5.394   0.536   1.160
 1345SOL     OW16065   2.116   1.679   0.593
 1345SOL    HW116066   2.129   1.602   0.655
 1345SOL    HW216067   2.019   1.692   0.574
 1346SOL     OW16068   6.004   5.402   5.296
 1346SOL    HW116069   6.023   5.347   5.378
 1346SOL    HW216070   5.962   5.344   5.227
 1347SOL     OW16071   3.750   3.878   0.624
 1347SOL    HW116072   3.791   3.855   0.535
 1347SOL    HW216073   3.677   3.944   0.610
 1348SOL     OW16074   3.983   7.638   0.185
 1348SOL    HW116075   4.000   7.575   0.261
 1348SOL    HW216076   4.045   7.716   0.193
 1349SOL     OW16077   0.466   1.988   5.886
 1349SOL    HW116078   0.488   2.085   5.898
 1349SOL    HW216079   0.433   1.973   5.792
 1350SOL     OW16080   9.352   2.105   5.806
 1350SOL    HW116081   9.284   2.040   5.840
 1350SOL    HW216082   9.342   2.116   5.707
 1351SOL     OW16083   2.281   6.628   0.404
 1351SOL    HW116084   2.223   6.691   0.352
 1351SOL    HW216085   2.326   6.678   0.478
 1352SOL     OW16086   5.846   6.237   6.700
 1352SOL    HW116087   5.856   6.241   6.601
 1352SOL    HW216088   5.825   6.328   6.735
 1353SOL     OW16089   2.162   4.286   0.185
 1353SOL    HW116090   2.250   4.275   0.139
 1353SOL    HW216091   2.161   4.227   0.266
 1354SOL     OW16092   9.268   1.630   6.431
 1354SOL    HW116093   9.305   1.639   6.523
 1354SOL    HW216094   9.235   1.536   6.417
 1355SOL     OW16095   3.256   4.821   0.041
 1355SOL    HW116096   3.209   4.801   0.127
 1355SOL    HW216097   3.329   4.887   0.058
 1356SOL     OW16098   5.673   6.981   0.204
 1356SOL    HW116099   5.619   6.920   0.263
 1356SOL    HW216100   5.640   6.974   0.110
 1357SOL     OW16101   2.919   5.518   0.749
 1357SOL    HW116102   2.985   5.567   0.804
 1357SOL    HW216103   2.831   5.516   0.797
 1358SOL     OW16104   8.518   1.917   6.141
 1358SOL    HW116105   8.551   1.839   6.194
 1358SOL    HW216106   8.498   1.888   6.047
 1359SOL     OW16107   6.623   2.447   0.327
 1359SOL    HW116108   6.600   2.517   0.394
 1359SOL    HW216109   6.615   2.356   0.369
 1360SOL     OW16110   1.573   3.994   6.661
 1360SOL    HW116111   1.622   3.909   6.641
 1360SOL    HW216112   1.509   3.979   6.736
 1361SOL     OW16113   5.377   0.811   0.650
 1361SOL    HW116114   5.305   0.866   0.607
 1361SOL    HW216115   5.418   0.862   0.725
 1362SOL     OW16116   4.602   6.293   6.657
 1362SOL    HW116117   4.654   6.322   6.737
 1362SOL    HW216118   4.638   6.338   6.576
 1363SOL     OW16119   2.127   1.682   1.153
 1363SOL    HW116120   2.112   1.705   1.249
 1363SOL    HW216121   2.149   1.765   1.102
 1364SOL     OW16122   8.110   5.691   6.282
 1364SOL    HW116123   8.133   5.676   6.186
 1364SOL    HW216124   8.026   5.745   6.289
 1365SOL     OW16125   1.047   5.488   5.687
 1365SOL    HW116126   0.948   5.498   5.675
 1365SOL    HW216127   1.086   5.577   5.712
 1366SOL     OW16128   6.508   4.746   0.367
 1366SOL    HW116129   6.487   4.838   0.402
 1366SOL    HW216130   6.555   4.753   0.279
 1367SOL     OW16131   0.124   2.834   0.272
 1367SOL    HW116132   0.158   2.797   0.185
 1367SOL    HW216133   0.152   2.775   0.347
 1368SOL     OW16134   3.684   1.224   0.837
 1368SOL    HW116135   3.656   1.303   0.783
 1368SOL    HW216136   3.732   1.158   0.778
 1369SOL     OW16137   6.258   6.179   5.726
 1369SOL    HW116138   6.337   6.228   5.762
 1369SOL    HW216139   6.201   6.147   5.801
 1370SOL     OW16140   3.640   2.627   1.997
 1370SOL    HW116141   3.568   2.671   2.050
 1370SOL    HW216142   3.725   2.626   2.050
 1371SOL     OW16143   5.598   6.347   5.138
 1371SOL    HW116144   5.574   6.257   5.175
 1371SOL    HW216145   5.647   6.334   5.051
 1372SOL     OW16146   4.037   1.218   0.270
 1372SOL    HW116147   3.959   1.186   0.216
 1372SOL    HW216148   4.039   1.168   0.357
 1373SOL     OW16149   8.675   1.616   6.466
 1373SOL    HW116150   8.659   1.642   6.371
 1373SOL    HW216151   8.606   1.550   6.495
 1374SOL     OW16152   0.464   7.919   5.842
 1374SOL    HW116153   0.543   7.980   5.835
 1374SOL    HW216154   0.391   7.965   5.894
 1375SOL     OW16155   8.437   1.812   0.116
 1375SOL    HW116156   8.348   1.825   0.074
 1375SOL    HW216157   8.476   1.901   0.140
 1376SOL     OW16158   1.745   3.366   0.579
 1376SOL    HW116159   1.803   3.284   0.585
 1376SOL    HW216160   1.752   3.405   0.487
 1377SOL     OW16161   4.350   0.737   5.713
 1377SOL    HW116162   4.254   0.722   5.691
 1377SOL    HW216163   4.358   0.770   5.808
 1378SOL     OW16164   9.331   2.617   0.165
 1378SOL    HW116165   9.249   2.613   0.222
 1378SOL    HW216166   9.328   2.542   0.098
 1379SOL     OW16167   1.591   3.977   6.184
 1379SOL    HW116168   1.637   3.996   6.097
 1379SOL    HW216169   1.631   3.895   6.226
 1380SOL     OW16170   5.967   0.418   0.329
 1380SOL    HW116171   5.954   0.434   0.231
 1380SOL    HW216172   6.027   0.488   0.367
 1381SOL     OW16173   2.227   5.129   1.482
 1381SOL    HW116174   2.154   5.062   1.496
 1381SOL    HW216175   2.300   5.113   1.548
 1382SOL     OW16176   3.081   6.566   5.125
 1382SOL    HW116177   3.035   6.555   5.037
 1382SOL    HW216178   3.162   6.623   5.114
 1383SOL     OW16179   0.073   0.936   0.676
 1383SOL    HW116180   0.150   0.937   0.739
 1383SOL    HW216181  -0.010   0.908   0.725
 1384SOL     OW16182   0.500   7.800   4.946
 1384SOL    HW116183   0.492   7.885   4.895
 1384SOL    HW216184   0.436   7.732   4.909
 1385SOL     OW16185   4.334   5.258   0.226
 1385SOL    HW116186   4.271   5.319   0.179
 1385SOL    HW216187   4.284   5.179   0.262
 1386SOL     OW16188   1.797   5.352   5.087
 1386SOL    HW116189   1.852   5.329   5.167
 1386SOL    HW216190   1.717   5.292   5.082
 1387SOL     OW16191   2.589   6.787   6.516
 1387SOL    HW116192   2.600   6.883   6.540
 1387SOL    HW216193   2.636   6.730   6.583
 1388SOL     OW16194   9.446   8.378   1.226
 1388SOL    HW116195   9.485   8.464   1.192
 1388SOL    HW216196   9.406   8.394   1.316
 1389SOL     OW16197   6.687   5.447   5.617
 1389SOL    HW116198   6.690   5.361   5.566
 1389SOL    HW216199   6.778   5.468   5.652
 1390SOL     OW16200   4.662   5.358   5.416
 1390SOL    HW116201   4.622   5.268   5.435
 1390SOL    HW216202   4.601   5.410   5.356
 1391SOL     OW16203   1.095   5.741   5.995
 1391SOL    HW116204   1.134   5.710   5.908
 1391SOL    HW216205   1.015   5.798   5.977
 1392SOL     OW16206   8.847   5.698   0.987
 1392SOL    HW116207   8.934   5.741   1.012
 1392SOL    HW216208   8.771   5.753   1.022
 1393SOL     OW16209   9.276   1.293   0.101
 1393SOL    HW116210   9.193   1.327   0.144
 1393SOL    HW216211   9.252   1.231   0.027
 1394SOL     OW16212   6.832   3.661   5.910
 1394SOL    HW116213   6.864   3.704   5.825
 1394SOL    HW216214   6.808   3.566   5.891
 1395SOL     OW16215   0.749   3.754   0.315
 1395SOL    HW116216   0.826   3.690   0.316
 1395SOL    HW216217   0.769   3.829   0.253
 1396SOL     OW16218   3.895   1.705   2.290
 1396SOL    HW116219   3.811   1.732   2.338
 1396SOL    HW216220   3.905   1.605   2.294
 1397SOL     OW16221   8.606   4.367   1.619
 1397SOL    HW116222   8.609   4.445   1.556
 1397SOL    HW216223   8.698   4.342   1.645
 1398SOL     OW16224   1.824   0.068   1.641
 1398SOL    HW116225   1.856  -0.026   1.632
 1398SOL    HW216226   1.902   0.129   1.656
 1399SOL     OW16227   2.379   1.753   6.187
 1399SOL    HW116228   2.289   1.732   6.149
 1399SOL    HW216229   2.435   1.797   6.116
 1400SOL     OW16230   1.110   1.069   0.670
 1400SOL    HW116231   1.183   1.130   0.701
 1400SOL    HW216232   1.127   1.041   0.575
 1401SOL     OW16233   5.238   4.084   6.425
 1401SOL    HW116234   5.278   4.111   6.512
 1401SOL    HW216235   5.207   4.165   6.375
 1402SOL     OW16236   4.103   1.233   5.405
 1402SOL    HW116237   4.191   1.188   5.424
 1402SOL    HW216238   4.103   1.324   5.445
 1403SOL     OW16239   1.881   0.418   5.915
 1403SOL    HW116240   1.793   0.413   5.868
 1403SOL    HW216241   1.955   0.414   5.849
 1404SOL     OW16242   7.910   7.111   6.292
 1404SOL    HW116243   7.965   7.028   6.278
 1404SOL    HW216244   7.949   7.164   6.367
 1405SOL     OW16245   8.723   2.967   0.055
 1405SOL    HW116246   8.639   3.005   0.015
 1405SOL    HW216247   8.802   2.999   0.002
 1406SOL     OW16248   0.225   3.511   6.092
 1406SOL    HW116249   0.211   3.565   6.175
 1406SOL    HW216250   0.290   3.557   6.032
 1407SOL     OW16251   5.991   0.466   4.773
 1407SOL    HW116252   6.014   0.558   4.805
 1407SOL    HW216253   5.896   0.464   4.743
 1408SOL     OW16254   7.495   3.417   0.969
 1408SOL    HW116255   7.567   3.457   1.027
 1408SOL    HW216256   7.496   3.317   0.979
 1409SOL     OW16257   3.642   6.773   0.852
 1409SOL    HW116258   3.559   6.751   0.902
 1409SOL    HW216259   3.720   6.728   0.895
 1410SOL     OW16260   7.781   8.112   5.796
 1410SOL    HW116261   7.811   8.063   5.878
 1410SOL    HW216262   7.834   8.196   5.785
 1411SOL     OW16263   3.150   5.219   1.958
 1411SOL    HW116264   3.232   5.169   1.931
 1411SOL    HW216265   3.168   5.317   1.958
 1412SOL     OW16266   2.394   0.579   0.763
 1412SOL    HW116267   2.301   0.546   0.747
 1412SOL    HW216268   2.394   0.679   0.765
 1413SOL     OW16269   3.416   7.720   0.547
 1413SOL    HW116270   3.445   7.805   0.589
 1413SOL    HW216271   3.463   7.643   0.590
 1414SOL     OW16272   5.351   3.154   0.809
 1414SOL    HW116273   5.338   3.239   0.860
 1414SOL    HW216274   5.443   3.118   0.827
 1415SOL     OW16275   7.570   7.377   5.588
 1415SOL    HW116276   7.632   7.394   5.664
 1415SOL    HW216277   7.605   7.301   5.533
 1416SOL     OW16278   1.497   5.629   6.521
 1416SOL    HW116279   1.573   5.599   6.463
 1416SOL    HW216280   1.514   5.723   6.551
 1417SOL     OW16281   2.779   4.007   0.492
 1417SOL    HW116282   2.775   3.990   0.394
 1417SOL    HW216283   2.875   4.005   0.522
 1418SOL     OW16284   6.764   3.949   1.179
 1418SOL    HW116285   6.715   4.036   1.173
 1418SOL    HW216286   6.751   3.898   1.094
 1419SOL     OW16287   5.897   1.557   0.196
 1419SOL    HW116288   5.872   1.476   0.143
 1419SOL    HW216289   5.843   1.635   0.164
 1420SOL     OW16290   8.359   3.740   0.996
 1420SOL    HW116291   8.407   3.803   0.935
 1420SOL    HW216292   8.274   3.710   0.952
 1421SOL     OW16293   0.474   6.654   4.970
 1421SOL    HW116294   0.515   6.619   5.054
 1421SOL    HW216295   0.480   6.584   4.898
 1422SOL     OW16296   8.494   7.874   0.616
 1422SOL    HW116297   8.518   7.845   0.523
 1422SOL    HW216298   8.418   7.938   0.611
 1423SOL     OW16299   0.876   5.233   0.148
 1423SOL    HW116300   0.958   5.284   0.121
 1423SOL    HW216301   0.799   5.261   0.092
 1424SOL     OW16302   4.392   7.442   6.370
 1424SOL    HW116303   4.321   7.408   6.308
 1424SOL    HW216304   4.378   7.540   6.386
 1425SOL     OW16305   7.470   2.784   1.442
 1425SOL    HW116306   7.520   2.860   1.482
 1425SOL    HW216307   7.374   2.789   1.470
 1426SOL     OW16308   5.035   7.487   6.000
 1426SOL    HW116309   5.133   7.498   6.016
 1426SOL    HW216310   5.018   7.397   5.959
 1427SOL     OW16311   0.222   2.649   0.462
 1427SOL    HW116312   0.162   2.573   0.490
 1427SOL    HW216313   0.317   2.618   0.461
 1428SOL     OW16314   4.391   5.527   1.557
 1428SOL    HW116315   4.462   5.562   1.495
 1428SOL    HW216316   4.420   5.540   1.651
 1429SOL     OW16317   6.597   8.160   0.701
 1429SOL    HW116318   6.575   8.165   0.603
 1429SOL    HW216319   6.646   8.075   0.720
 1430SOL     OW16320   8.404   0.913   6.640
 1430SOL    HW116321   8.481   0.922   6.703
 1430SOL    HW216322   8.387   0.816   6.623
 1431SOL     OW16323   0.049   7.128   5.947
 1431SOL    HW116324   0.073   7.058   6.015
 1431SOL    HW216325   0.123   7.138   5.881
 1432SOL     OW16326   1.522   1.296   5.688
 1432SOL    HW116327   1.457   1.282   5.613
 1432SOL    HW216328   1.572   1.211   5.704
 1433SOL     OW16329   4.066   1.758   5.913
 1433SOL    HW116330   4.014   1.779   5.830
 1433SOL    HW216331   4.136   1.690   5.892
 1434SOL     OW16332   3.125   1.851   6.559
 1434SOL    HW116333   3.068   1.813   6.486
 1434SOL    HW216334   3.066   1.888   6.631
 1435SOL     OW16335   3.747   1.294   0.530
 1435SOL    HW116336   3.708   1.371   0.581
 1435SOL    HW216337   3.844   1.284   0.553
 1436SOL     OW16338   3.405   6.199   5.133
 1436SOL    HW116339   3.481   6.242   5.182
 1436SOL    HW216340   3.430   6.189   5.037
 1437SOL     OW16341   9.337   2.232   5.546
 1437SOL    HW116342   9.363   2.241   5.450
 1437SOL    HW216343   9.412   2.264   5.604
 1438SOL     OW16344   5.448   1.698   0.657
 1438SOL    HW116345   5.367   1.650   0.624
 1438SOL    HW216346   5.526   1.675   0.598
 1439SOL     OW16347   0.756   7.844   6.140
 1439SOL    HW116348   0.734   7.816   6.234
 1439SOL    HW216349   0.818   7.922   6.142
 1440SOL     OW16350   2.857   6.617   0.862
 1440SOL    HW116351   2.940   6.673   0.867
 1440SOL    HW216352   2.803   6.646   0.783
 1441SOL     OW16353   5.747   1.409   1.681
 1441SOL    HW116354   5.740   1.341   1.755
 1441SOL    HW216355   5.663   1.410   1.628
 1442SOL     OW16356   0.430   6.307   6.136
 1442SOL    HW116357   0.375   6.323   6.218
 1442SOL    HW216358   0.410   6.216   6.099
 1443SOL     OW16359   3.310   8.175   6.164
 1443SOL    HW116360   3.346   8.140   6.078
 1443SOL    HW216361   3.253   8.105   6.207
 1444SOL     OW16362   5.092   3.520   5.827
 1444SOL    HW116363   5.110   3.581   5.749
 1444SOL    HW216364   5.176   3.472   5.852
 1445SOL     OW16365   1.274   0.853   4.497
 1445SOL    HW116366   1.200   0.915   4.526
 1445SOL    HW216367   1.361   0.902   4.498
 1446SOL     OW16368   3.901   2.851   1.093
 1446SOL    HW116369   3.976   2.915   1.080
 1446SOL    HW216370   3.877   2.809   1.006
 1447SOL     OW16371   7.338   5.463   5.440
 1447SOL    HW116372   7.325   5.396   5.367
 1447SOL    HW216373   7.406   5.531   5.413
 1448SOL     OW16374   5.023   5.815   5.139
 1448SOL    HW116375   4.992   5.772   5.054
 1448SOL    HW216376   5.025   5.914   5.127
 1449SOL     OW16377   6.469   4.933   1.509
 1449SOL    HW116378   6.375   4.911   1.484
 1449SOL    HW216379   6.474   4.956   1.606
 1450SOL     OW16380   8.046   5.651   0.521
 1450SOL    HW116381   8.053   5.614   0.429
 1450SOL    HW216382   7.997   5.738   0.519
 1451SOL     OW16383   2.633   5.167   1.336
 1451SOL    HW116384   2.661   5.139   1.244
 1451SOL    HW216385   2.568   5.101   1.373
 1452SOL     OW16386   2.569   3.926   6.275
 1452SOL    HW116387   2.471   3.922   6.254
 1452SOL    HW216388   2.599   4.021   6.274
 1453SOL     OW16389   5.807   4.938   0.306
 1453SOL    HW116390   5.837   4.914   0.398
 1453SOL    HW216391   5.769   5.030   0.306
 1454SOL     OW16392   0.442   5.515   6.458
 1454SOL    HW116393   0.541   5.497   6.461
 1454SOL    HW216394   0.426   5.608   6.425
 1455SOL     OW16395   3.977   2.717   1.358
 1455SOL    HW116396   4.019   2.773   1.430
 1455SOL    HW216397   3.924   2.776   1.297
 1456SOL     OW16398   4.517   7.411   0.732
 1456SOL    HW116399   4.612   7.400   0.761
 1456SOL    HW216400   4.487   7.328   0.685
 1457SOL     OW16401   4.594   1.881   0.319
 1457SOL    HW116402   4.536   1.953   0.357
 1457SOL    HW216403   4.658   1.849   0.390
 1458SOL     OW16404   3.817   4.485   0.265
 1458SOL    HW116405   3.890   4.470   0.198
 1458SOL    HW216406   3.855   4.530   0.346
 1459SOL     OW16407   4.243   5.843   0.916
 1459SOL    HW116408   4.236   5.924   0.857
 1459SOL    HW216409   4.247   5.761   0.859
 1460SOL     OW16410   5.351   6.702   6.513
 1460SOL    HW116411   5.445   6.689   6.480
 1460SOL    HW216412   5.348   6.686   6.612
 1461SOL     OW16413   4.107   8.390   1.588
 1461SOL    HW116414   4.039   8.436   1.645
 1461SOL    HW216415   4.189   8.371   1.642
 1462SOL     OW16416   3.369   2.682   6.632
 1462SOL    HW116417   3.312   2.600   6.643
 1462SOL    HW216418   3.424   2.695   6.714
 1463SOL     OW16419   9.120   7.137   5.536
 1463SOL    HW116420   9.155   7.101   5.449
 1463SOL    HW216421   9.144   7.234   5.543
 1464SOL     OW16422   3.999   1.648   0.277
 1464SOL    HW116423   4.057   1.632   0.197
 1464SOL    HW216424   3.907   1.672   0.248
 1465SOL     OW16425   3.865   6.496   5.539
 1465SOL    HW116426   3.947   6.502   5.482
 1465SOL    HW216427   3.806   6.422   5.506
 1466SOL     OW16428   4.976   0.661   6.168
 1466SOL    HW116429   5.069   0.694   6.187
 1466SOL    HW216430   4.972   0.624   6.075
 1467SOL     OW16431   1.585   0.394   6.547
 1467SOL    HW116432   1.547   0.482   6.577
 1467SOL    HW216433   1.677   0.384   6.586
 1468SOL     OW16434   5.162   7.727   5.791
 1468SOL    HW116435   5.159   7.723   5.891
 1468SOL    HW216436   5.220   7.653   5.756
 1469SOL     OW16437   6.682   4.567   0.942
 1469SOL    HW116438   6.631   4.482   0.953
 1469SOL    HW216439   6.779   4.551   0.958
 1470SOL     OW16440   6.657   0.784   6.177
 1470SOL    HW116441   6.596   0.738   6.241
 1470SOL    HW216442   6.603   0.832   6.108
 1471SOL     OW16443   1.375   6.891   4.109
 1471SOL    HW116444   1.342   6.824   4.042
 1471SOL    HW216445   1.452   6.942   4.070
 1472SOL     OW16446   7.501   1.193   5.344
 1472SOL    HW116447   7.507   1.259   5.418
 1472SOL    HW216448   7.435   1.225   5.276
 1473SOL     OW16449   0.237   0.870   5.683
 1473SOL    HW116450   0.152   0.818   5.687
 1473SOL    HW216451   0.287   0.858   5.769
 1474SOL     OW16452   8.342   5.102   5.175
 1474SOL    HW116453   8.251   5.135   5.152
 1474SOL    HW216454   8.397   5.096   5.091
 1475SOL     OW16455   0.255   5.784   1.164
 1475SOL    HW116456   0.349   5.785   1.199
 1475SOL    HW216457   0.205   5.862   1.200
 1476SOL     OW16458   5.418   4.619   6.071
 1476SOL    HW116459   5.492   4.656   6.127
 1476SOL    HW216460   5.457   4.564   5.997
 1477SOL     OW16461   3.777   0.318   6.406
 1477SOL    HW116462   3.777   0.218   6.403
 1477SOL    HW216463   3.743   0.349   6.495
 1478SOL     OW16464   4.056   7.096   5.932
 1478SOL    HW116465   4.077   7.081   5.835
 1478SOL    HW216466   4.124   7.158   5.971
 1479SOL     OW16467   5.099   5.779   6.676
 1479SOL    HW116468   5.192   5.769   6.638
 1479SOL    HW216469   5.054   5.690   6.676
 1480SOL     OW16470   2.625   5.425   6.170
 1480SOL    HW116471   2.575   5.461   6.249
 1480SOL    HW216472   2.662   5.500   6.117
 1481SOL     OW16473   4.571   8.418   6.503
 1481SOL    HW116474   4.669   8.428   6.488
 1481SOL    HW216475   4.523   8.494   6.458
 1482SOL     OW16476   1.912   7.012   5.865
 1482SOL    HW116477   1.891   7.098   5.912
 1482SOL    HW216478   1.966   7.030   5.783
 1483SOL     OW16479   3.676   8.102   6.048
 1483SOL    HW116480   3.717   8.192   6.033
 1483SOL    HW216481   3.653   8.091   6.144
 1484SOL     OW16482   6.682   7.167   5.771
 1484SOL    HW116483   6.677   7.077   5.729
 1484SOL    HW216484   6.725   7.231   5.708
 1485SOL     OW16485   6.730   5.392   0.541
 1485SOL    HW116486   6.769   5.302   0.563
 1485SOL    HW216487   6.670   5.384   0.462
 1486SOL     OW16488   4.023   2.463   1.393
 1486SOL    HW116489   4.098   2.458   1.327
 1486SOL    HW216490   3.989   2.557   1.397
 1487SOL     OW16491   0.483   6.611   0.268
 1487SOL    HW116492   0.484   6.541   0.197
 1487SOL    HW216493   0.561   6.672   0.256
 1488SOL     OW16494   6.973   5.524   1.404
 1488SOL    HW116495   6.987   5.577   1.487
 1488SOL    HW216496   7.054   5.469   1.385
 1489SOL     OW16497   1.849   4.322   6.692
 1489SOL    HW116498   1.932   4.278   6.659
 1489SOL    HW216499   1.845   4.416   6.659
 1490SOL     OW16500   0.454   0.679   0.531
 1490SOL    HW116501   0.416   0.665   0.440
 1490SOL    HW216502   0.401   0.629   0.599
 1491SOL     OW16503   4.479   4.622   0.666
 1491SOL    HW116504   4.507   4.529   0.643
 1491SOL    HW216505   4.400   4.648   0.612
 1492SOL     OW16506   5.501   3.893   5.824
 1492SOL    HW116507   5.563   3.836   5.877
 1492SOL    HW216508   5.409   3.890   5.865
 1493SOL     OW16509   4.210   1.192   0.054
 1493SOL    HW116510   4.181   1.228  -0.034
 1493SOL    HW216511   4.147   1.223   0.125
 1494SOL     OW16512   3.183   1.562   1.517
 1494SOL    HW116513   3.280   1.537   1.519
 1494SOL    HW216514   3.148   1.552   1.423
 1495SOL     OW16515   0.720   1.884   5.801
 1495SOL    HW116516   0.627   1.914   5.820
 1495SOL    HW216517   0.769   1.956   5.752
 1496SOL     OW16518   8.632   0.649   1.139
 1496SOL    HW116519   8.567   0.593   1.191
 1496SOL    HW216520   8.695   0.694   1.203
 1497SOL     OW16521   6.516   0.273   1.196
 1497SOL    HW116522   6.517   0.336   1.118
 1497SOL    HW216523   6.604   0.276   1.243
 1498SOL     OW16524   8.580   6.565   0.758
 1498SOL    HW116525   8.568   6.608   0.847
 1498SOL    HW216526   8.581   6.466   0.769
 1499SOL     OW16527   1.826   7.809   5.218
 1499SOL    HW116528   1.833   7.886   5.154
 1499SOL    HW216529   1.842   7.724   5.169
 1500SOL     OW16530   8.726   2.383   0.601
 1500SOL    HW116531   8.667   2.382   0.681
 1500SOL    HW216532   8.674   2.355   0.520
 1501SOL     OW16533   8.303   4.789   6.485
 1501SOL    HW116534   8.230   4.729   6.452
 1501SOL    HW216535   8.278   4.884   6.470
 1502SOL     OW16536   1.947   5.371   6.157
 1502SOL    HW116537   1.947   5.410   6.065
 1502SOL    HW216538   1.986   5.436   6.221
 1503SOL     OW16539   1.480   3.397   0.352
 1503SOL    HW116540   1.467   3.482   0.301
 1503SOL    HW216541   1.565   3.353   0.324
 1504SOL     OW16542   0.180   3.756   6.213
 1504SOL    HW116543   0.276   3.775   6.190
 1504SOL    HW216544   0.136   3.841   6.242
 1505SOL     OW16545   4.938   3.336   6.335
 1505SOL    HW116546   4.976   3.391   6.261
 1505SOL    HW216547   4.949   3.386   6.421
 1506SOL     OW16548   5.931   2.385   5.312
 1506SOL    HW116549   5.852   2.441   5.289
 1506SOL    HW216550   6.008   2.444   5.336
 1507SOL     OW16551   3.511   7.469   0.919
 1507SOL    HW116552   3.530   7.463   0.821
 1507SOL    HW216553   3.447   7.396   0.945
 1508SOL     OW16554   6.079   7.401   6.292
 1508SOL    HW116555   6.096   7.478   6.229
 1508SOL    HW216556   5.989   7.411   6.333
 1509SOL     OW16557   7.776   7.673   5.062
 1509SOL    HW116558   7.701   7.725   5.023
 1509SOL    HW216559   7.858   7.731   5.068
 1510SOL     OW16560   2.457   1.277   6.543
 1510SOL    HW116561   2.485   1.301   6.449
 1510SOL    HW216562   2.433   1.360   6.592
 1511SOL     OW16563   1.148   4.157   6.334
 1511SOL    HW116564   1.114   4.246   6.363
 1511SOL    HW216565   1.242   4.165   6.302
 1512SOL     OW16566   9.157   3.910   6.346
 1512SOL    HW116567   9.171   3.996   6.298
 1512SOL    HW216568   9.079   3.918   6.408
 1513SOL     OW16569   7.532   3.319   0.503
 1513SOL    HW116570   7.449   3.373   0.491
 1513SOL    HW216571   7.535   3.282   0.596
 1514SOL     OW16572   4.560   4.203   0.248
 1514SOL    HW116573   4.587   4.183   0.342
 1514SOL    HW216574   4.479   4.150   0.225
 1515SOL     OW16575   1.980   5.262   5.248
 1515SOL    HW116576   2.061   5.213   5.217
 1515SOL    HW216577   2.007   5.340   5.304
 1516SOL     OW16578   2.755   3.837   5.554
 1516SOL    HW116579   2.819   3.910   5.531
 1516SOL    HW216580   2.789   3.750   5.518
 1517SOL     OW16581   2.854   0.410   4.929
 1517SOL    HW116582   2.851   0.344   4.853
 1517SOL    HW216583   2.765   0.455   4.937
 1518SOL     OW16584   1.050   4.976   0.521
 1518SOL    HW116585   1.125   4.938   0.467
 1518SOL    HW216586   1.009   5.053   0.472
 1519SOL     OW16587   6.608   0.155   0.058
 1519SOL    HW116588   6.587   0.057   0.060
 1519SOL    HW216589   6.618   0.185  -0.037
 1520SOL     OW16590   1.043   6.298   1.014
 1520SOL    HW116591   1.089   6.228   0.959
 1520SOL    HW216592   0.986   6.355   0.955
 1521SOL     OW16593   7.369   8.064   0.577
 1521SOL    HW116594   7.460   8.105   0.565
 1521SOL    HW216595   7.351   8.000   0.502
 1522SOL     OW16596   0.059   2.858   0.562
 1522SOL    HW116597   0.128   2.791   0.536
 1522SOL    HW216598   0.101   2.948   0.573
 1523SOL     OW16599   8.926   7.696   5.580
 1523SOL    HW116600   8.865   7.619   5.563
 1523SOL    HW216601   8.963   7.691   5.672
 1524SOL     OW16602   0.558   6.584   5.225
 1524SOL    HW116603   0.465   6.590   5.262
 1524SOL    HW216604   0.612   6.519   5.279
 1525SOL     OW16605   1.018   5.376   6.695
 1525SOL    HW116606   1.042   5.294   6.643
 1525SOL    HW216607   1.003   5.452   6.632
 1526SOL     OW16608   4.449   7.202   5.833
 1526SOL    HW116609   4.422   7.297   5.815
 1526SOL    HW216610   4.480   7.194   5.928
 1527SOL     OW16611   4.429   4.063   1.677
 1527SOL    HW116612   4.452   4.014   1.593
 1527SOL    HW216613   4.510   4.069   1.736
 1528SOL     OW16614   1.326   6.077   5.890
 1528SOL    HW116615   1.356   6.171   5.907
 1528SOL    HW216616   1.241   6.059   5.940
 1529SOL     OW16617   0.696   5.651   0.047
 1529SOL    HW116618   0.757   5.708   0.101
 1529SOL    HW216619   0.602   5.663   0.079
 1530SOL     OW16620   1.127   4.777   5.135
 1530SOL    HW116621   1.168   4.687   5.146
 1530SOL    HW216622   1.108   4.794   5.038
 1531SOL     OW16623   0.546   8.479   4.829
 1531SOL    HW116624   0.478   8.523   4.770
 1531SOL    HW216625   0.504   8.401   4.875
 1532SOL     OW16626   0.897   3.873   5.142
 1532SOL    HW116627   0.818   3.850   5.085
 1532SOL    HW216628   0.981   3.845   5.095
 1533SOL     OW16629   6.065   5.313   1.669
 1533SOL    HW116630   6.157   5.289   1.639
 1533SOL    HW216631   6.069   5.390   1.732
 1534SOL     OW16632   4.831   7.574   0.199
 1534SOL    HW116633   4.883   7.638   0.143
 1534SOL    HW216634   4.814   7.614   0.289
 1535SOL     OW16635   1.960   3.567   0.599
 1535SOL    HW116636   1.978   3.558   0.501
 1535SOL    HW216637   1.918   3.482   0.632
 1536SOL     OW16638   2.433   6.775   6.140
 1536SOL    HW116639   2.401   6.738   6.227
 1536SOL    HW216640   2.530   6.754   6.129
 1537SOL     OW16641   1.372   0.246   6.596
 1537SOL    HW116642   1.438   0.321   6.600
 1537SOL    HW216643   1.393   0.186   6.520
 1538SOL     OW16644   8.240   7.783   1.046
 1538SOL    HW116645   8.141   7.786   1.037
 1538SOL    HW216646   8.266   7.724   1.122
 1539SOL     OW16647   3.321   5.243   0.316
 1539SOL    HW116648   3.255   5.203   0.252
 1539SOL    HW216649   3.273   5.278   0.396
 1540SOL     OW16650   7.356   5.149   4.641
 1540SOL    HW116651   7.419   5.105   4.705
 1540SOL    HW216652   7.349   5.094   4.558
 1541SOL     OW16653   8.599   7.460   0.692
 1541SOL    HW116654   8.544   7.536   0.728
 1541SOL    HW216655   8.683   7.451   0.745
 1542SOL     OW16656   8.856   3.608   6.599
 1542SOL    HW116657   8.940   3.611   6.652
 1542SOL    HW216658   8.858   3.678   6.528
 1543SOL     OW16659   7.379   5.611   5.096
 1543SOL    HW116660   7.435   5.602   5.014
 1543SOL    HW216661   7.315   5.535   5.101
 1544SOL     OW16662   4.459   0.203   0.210
 1544SOL    HW116663   4.413   0.126   0.164
 1544SOL    HW216664   4.416   0.289   0.183
 1545SOL     OW16665   1.379   5.857   4.383
 1545SOL    HW116666   1.310   5.813   4.325
 1545SOL    HW216667   1.376   5.956   4.368
 1546SOL     OW16668   6.278   0.617   0.222
 1546SOL    HW116669   6.274   0.556   0.301
 1546SOL    HW216670   6.351   0.588   0.160
 1547SOL     OW16671   5.321   2.132   1.485
 1547SOL    HW116672   5.267   2.134   1.401
 1547SOL    HW216673   5.260   2.130   1.564
 1548SOL     OW16674   8.878   4.944   5.137
 1548SOL    HW116675   8.916   5.021   5.086
 1548SOL    HW216676   8.779   4.941   5.123
 1549SOL     OW16677   5.657   8.170   1.485
 1549SOL    HW116678   5.593   8.172   1.409
 1549SOL    HW216679   5.696   8.261   1.498
 1550SOL     OW16680   7.121   0.709   6.414
 1550SOL    HW116681   7.054   0.679   6.482
 1550SOL    HW216682   7.075   0.729   6.328
 1551SOL     OW16683   2.075   2.098   6.279
 1551SOL    HW116684   1.991   2.128   6.324
 1551SOL    HW216685   2.115   2.021   6.328
 1552SOL     OW16686   7.608   1.855   0.136
 1552SOL    HW116687   7.611   1.912   0.054
 1552SOL    HW216688   7.684   1.879   0.196
 1553SOL     OW16689   1.521   3.614   0.153
 1553SOL    HW116690   1.454   3.558   0.103
 1553SOL    HW216691   1.610   3.607   0.107
 1554SOL     OW16692   3.234   4.972   6.085
 1554SOL    HW116693   3.190   4.975   6.174
 1554SOL    HW216694   3.165   4.955   6.014
 1555SOL     OW16695   0.457   6.401   5.899
 1555SOL    HW116696   0.457   6.371   5.994
 1555SOL    HW216697   0.376   6.456   5.880
 1556SOL     OW16698   0.527   6.409   0.101
 1556SOL    HW116699   0.580   6.421   0.017
 1556SOL    HW216700   0.549   6.321   0.142
 1557SOL     OW16701   6.508   0.650   1.590
 1557SOL    HW116702   6.526   0.559   1.627
 1557SOL    HW216703   6.584   0.710   1.610
 1558SOL     OW16704   5.908   1.222   1.461
 1558SOL    HW116705   5.813   1.222   1.428
 1558SOL    HW216706   5.911   1.185   1.554
 1559SOL     OW16707   7.297   7.601   0.136
 1559SOL    HW116708   7.294   7.585   0.038
 1559SOL    HW216709   7.392   7.608   0.166
 1560SOL     OW16710   8.507   0.110   0.162
 1560SOL    HW116711   8.571   0.183   0.140
 1560SOL    HW216712   8.558   0.027   0.184
 1561SOL     OW16713   6.258   8.483   0.683
 1561SOL    HW116714   6.168   8.442   0.674
 1561SOL    HW216715   6.259   8.572   0.638
 1562SOL     OW16716   6.098   1.660   1.988
 1562SOL    HW116717   6.099   1.719   1.907
 1562SOL    HW216718   6.192   1.634   2.011
 1563SOL     OW16719   4.663   3.697   6.716
 1563SOL    HW116720   4.747   3.749   6.733
 1563SOL    HW216721   4.613   3.738   6.640
 1564SOL     OW16722   1.932   1.342   4.906
 1564SOL    HW116723   1.954   1.438   4.919
 1564SOL    HW216724   2.017   1.289   4.902
 1565SOL     OW16725   5.148   1.200   5.682
 1565SOL    HW116726   5.083   1.270   5.650
 1565SOL    HW216727   5.239   1.221   5.647
 1566SOL     OW16728   7.941   7.948   0.870
 1566SOL    HW116729   7.935   7.872   0.935
 1566SOL    HW216730   7.879   7.931   0.793
 1567SOL     OW16731   6.209   7.245   6.468
 1567SOL    HW116732   6.160   7.290   6.393
 1567SOL    HW216733   6.198   7.146   6.460
 1568SOL     OW16734   0.486   2.547   0.438
 1568SOL    HW116735   0.576   2.577   0.407
 1568SOL    HW216736   0.496   2.486   0.516
 1569SOL     OW16737   5.713   1.300   2.063
 1569SOL    HW116738   5.732   1.256   1.975
 1569SOL    HW216739   5.798   1.339   2.099
 1570SOL     OW16740   7.939   0.858   5.915
 1570SOL    HW116741   7.860   0.884   5.860
 1570SOL    HW216742   7.921   0.773   5.963
 1571SOL     OW16743   0.759   7.291   4.694
 1571SOL    HW116744   0.741   7.220   4.761
 1571SOL    HW216745   0.858   7.303   4.683
 1572SOL     OW16746   1.147   3.589   5.080
 1572SOL    HW116747   1.107   3.498   5.068
 1572SOL    HW216748   1.111   3.650   5.009
 1573SOL     OW16749   7.852   3.975   5.819
 1573SOL    HW116750   7.805   3.926   5.746
 1573SOL    HW216751   7.811   3.951   5.907
 1574SOL     OW16752   3.220   7.237   1.196
 1574SOL    HW116753   3.277   7.178   1.139
 1574SOL    HW216754   3.265   7.253   1.284
 1575SOL     OW16755   6.584   5.193   6.256
 1575SOL    HW116756   6.672   5.205   6.210
 1575SOL    HW216757   6.577   5.259   6.331
 1576SOL     OW16758   3.927   6.591   0.035
 1576SOL    HW116759   3.899   6.513   0.090
 1576SOL    HW216760   4.005   6.565  -0.022
 1577SOL     OW16761   3.703   7.843   4.789
 1577SOL    HW116762   3.695   7.746   4.810
 1577SOL    HW216763   3.799   7.866   4.772
 1578SOL     OW16764   4.854   1.232   0.026
 1578SOL    HW116765   4.835   1.141  -0.011
 1578SOL    HW216766   4.942   1.265  -0.009
 1579SOL     OW16767   8.729   0.184   6.161
 1579SOL    HW116768   8.638   0.213   6.130
 1579SOL    HW216769   8.764   0.113   6.101
 1580SOL     OW16770   0.560   7.207   5.601
 1580SOL    HW116771   0.546   7.117   5.642
 1580SOL    HW216772   0.620   7.261   5.660
 1581SOL     OW16773   1.568   5.344   0.102
 1581SOL    HW116774   1.535   5.413   0.167
 1581SOL    HW216775   1.537   5.254   0.130
 1582SOL     OW16776   9.479   6.144   6.393
 1582SOL    HW116777   9.492   6.207   6.316
 1582SOL    HW216778   9.558   6.083   6.400
 1583SOL     OW16779   7.937   1.999   0.949
 1583SOL    HW116780   7.996   1.924   0.920
 1583SOL    HW216781   7.986   2.086   0.936
 1584SOL     OW16782   1.107   6.824   4.757
 1584SOL    HW116783   1.131   6.729   4.734
 1584SOL    HW216784   1.102   6.834   4.856
 1585SOL     OW16785   5.175   0.822   0.402
 1585SOL    HW116786   5.193   0.905   0.454
 1585SOL    HW216787   5.114   0.762   0.454
 1586SOL     OW16788   7.120   3.322   0.722
 1586SOL    HW116789   7.164   3.234   0.737
 1586SOL    HW216790   7.149   3.386   0.793
 1587SOL     OW16791   3.995   2.076   5.361
 1587SOL    HW116792   3.919   2.137   5.338
 1587SOL    HW216793   4.080   2.115   5.329
 1588SOL     OW16794   5.632   6.605   0.397
 1588SOL    HW116795   5.598   6.513   0.420
 1588SOL    HW216796   5.675   6.645   0.478
 1589SOL     OW16797   9.085   7.753   5.798
 1589SOL    HW116798   9.045   7.827   5.853
 1589SOL    HW216799   9.125   7.685   5.859
 1590SOL     OW16800   7.140   5.816   1.740
 1590SOL    HW116801   7.201   5.838   1.664
 1590SOL    HW216802   7.158   5.877   1.817
 1591SOL     OW16803   2.031   1.081   6.217
 1591SOL    HW116804   1.960   1.133   6.264
 1591SOL    HW216805   2.075   1.018   6.281
 1592SOL     OW16806   2.302   4.975   0.730
 1592SOL    HW116807   2.285   5.011   0.821
 1592SOL    HW216808   2.304   4.875   0.733
 1593SOL     OW16809   2.802   7.989   0.240
 1593SOL    HW116810   2.861   8.057   0.283
 1593SOL    HW216811   2.760   8.028   0.158
 1594SOL     OW16812   1.888   1.836   5.775
 1594SOL    HW116813   1.930   1.747   5.795
 1594SOL    HW216814   1.956   1.896   5.734
 1595SOL     OW16815   1.840   0.467   1.161
 1595SOL    HW116816   1.756   0.458   1.215
 1595SOL    HW216817   1.822   0.520   1.078
 1596SOL     OW16818   0.252   7.076   6.366
 1596SOL    HW116819   0.239   7.099   6.463
 1596SOL    HW216820   0.283   7.157   6.317
 1597SOL     OW16821   4.149   6.644   0.568
 1597SOL    HW116822   4.148   6.606   0.475
 1597SOL    HW216823   4.080   6.596   0.623
 1598SOL     OW16824   0.047   6.904   0.618
 1598SOL    HW116825   0.105   6.939   0.544
 1598SOL    HW216826   0.086   6.820   0.654
 1599SOL     OW16827   6.530   5.642   6.708
 1599SOL    HW116828   6.601   5.574   6.726
 1599SOL    HW216829   6.516   5.652   6.610
 1600SOL     OW16830   7.261   2.484   6.162
 1600SOL    HW116831   7.328   2.413   6.143
 1600SOL    HW216832   7.174   2.443   6.189
 1601SOL     OW16833   3.387   8.363   5.352
 1601SOL    HW116834   3.371   8.462   5.353
 1601SOL    HW216835   3.299   8.315   5.349
 1602SOL     OW16836   1.187   0.138   1.032
 1602SOL    HW116837   1.222   0.220   0.987
 1602SOL    HW216838   1.087   0.137   1.027
 1603SOL     OW16839   6.283   5.596   0.085
 1603SOL    HW116840   6.297   5.548   0.172
 1603SOL    HW216841   6.354   5.666   0.075
 1604SOL     OW16842   5.891   2.206   6.345
 1604SOL    HW116843   5.972   2.218   6.287
 1604SOL    HW216844   5.920   2.186   6.439
 1605SOL     OW16845   7.035   4.101   0.080
 1605SOL    HW116846   7.017   4.052  -0.006
 1605SOL    HW216847   6.948   4.118   0.127
 1606SOL     OW16848   3.958   2.922   0.172
 1606SOL    HW116849   4.011   2.977   0.236
 1606SOL    HW216850   4.016   2.890   0.098
 1607SOL     OW16851   7.206   3.441   0.947
 1607SOL    HW116852   7.236   3.536   0.937
 1607SOL    HW216853   7.276   3.389   0.996
 1608SOL     OW16854   3.806   2.660   5.931
 1608SOL    HW116855   3.747   2.586   5.962
 1608SOL    HW216856   3.763   2.748   5.950
 1609SOL     OW16857   3.412   0.864   5.137
 1609SOL    HW116858   3.370   0.784   5.095
 1609SOL    HW216859   3.485   0.899   5.078
 1610SOL     OW16860   8.001   5.257   5.724
 1610SOL    HW116861   8.058   5.339   5.731
 1610SOL    HW216862   8.006   5.205   5.809
 1611SOL     OW16863   0.309   3.013   0.540
 1611SOL    HW116864   0.340   3.096   0.587
 1611SOL    HW216865   0.355   3.006   0.452
 1612SOL     OW16866   4.289   2.678   6.045
 1612SOL    HW116867   4.345   2.618   5.987
 1612SOL    HW216868   4.192   2.667   6.021
 1613SOL     OW16869   5.951   7.302   1.555
 1613SOL    HW116870   6.012   7.222   1.552
 1613SOL    HW216871   6.003   7.382   1.583
 1614SOL     OW16872   0.964   1.277   0.131
 1614SOL    HW116873   0.943   1.353   0.192
 1614SOL    HW216874   0.892   1.269   0.062
 1615SOL     OW16875   3.099   5.487   1.186
 1615SOL    HW116876   3.067   5.414   1.245
 1615SOL    HW216877   3.196   5.474   1.165
 1616SOL     OW16878   3.549   4.048   1.145
 1616SOL    HW116879   3.450   4.046   1.132
 1616SOL    HW216880   3.592   3.980   1.085
 1617SOL     OW16881   1.436   2.073   0.262
 1617SOL    HW116882   1.482   2.162   0.264
 1617SOL    HW216883   1.462   2.024   0.178
 1618SOL     OW16884   4.091   8.186   5.814
 1618SOL    HW116885   4.182   8.205   5.851
 1618SOL    HW216886   4.049   8.110   5.865
 1619SOL     OW16887   6.201   7.133   5.600
 1619SOL    HW116888   6.241   7.060   5.545
 1619SOL    HW216889   6.256   7.146   5.683
 1620SOL     OW16890   1.697   2.732   0.788
 1620SOL    HW116891   1.745   2.710   0.873
 1620SOL    HW216892   1.623   2.796   0.808
 1621SOL     OW16893   5.946   6.371   1.206
 1621SOL    HW116894   5.966   6.456   1.255
 1621SOL    HW216895   5.889   6.391   1.126
 1622SOL     OW16896   5.777   7.907   0.207
 1622SOL    HW116897   5.845   7.833   0.204
 1622SOL    HW216898   5.820   7.989   0.245
 1623SOL     OW16899   6.088   0.045   5.513
 1623SOL    HW116900   6.105   0.117   5.446
 1623SOL    HW216901   6.088  -0.044   5.467
 1624SOL     OW16902   4.200   5.251   1.108
 1624SOL    HW116903   4.187   5.179   1.039
 1624SOL    HW216904   4.120   5.254   1.168
 1625SOL     OW16905   6.789   1.759   5.441
 1625SOL    HW116906   6.844   1.835   5.406
 1625SOL    HW216907   6.836   1.673   5.423
 1626SOL     OW16908   9.329   6.417   4.670
 1626SOL    HW116909   9.238   6.443   4.637
 1626SOL    HW216910   9.387   6.392   4.592
 1627SOL     OW16911   7.867   7.997   0.264
 1627SOL    HW116912   7.811   7.917   0.244
 1627SOL    HW216913   7.952   7.992   0.211
 1628SOL     OW16914   4.435   3.908   1.439
 1628SOL    HW116915   4.438   3.898   1.339
 1628SOL    HW216916   4.366   3.846   1.477
 1629SOL     OW16917   3.431   3.056   5.693
 1629SOL    HW116918   3.484   3.110   5.626
 1629SOL    HW216919   3.336   3.049   5.662
 1630SOL     OW16920   0.879   4.848   0.923
 1630SOL    HW116921   0.810   4.779   0.901
 1630SOL    HW216922   0.898   4.845   1.021
 1631SOL     OW16923   9.143   5.914   5.705
 1631SOL    HW116924   9.221   5.862   5.737
 1631SOL    HW216925   9.163   6.012   5.709
 1632SOL     OW16926   6.699   7.156   6.434
 1632SOL    HW116927   6.722   7.082   6.371
 1632SOL    HW216928   6.777   7.217   6.443
 1633SOL     OW16929   3.238   7.373   6.317
 1633SOL    HW116930   3.157   7.340   6.269
 1633SOL    HW216931   3.311   7.392   6.252
 1634SOL     OW16932   5.059   5.983   0.126
 1634SOL    HW116933   5.038   5.913   0.057
 1634SOL    HW216934   5.134   6.041   0.093
 1635SOL     OW16935   0.410   1.309   0.385
 1635SOL    HW116936   0.440   1.220   0.348
 1635SOL    HW216937   0.450   1.383   0.330
 1636SOL     OW16938   7.567   1.027   6.324
 1636SOL    HW116939   7.494   1.081   6.367
 1636SOL    HW216940   7.539   1.001   6.232
 1637SOL     OW16941   9.034   5.753   0.293
 1637SOL    HW116942   9.056   5.732   0.388
 1637SOL    HW216943   9.025   5.668   0.241
 1638SOL     OW16944   7.233   0.865   0.108
 1638SOL    HW116945   7.264   0.895   0.198
 1638SOL    HW216946   7.279   0.780   0.084
 1639SOL     OW16947   2.975   0.006   0.935
 1639SOL    HW116948   3.017  -0.079   0.967
 1639SOL    HW216949   2.897   0.029   0.994
 1640SOL     OW16950   3.851   5.939   1.174
 1640SOL    HW116951   3.890   5.847   1.179
 1640SOL    HW216952   3.752   5.932   1.161
 1641SOL     OW16953   0.248   2.067   1.135
 1641SOL    HW116954   0.319   2.134   1.115
 1641SOL    HW216955   0.284   1.997   1.196
 1642SOL     OW16956   6.839   6.072   5.622
 1642SOL    HW116957   6.784   6.151   5.649
 1642SOL    HW216958   6.885   6.090   5.535
 1643SOL     OW16959   4.209   1.139   1.359
 1643SOL    HW116960   4.292   1.142   1.414
 1643SOL    HW216961   4.220   1.196   1.278
 1644SOL     OW16962   8.087   3.831   5.891
 1644SOL    HW116963   7.997   3.874   5.891
 1644SOL    HW216964   8.158   3.901   5.880
 1645SOL     OW16965   6.970   2.364   6.105
 1645SOL    HW116966   6.934   2.280   6.145
 1645SOL    HW216967   6.920   2.385   6.021
 1646SOL     OW16968   4.475   1.140   0.135
 1646SOL    HW116969   4.378   1.146   0.116
 1646SOL    HW216970   4.501   1.212   0.201
 1647SOL     OW16971   1.219   5.009   5.380
 1647SOL    HW116972   1.258   4.934   5.434
 1647SOL    HW216973   1.266   5.014   5.291
 1648SOL     OW16974   5.169   0.147   0.284
 1648SOL    HW116975   5.152   0.089   0.205
 1648SOL    HW216976   5.119   0.112   0.363
 1649SOL     OW16977   6.427   1.842   0.817
 1649SOL    HW116978   6.350   1.904   0.832
 1649SOL    HW216979   6.512   1.895   0.825
 1650SOL     OW16980   6.609   6.985   0.232
 1650SOL    HW116981   6.638   7.007   0.325
 1650SOL    HW216982   6.682   7.005   0.168
 1651SOL     OW16983   7.662   5.252   6.534
 1651SOL    HW116984   7.699   5.167   6.573
 1651SOL    HW216985   7.700   5.330   6.583
 1652SOL     OW16986   8.644   7.577   5.218
 1652SOL    HW116987   8.676   7.578   5.312
 1652SOL    HW216988   8.642   7.483   5.184
 1653SOL     OW16989   3.665   2.494   1.618
 1653SOL    HW116990   3.753   2.488   1.667
 1653SOL    HW216991   3.593   2.453   1.674
 1654SOL     OW16992   8.615   6.135   0.165
 1654SOL    HW116993   8.538   6.129   0.229
 1654SOL    HW216994   8.697   6.162   0.214
 1655SOL     OW16995   8.990   8.069   0.503
 1655SOL    HW116996   8.983   7.988   0.560
 1655SOL    HW216997   9.065   8.059   0.438
 1656SOL     OW16998   4.168   2.358   6.638
 1656SOL    HW116999   4.173   2.403   6.727
 1656SOL    HW217000   4.173   2.427   6.566
 1657SOL     OW17001   2.572   3.498   0.574
 1657SOL    HW117002   2.640   3.498   0.648
 1657SOL    HW217003   2.558   3.591   0.541
 1658SOL     OW17004   3.972   6.375   6.021
 1658SOL    HW117005   3.974   6.277   6.004
 1658SOL    HW217006   3.894   6.416   5.973
 1659SOL     OW17007   3.228   0.266   6.283
 1659SOL    HW117008   3.303   0.245   6.220
 1659SOL    HW217009   3.260   0.255   6.377
 1660SOL     OW17010   7.801   5.893   0.007
 1660SOL    HW117011   7.718   5.838  -0.005
 1660SOL    HW217012   7.775   5.984   0.040
 1661SOL     OW17013   5.796   7.523   0.734
 1661SOL    HW117014   5.728   7.595   0.752
 1661SOL    HW217015   5.879   7.565   0.698
 1662SOL     OW17016   9.274   2.682   6.375
 1662SOL    HW117017   9.307   2.742   6.303
 1662SOL    HW217018   9.198   2.725   6.423
 1663SOL     OW17019   0.794   1.174   5.272
 1663SOL    HW117020   0.748   1.233   5.337
 1663SOL    HW217021   0.763   1.195   5.179
 1664SOL     OW17022   0.998   7.751   1.357
 1664SOL    HW117023   0.955   7.696   1.430
 1664SOL    HW217024   0.999   7.847   1.385
 1665SOL     OW17025   4.255   0.066   0.030
 1665SOL    HW117026   4.257   0.130  -0.047
 1665SOL    HW217027   4.317  -0.011   0.011
 1666SOL     OW17028   2.524   5.233   0.850
 1666SOL    HW117029   2.442   5.288   0.871
 1666SOL    HW217030   2.511   5.187   0.763
 1667SOL     OW17031   8.527   5.833   6.051
 1667SOL    HW117032   8.579   5.817   6.135
 1667SOL    HW217033   8.433   5.860   6.074
 1668SOL     OW17034   7.026   7.579   1.500
 1668SOL    HW117035   7.054   7.537   1.586
 1668SOL    HW217036   6.947   7.638   1.515
 1669SOL     OW17037   3.386   7.053   1.054
 1669SOL    HW117038   3.365   7.116   0.979
 1669SOL    HW217039   3.485   7.042   1.062
 1670SOL     OW17040   1.600   0.198   1.302
 1670SOL    HW117041   1.626   0.102   1.308
 1670SOL    HW217042   1.631   0.247   1.383
 1671SOL     OW17043   6.365   0.270   0.611
 1671SOL    HW117044   6.332   0.346   0.555
 1671SOL    HW217045   6.463   0.283   0.628
 1672SOL     OW17046   2.208   0.223   6.148
 1672SOL    HW117047   2.162   0.257   6.067
 1672SOL    HW217048   2.214   0.297   6.216
 1673SOL     OW17049   3.949   1.342   6.697
 1673SOL    HW117050   3.983   1.418   6.751
 1673SOL    HW217051   3.910   1.272   6.757
 1674SOL     OW17052   8.365   2.256   5.867
 1674SOL    HW117053   8.279   2.209   5.889
 1674SOL    HW217054   8.347   2.354   5.858
 1675SOL     OW17055   7.225   1.900   6.602
 1675SOL    HW117056   7.250   1.938   6.513
 1675SOL    HW217057   7.177   1.813   6.588
 1676SOL     OW17058   5.317   4.677   0.240
 1676SOL    HW117059   5.345   4.667   0.145
 1676SOL    HW217060   5.382   4.628   0.299
 1677SOL     OW17061   7.478   1.118   5.759
 1677SOL    HW117062   7.450   1.191   5.696
 1677SOL    HW217063   7.426   1.126   5.844
 1678SOL     OW17064   8.167   4.506   0.179
 1678SOL    HW117065   8.132   4.574   0.116
 1678SOL    HW217066   8.217   4.435   0.129
 1679SOL     OW17067   7.488   7.239   0.431
 1679SOL    HW117068   7.553   7.244   0.355
 1679SOL    HW217069   7.512   7.163   0.491
 1680SOL     OW17070   0.242   1.479   0.563
 1680SOL    HW117071   0.256   1.571   0.527
 1680SOL    HW217072   0.304   1.415   0.517
 1681SOL     OW17073   1.832   3.480   0.337
 1681SOL    HW117074   1.818   3.402   0.276
 1681SOL    HW217075   1.928   3.509   0.332
 1682SOL     OW17076   2.839   5.490   1.074
 1682SOL    HW117077   2.938   5.493   1.082
 1682SOL    HW217078   2.800   5.570   1.119
 1683SOL     OW17079   6.197   3.396   0.904
 1683SOL    HW117080   6.244   3.477   0.936
 1683SOL    HW217081   6.098   3.412   0.904
 1684SOL     OW17082   3.917   1.445   0.987
 1684SOL    HW117083   3.951   1.453   1.081
 1684SOL    HW217084   3.818   1.432   0.989
 1685SOL     OW17085   7.975   2.944   6.593
 1685SOL    HW117086   8.010   3.023   6.643
 1685SOL    HW217087   7.974   2.964   6.495
 1686SOL     OW17088   5.542   7.705   0.532
 1686SOL    HW117089   5.484   7.749   0.601
 1686SOL    HW217090   5.525   7.607   0.533
 1687SOL     OW17091   8.213   2.569   0.580
 1687SOL    HW117092   8.285   2.633   0.608
 1687SOL    HW217093   8.227   2.544   0.484
 1688SOL     OW17094   3.920   5.078   0.587
 1688SOL    HW117095   3.940   5.122   0.499
 1688SOL    HW217096   3.935   5.143   0.661
 1689SOL     OW17097   2.324   4.025   6.189
 1689SOL    HW117098   2.306   4.020   6.288
 1689SOL    HW217099   2.250   4.077   6.145
 1690SOL     OW17100   5.726   6.102   4.946
 1690SOL    HW117101   5.671   6.179   4.916
 1690SOL    HW217102   5.781   6.068   4.869
 1691SOL     OW17103   7.077   7.791   0.969
 1691SOL    HW117104   7.087   7.840   1.056
 1691SOL    HW217105   7.002   7.725   0.977
 1692SOL     OW17106   4.779   7.798   0.808
 1692SOL    HW117107   4.779   7.882   0.754
 1692SOL    HW217108   4.690   7.753   0.800
 1693SOL     OW17109   5.558   7.983   0.877
 1693SOL    HW117110   5.613   8.063   0.852
 1693SOL    HW217111   5.539   7.984   0.975
 1694SOL     OW17112   7.485   6.215   0.424
 1694SOL    HW117113   7.454   6.138   0.478
 1694SOL    HW217114   7.484   6.190   0.327
 1695SOL     OW17115   6.666   6.216   6.391
 1695SOL    HW117116   6.631   6.132   6.349
 1695SOL    HW217117   6.609   6.294   6.363
 1696SOL     OW17118   7.243   1.153   0.529
 1696SOL    HW117119   7.190   1.238   0.530
 1696SOL    HW217120   7.341   1.176   0.527
 1697SOL     OW17121   1.014   7.345   5.818
 1697SOL    HW117122   1.048   7.284   5.889
 1697SOL    HW217123   1.077   7.423   5.808
 1698SOL     OW17124   0.708   7.699   0.760
 1698SOL    HW117125   0.791   7.707   0.815
 1698SOL    HW217126   0.670   7.607   0.770
 1699SOL     OW17127   1.453   2.441   5.722
 1699SOL    HW117128   1.481   2.381   5.648
 1699SOL    HW217129   1.410   2.523   5.685
 1700SOL     OW17130   4.142   6.255   1.065
 1700SOL    HW117131   4.131   6.234   1.163
 1700SOL    HW217132   4.076   6.202   1.012
 1701SOL     OW17133   7.913   2.132   6.717
 1701SOL    HW117134   7.977   2.209   6.716
 1701SOL    HW217135   7.958   2.052   6.676
 1702SOL     OW17136   3.137   6.097   6.046
 1702SOL    HW117137   3.098   6.117   5.956
 1702SOL    HW217138   3.089   6.149   6.116
 1703SOL     OW17139   9.220   1.583   5.333
 1703SOL    HW117140   9.225   1.484   5.344
 1703SOL    HW217141   9.156   1.605   5.259
 1704SOL     OW17142   0.148   7.127   5.116
 1704SOL    HW117143   0.141   7.052   5.182
 1704SOL    HW217144   0.186   7.092   5.031
 1705SOL     OW17145   1.098   0.387   6.096
 1705SOL    HW117146   1.040   0.378   6.176
 1705SOL    HW217147   1.095   0.303   6.041
 1706SOL     OW17148   4.603   0.497   1.718
 1706SOL    HW117149   4.703   0.504   1.708
 1706SOL    HW217150   4.580   0.500   1.815
 1707SOL     OW17151   3.257   8.458   5.739
 1707SOL    HW117152   3.344   8.463   5.787
 1707SOL    HW217153   3.224   8.363   5.740
 1708SOL     OW17154   1.822   0.607   5.281
 1708SOL    HW117155   1.760   0.565   5.348
 1708SOL    HW217156   1.895   0.655   5.328
 1709SOL     OW17157   0.906   0.482   4.711
 1709SOL    HW117158   0.816   0.468   4.671
 1709SOL    HW217159   0.975   0.487   4.638
 1710SOL     OW17160   0.607   0.900   6.520
 1710SOL    HW117161   0.630   0.876   6.426
 1710SOL    HW217162   0.691   0.920   6.571
 1711SOL     OW17163   8.090   1.187   5.648
 1711SOL    HW117164   8.013   1.130   5.618
 1711SOL    HW217165   8.143   1.216   5.568
 1712SOL     OW17166   5.665   3.003   0.337
 1712SOL    HW117167   5.641   2.922   0.390
 1712SOL    HW217168   5.761   2.997   0.308
 1713SOL     OW17169   5.460   0.437   5.123
 1713SOL    HW117170   5.496   0.464   5.034
 1713SOL    HW217171   5.510   0.486   5.195
 1714SOL     OW17172   3.769   5.464   5.889
 1714SOL    HW117173   3.806   5.422   5.972
 1714SOL    HW217174   3.839   5.518   5.844
 1715SOL     OW17175   2.192   1.875   0.990
 1715SOL    HW117176   2.107   1.865   0.937
 1715SOL    HW217177   2.236   1.961   0.965
 1716SOL     OW17178   7.228   2.792   0.020
 1716SOL    HW117179   7.309   2.844   0.048
 1716SOL    HW217180   7.250   2.695   0.015
 1717SOL     OW17181   4.988   2.265   1.002
 1717SOL    HW117182   4.890   2.265   1.022
 1717SOL    HW217183   5.026   2.175   1.023
 1718SOL     OW17184   9.308   4.382   6.481
 1718SOL    HW117185   9.379   4.391   6.411
 1718SOL    HW217186   9.328   4.302   6.538
 1719SOL     OW17187   6.009   2.030   1.427
 1719SOL    HW117188   6.106   2.014   1.442
 1719SOL    HW217189   5.993   2.127   1.410
 1720SOL     OW17190   7.239   1.260   5.958
 1720SOL    HW117191   7.218   1.319   6.036
 1720SOL    HW217192   7.174   1.279   5.884
 1721SOL     OW17193   1.482   1.476   6.472
 1721SOL    HW117194   1.520   1.423   6.548
 1721SOL    HW217195   1.524   1.446   6.387
 1722SOL     OW17196   3.481   1.285   6.335
 1722SOL    HW117197   3.470   1.383   6.318
 1722SOL    HW217198   3.420   1.234   6.274
 1723SOL     OW17199   6.936   1.585   5.734
 1723SOL    HW117200   6.858   1.581   5.796
 1723SOL    HW217201   6.904   1.597   5.640
 1724SOL     OW17202   6.528   3.484   1.626
 1724SOL    HW117203   6.565   3.540   1.699
 1724SOL    HW217204   6.525   3.388   1.655
 1725SOL     OW17205   0.974   4.342   0.705
 1725SOL    HW117206   0.944   4.428   0.745
 1725SOL    HW217207   1.037   4.296   0.768
 1726SOL     OW17208   6.081   6.414   0.349
 1726SOL    HW117209   6.119   6.503   0.372
 1726SOL    HW217210   6.147   6.342   0.371
 1727SOL     OW17211   1.707   0.301   5.607
 1727SOL    HW117212   1.688   0.268   5.515
 1727SOL    HW217213   1.804   0.291   5.627
 1728SOL     OW17214   9.350   0.423   6.465
 1728SOL    HW117215   9.324   0.517   6.489
 1728SOL    HW217216   9.398   0.382   6.543
 1729SOL     OW17217   4.537   3.350   0.723
 1729SOL    HW117218   4.521   3.437   0.677
 1729SOL    HW217219   4.452   3.297   0.723
 1730SOL     OW17220   8.382   4.271   6.164
 1730SOL    HW117221   8.409   4.176   6.179
 1730SOL    HW217222   8.456   4.320   6.117
 1731SOL     OW17223   8.881   2.390   1.586
 1731SOL    HW117224   8.798   2.349   1.549
 1731SOL    HW217225   8.961   2.355   1.536
 1732SOL     OW17226   0.107   6.836   5.796
 1732SOL    HW117227   0.024   6.826   5.851
 1732SOL    HW217228   0.134   6.932   5.792
 1733SOL     OW17229   7.659   2.760   5.838
 1733SOL    HW117230   7.638   2.663   5.846
 1733SOL    HW217231   7.729   2.773   5.768
 1734SOL     OW17232   3.943   5.202   1.220
 1734SOL    HW117233   3.909   5.294   1.234
 1734SOL    HW217234   3.866   5.138   1.215
 1735SOL     OW17235   4.076   5.162   6.698
 1735SOL    HW117236   4.099   5.166   6.601
 1735SOL    HW217237   4.152   5.120   6.749
 1736SOL     OW17238   7.076   7.363   5.851
 1736SOL    HW117239   7.168   7.395   5.830
 1736SOL    HW217240   7.031   7.427   5.913
 1737SOL     OW17241   7.082   2.097   0.685
 1737SOL    HW117242   7.015   2.026   0.662
 1737SOL    HW217243   7.154   2.098   0.616
 1738SOL     OW17244   7.633   8.138   6.272
 1738SOL    HW117245   7.594   8.124   6.363
 1738SOL    HW217246   7.617   8.056   6.216
 1739SOL     OW17247   0.824   2.419   0.500
 1739SOL    HW117248   0.769   2.455   0.575
 1739SOL    HW217249   0.921   2.432   0.520
 1740SOL     OW17250   3.427   5.235   4.962
 1740SOL    HW117251   3.347   5.217   4.905
 1740SOL    HW217252   3.488   5.299   4.914
 1741SOL     OW17253   0.177   5.507   5.367
 1741SOL    HW117254   0.227   5.450   5.302
 1741SOL    HW217255   0.219   5.500   5.458
 1742SOL     OW17256   6.747   3.145   0.397
 1742SOL    HW117257   6.763   3.142   0.496
 1742SOL    HW217258   6.760   3.238   0.364
 1743SOL     OW17259   5.633   5.800   6.610
 1743SOL    HW117260   5.664   5.799   6.705
 1743SOL    HW217261   5.568   5.725   6.595
 1744SOL     OW17262   6.470   4.541   6.677
 1744SOL    HW117263   6.400   4.549   6.607
 1744SOL    HW217264   6.453   4.607   6.750
 1745SOL     OW17265   3.166   5.302   6.634
 1745SOL    HW117266   3.141   5.253   6.717
 1745SOL    HW217267   3.173   5.238   6.558
 1746SOL     OW17268   3.967   4.139   5.445
 1746SOL    HW117269   4.040   4.109   5.507
 1746SOL    HW217270   3.972   4.085   5.360
 1747SOL     OW17271   5.104   2.015   1.076
 1747SOL    HW117272   5.158   1.939   1.041
 1747SOL    HW217273   5.060   1.989   1.161
 1748SOL     OW17274   0.455   7.109   0.312
 1748SOL    HW117275   0.554   7.098   0.326
 1748SOL    HW217276   0.437   7.124   0.215
 1749SOL     OW17277   5.993   0.265   6.700
 1749SOL    HW117278   5.973   0.168   6.715
 1749SOL    HW217279   5.910   0.311   6.668
 1750SOL     OW17280   6.803   8.434   0.543
 1750SOL    HW117281   6.798   8.335   0.562
 1750SOL    HW217282   6.713   8.466   0.513
 1751SOL     OW17283   3.136   1.109   2.318
 1751SOL    HW117284   3.094   1.104   2.227
 1751SOL    HW217285   3.202   1.184   2.320
 1752SOL     OW17286   2.744   5.036   0.291
 1752SOL    HW117287   2.722   5.096   0.368
 1752SOL    HW217288   2.661   5.020   0.237
 1753SOL     OW17289   6.284   4.078   0.741
 1753SOL    HW117290   6.272   4.176   0.724
 1753SOL    HW217291   6.195   4.033   0.745
 1754SOL     OW17292   2.106   2.442   6.464
 1754SOL    HW117293   2.172   2.517   6.467
 1754SOL    HW217294   2.101   2.405   6.372
 1755SOL     OW17295   2.573   4.647   0.706
 1755SOL    HW117296   2.593   4.730   0.653
 1755SOL    HW217297   2.658   4.598   0.723
 1756SOL     OW17298   4.934   4.391   0.023
 1756SOL    HW117299   4.990   4.329  -0.031
 1756SOL    HW217300   4.992   4.455   0.072
 1757SOL     OW17301   9.059   4.448   5.555
 1757SOL    HW117302   9.101   4.497   5.478
 1757SOL    HW217303   8.960   4.442   5.540
 1758SOL     OW17304   4.172   0.738   6.004
 1758SOL    HW117305   4.129   0.746   6.094
 1758SOL    HW217306   4.103   0.745   5.932
 1759SOL     OW17307   0.570   1.794   1.024
 1759SOL    HW117308   0.564   1.848   1.108
 1759SOL    HW217309   0.554   1.697   1.046
 1760SOL     OW17310   3.744   5.017   1.156
 1760SOL    HW117311   3.730   4.976   1.066
 1760SOL    HW217312   3.673   4.986   1.219
 1761SOL     OW17313   1.074   0.685   4.441
 1761SOL    HW117314   0.988   0.736   4.445
 1761SOL    HW217315   1.151   0.750   4.438
 1762SOL     OW17316   1.782   6.997   1.136
 1762SOL    HW117317   1.802   7.086   1.096
 1762SOL    HW217318   1.753   7.009   1.231
 1763SOL     OW17319   3.044   5.693   6.719
 1763SOL    HW117320   2.982   5.752   6.667
 1763SOL    HW217321   3.095   5.634   6.656
 1764SOL     OW17322   3.841   4.628   1.142
 1764SOL    HW117323   3.755   4.581   1.120
 1764SOL    HW217324   3.828   4.685   1.222
 1765SOL     OW17325   2.943   7.698   0.644
 1765SOL    HW117326   3.021   7.754   0.613
 1765SOL    HW217327   2.956   7.604   0.613
 1766SOL     OW17328   3.493   4.033   0.800
 1766SOL    HW117329   3.556   3.961   0.827
 1766SOL    HW217330   3.399   4.002   0.813
 1767SOL     OW17331   0.457   1.207   1.365
 1767SOL    HW117332   0.495   1.131   1.313
 1767SOL    HW217333   0.379   1.174   1.419
 1768SOL     OW17334   3.408   3.540   6.559
 1768SOL    HW117335   3.317   3.574   6.581
 1768SOL    HW217336   3.475   3.612   6.576
 1769SOL     OW17337   5.471   2.374   0.781
 1769SOL    HW117338   5.468   2.439   0.705
 1769SOL    HW217339   5.378   2.348   0.807
 1770SOL     OW17340   3.672   7.872   5.903
 1770SOL    HW117341   3.590   7.815   5.898
 1770SOL    HW217342   3.657   7.945   5.970
 1771SOL     OW17343   6.497   7.319   6.552
 1771SOL    HW117344   6.418   7.267   6.522
 1771SOL    HW217345   6.581   7.276   6.518
 1772SOL     OW17346   3.245   4.975   5.793
 1772SOL    HW117347   3.319   4.911   5.774
 1772SOL    HW217348   3.167   4.927   5.833
 1773SOL     OW17349   0.335   2.886   5.471
 1773SOL    HW117350   0.342   2.894   5.372
 1773SOL    HW217351   0.389   2.958   5.514
 1774SOL     OW17352   5.234   8.274   6.036
 1774SOL    HW117353   5.250   8.190   6.087
 1774SOL    HW217354   5.314   8.296   5.981
 1775SOL     OW17355   4.048   4.022   0.613
 1775SOL    HW117356   4.094   3.935   0.592
 1775SOL    HW217357   3.986   4.045   0.539
 1776SOL     OW17358   9.458   6.760   4.973
 1776SOL    HW117359   9.448   6.697   5.050
 1776SOL    HW217360   9.503   6.712   4.897
 1777SOL     OW17361   0.721   8.328   6.438
 1777SOL    HW117362   0.672   8.242   6.420
 1777SOL    HW217363   0.771   8.319   6.524
 1778SOL     OW17364   3.567   0.030   0.676
 1778SOL    HW117365   3.636   0.097   0.703
 1778SOL    HW217366   3.611  -0.047   0.631
 1779SOL     OW17367   1.932   0.233   0.312
 1779SOL    HW117368   1.915   0.321   0.267
 1779SOL    HW217369   2.009   0.187   0.268
 1780SOL     OW17370   5.562   2.878   1.038
 1780SOL    HW117371   5.534   2.886   1.133
 1780SOL    HW217372   5.630   2.948   1.017
 1781SOL     OW17373   4.653   6.469   0.142
 1781SOL    HW117374   4.670   6.426   0.231
 1781SOL    HW217375   4.712   6.550   0.133
 1782SOL     OW17376   5.743   0.827   1.456
 1782SOL    HW117377   5.835   0.864   1.444
 1782SOL    HW217378   5.746   0.727   1.457
 1783SOL     OW17379   6.735   2.339   6.361
 1783SOL    HW117380   6.726   2.423   6.414
 1783SOL    HW217381   6.762   2.362   6.267
 1784SOL     OW17382   8.829   3.280   6.058
 1784SOL    HW117383   8.771   3.205   6.027
 1784SOL    HW217384   8.779   3.338   6.123
 1785SOL     OW17385   2.164   3.173   6.523
 1785SOL    HW117386   2.166   3.073   6.513
 1785SOL    HW217387   2.241   3.213   6.475
 1786SOL     OW17388   4.120   0.067   6.321
 1786SOL    HW117389   4.029   0.069   6.362
 1786SOL    HW217390   4.128  -0.013   6.262
 1787SOL     OW17391   7.293   3.781   0.405
 1787SOL    HW117392   7.375   3.834   0.382
 1787SOL    HW217393   7.226   3.841   0.450
 1788SOL     OW17394   4.239   6.808   1.274
 1788SOL    HW117395   4.321   6.799   1.217
 1788SOL    HW217396   4.182   6.881   1.238
 1789SOL     OW17397   1.845   2.637   6.421
 1789SOL    HW117398   1.907   2.590   6.483
 1789SOL    HW217399   1.789   2.703   6.472
 1790SOL     OW17400   0.498   7.725   6.036
 1790SOL    HW117401   0.567   7.788   6.073
 1790SOL    HW217402   0.482   7.745   5.940
 1791SOL     OW17403   3.126   8.003   6.259
 1791SOL    HW117404   3.166   7.916   6.287
 1791SOL    HW217405   3.044   7.986   6.205
 1792SOL     OW17406   6.161   8.348   5.327
 1792SOL    HW117407   6.258   8.371   5.342
 1792SOL    HW217408   6.146   8.333   5.229
 1793SOL     OW17409   2.488   2.662   0.413
 1793SOL    HW117410   2.538   2.747   0.396
 1793SOL    HW217411   2.552   2.590   0.438
 1794SOL     OW17412   3.655   0.934   5.600
 1794SOL    HW117413   3.574   0.949   5.544
 1794SOL    HW217414   3.627   0.904   5.691
 1795SOL     OW17415   1.467   5.097   5.872
 1795SOL    HW117416   1.382   5.086   5.820
 1795SOL    HW217417   1.545   5.069   5.816
 1796SOL     OW17418   6.619   2.115   0.807
 1796SOL    HW117419   6.674   2.197   0.795
 1796SOL    HW217420   6.562   2.100   0.726
 1797SOL     OW17421   2.617   1.885   5.737
 1797SOL    HW117422   2.686   1.823   5.773
 1797SOL    HW217423   2.614   1.877   5.638
 1798SOL     OW17424   6.991   7.045   6.376
 1798SOL    HW117425   6.987   7.135   6.421
 1798SOL    HW217426   6.915   7.037   6.312
 1799SOL     OW17427   7.508   0.428   5.737
 1799SOL    HW117428   7.578   0.500   5.745
 1799SOL    HW217429   7.426   0.456   5.787
 1800SOL     OW17430   9.347   7.984   6.604
 1800SOL    HW117431   9.352   8.018   6.698
 1800SOL    HW217432   9.347   8.062   6.541
 1801SOL     OW17433   0.233   0.758   5.995
 1801SOL    HW117434   0.184   0.786   6.077
 1801SOL    HW217435   0.317   0.812   5.986
 1802SOL     OW17436   1.507   3.021   5.976
 1802SOL    HW117437   1.543   3.103   5.932
 1802SOL    HW217438   1.577   2.949   5.973
 1803SOL     OW17439   3.915   8.081   0.688
 1803SOL    HW117440   3.972   8.127   0.619
 1803SOL    HW217441   3.819   8.083   0.658
 1804SOL     OW17442   0.374   6.037   6.087
 1804SOL    HW117443   0.309   5.963   6.072
 1804SOL    HW217444   0.453   6.002   6.138
 1805SOL     OW17445   3.298   5.437   5.956
 1805SOL    HW117446   3.374   5.498   5.937
 1805SOL    HW217447   3.299   5.360   5.892
 1806SOL     OW17448   5.518   4.878   1.647
 1806SOL    HW117449   5.535   4.890   1.745
 1806SOL    HW217450   5.421   4.893   1.627
 1807SOL     OW17451   5.698   8.489   0.522
 1807SOL    HW117452   5.610   8.522   0.487
 1807SOL    HW217453   5.755   8.461   0.445
 1808SOL     OW17454   0.690   6.829   6.175
 1808SOL    HW117455   0.705   6.810   6.078
 1808SOL    HW217456   0.593   6.840   6.193
 1809SOL     OW17457   6.408   5.121   4.718
 1809SOL    HW117458   6.500   5.083   4.721
 1809SOL    HW217459   6.341   5.047   4.714
 1810SOL     OW17460   3.968   1.522   1.976
 1810SOL    HW117461   3.953   1.438   1.924
 1810SOL    HW217462   3.958   1.503   2.073
 1811SOL     OW17463   5.572   8.180   0.544
 1811SOL    HW117464   5.475   8.163   0.562
 1811SOL    HW217465   5.605   8.251   0.607
 1812SOL     OW17466   4.220   6.992   5.007
 1812SOL    HW117467   4.225   7.088   4.980
 1812SOL    HW217468   4.128   6.957   4.989
 1813SOL     OW17469   0.856   7.823   5.649
 1813SOL    HW117470   0.854   7.820   5.749
 1813SOL    HW217471   0.763   7.822   5.613
 1814SOL     OW17472   0.484   3.303   6.640
 1814SOL    HW117473   0.428   3.386   6.649
 1814SOL    HW217474   0.474   3.248   6.723
 1815SOL     OW17475   7.998   7.497   6.165
 1815SOL    HW117476   7.968   7.530   6.075
 1815SOL    HW217477   7.944   7.417   6.190
 1816SOL     OW17478   4.866   2.747   0.838
 1816SOL    HW117479   4.892   2.794   0.754
 1816SOL    HW217480   4.772   2.712   0.829
 1817SOL     OW17481   3.615   7.052   0.030
 1817SOL    HW117482   3.592   7.049   0.127
 1817SOL    HW217483   3.709   7.083   0.018
 1818SOL     OW17484   9.486   4.079   0.877
 1818SOL    HW117485   9.472   4.092   0.975
 1818SOL    HW217486   9.397   4.065   0.833
 1819SOL     OW17487   5.871   1.104   6.280
 1819SOL    HW117488   5.910   1.071   6.366
 1819SOL    HW217489   5.844   1.200   6.290
 1820SOL     OW17490   3.373   0.825   0.049
 1820SOL    HW117491   3.420   0.740   0.069
 1820SOL    HW217492   3.405   0.861  -0.039
 1821SOL     OW17493   4.655   8.418   0.606
 1821SOL    HW117494   4.693   8.376   0.689
 1821SOL    HW217495   4.704   8.383   0.526
 1822SOL     OW17496   7.121   8.113   5.219
 1822SOL    HW117497   7.206   8.159   5.193
 1822SOL    HW217498   7.059   8.178   5.261
 1823SOL     OW17499   6.238   6.435   5.431
 1823SOL    HW117500   6.181   6.353   5.436
 1823SOL    HW217501   6.238   6.471   5.338
 1824SOL     OW17502   5.841   1.690   1.613
 1824SOL    HW117503   5.836   1.593   1.636
 1824SOL    HW217504   5.774   1.740   1.668
 1825SOL     OW17505   5.804   0.213   0.255
 1825SOL    HW117506   5.712   0.227   0.292
 1825SOL    HW217507   5.860   0.293   0.277
 1826SOL     OW17508   2.353   3.806   0.989
 1826SOL    HW117509   2.380   3.876   1.054
 1826SOL    HW217510   2.303   3.848   0.913
 1827SOL     OW17511   7.452   6.151   0.158
 1827SOL    HW117512   7.527   6.086   0.162
 1827SOL    HW217513   7.463   6.210   0.078
 1828SOL     OW17514   6.505   1.113   1.969
 1828SOL    HW117515   6.505   1.045   2.043
 1828SOL    HW217516   6.519   1.067   1.881
 1829SOL     OW17517   7.707   6.382   0.254
 1829SOL    HW117518   7.660   6.415   0.336
 1829SOL    HW217519   7.751   6.459   0.207
 1830SOL     OW17520   9.109   0.954   0.119
 1830SOL    HW117521   9.180   0.898   0.161
 1830SOL    HW217522   9.096   0.927   0.024
 1831SOL     OW17523   5.996   0.205   4.844
 1831SOL    HW117524   6.039   0.186   4.932
 1831SOL    HW217525   6.044   0.281   4.800
 1832SOL     OW17526   1.000   7.564   5.616
 1832SOL    HW117527   0.927   7.625   5.649
 1832SOL    HW217528   1.015   7.580   5.519
 1833SOL     OW17529   9.000   5.057   0.154
 1833SOL    HW117530   8.990   5.150   0.119
 1833SOL    HW217531   8.921   5.034   0.211
 1834SOL     OW17532   5.340   3.842   6.369
 1834SOL    HW117533   5.315   3.926   6.419
 1834SOL    HW217534   5.401   3.787   6.426
 1835SOL     OW17535   9.087   4.590   6.439
 1835SOL    HW117536   9.155   4.521   6.462
 1835SOL    HW217537   9.120   4.680   6.467
 1836SOL     OW17538   9.187   4.811   6.575
 1836SOL    HW117539   9.118   4.877   6.549
 1836SOL    HW217540   9.270   4.858   6.604
 1837SOL     OW17541   5.304   2.718   0.461
 1837SOL    HW117542   5.247   2.727   0.380
 1837SOL    HW217543   5.323   2.809   0.499
 1838SOL     OW17544   5.941   1.409   2.012
 1838SOL    HW117545   5.979   1.340   1.950
 1838SOL    HW217546   5.980   1.498   1.988
 1839SOL     OW17547   0.120   7.040   1.285
 1839SOL    HW117548   0.069   6.971   1.337
 1839SOL    HW217549   0.103   7.027   1.188
 1840SOL     OW17550   5.360   3.061   0.241
 1840SOL    HW117551   5.395   3.155   0.239
 1840SOL    HW217552   5.437   2.998   0.244
 1841SOL     OW17553   9.091   4.465   6.141
 1841SOL    HW117554   9.117   4.415   6.059
 1841SOL    HW217555   9.143   4.550   6.146
 1842SOL     OW17556   3.846   6.365   2.299
 1842SOL    HW117557   3.830   6.463   2.311
 1842SOL    HW217558   3.766   6.314   2.330
 1843SOL     OW17559   8.520   2.888   6.473
 1843SOL    HW117560   8.481   2.909   6.562
 1843SOL    HW217561   8.511   2.791   6.454
 1844SOL     OW17562   5.719   2.894   5.915
 1844SOL    HW117563   5.738   2.831   5.990
 1844SOL    HW217564   5.669   2.973   5.951
 1845SOL     OW17565   8.546   1.096   6.476
 1845SOL    HW117566   8.510   1.032   6.543
 1845SOL    HW217567   8.519   1.067   6.384
 1846SOL     OW17568   0.250   0.148   5.781
 1846SOL    HW117569   0.314   0.132   5.857
 1846SOL    HW217570   0.290   0.214   5.718
 1847SOL     OW17571   6.061   2.725   6.054
 1847SOL    HW117572   6.035   2.665   5.978
 1847SOL    HW217573   6.124   2.676   6.115
 1848SOL     OW17574   4.835   5.312   0.774
 1848SOL    HW117575   4.817   5.251   0.697
 1848SOL    HW217576   4.830   5.407   0.742
 1849SOL     OW17577   0.390   5.812   5.371
 1849SOL    HW117578   0.417   5.737   5.311
 1849SOL    HW217579   0.441   5.895   5.347
 1850SOL     OW17580   6.166   1.110   0.549
 1850SOL    HW117581   6.108   1.081   0.473
 1850SOL    HW217582   6.188   1.208   0.539
 1851SOL     OW17583   1.029   5.661   6.234
 1851SOL    HW117584   1.097   5.696   6.299
 1851SOL    HW217585   1.052   5.692   6.142
 1852SOL     OW17586   7.560   1.305   0.849
 1852SOL    HW117587   7.500   1.315   0.929
 1852SOL    HW217588   7.647   1.265   0.877
 1853SOL     OW17589   6.531   4.916   6.426
 1853SOL    HW117590   6.510   5.009   6.396
 1853SOL    HW217591   6.486   4.898   6.513
 1854SOL     OW17592   5.325   1.502   0.278
 1854SOL    HW117593   5.329   1.565   0.201
 1854SOL    HW217594   5.383   1.423   0.260
 1855SOL     OW17595   3.717   7.184   6.152
 1855SOL    HW117596   3.639   7.134   6.116
 1855SOL    HW217597   3.686   7.250   6.221
 1856SOL     OW17598   8.027   6.619   6.391
 1856SOL    HW117599   8.078   6.577   6.316
 1856SOL    HW217600   7.946   6.665   6.354
 1857SOL     OW17601   3.652   7.871   0.928
 1857SOL    HW117602   3.591   7.928   0.982
 1857SOL    HW217603   3.739   7.860   0.976
 1858SOL     OW17604   0.440   3.812   6.108
 1858SOL    HW117605   0.468   3.782   6.017
 1858SOL    HW217606   0.492   3.762   6.177
 1859SOL     OW17607   0.964   6.577   5.603
 1859SOL    HW117608   0.927   6.669   5.618
 1859SOL    HW217609   1.057   6.584   5.566
 1860SOL     OW17610   2.994   6.144   1.087
 1860SOL    HW117611   2.936   6.169   1.165
 1860SOL    HW217612   2.955   6.180   1.003
 1861SOL     OW17613   0.657   2.842   6.416
 1861SOL    HW117614   0.585   2.847   6.486
 1861SOL    HW217615   0.699   2.752   6.418
 1862SOL     OW17616   3.000   7.532   0.043
 1862SOL    HW117617   2.954   7.518   0.130
 1862SOL    HW217618   3.060   7.612   0.048
 1863SOL     OW17619   2.532   6.824   0.491
 1863SOL    HW117620   2.611   6.792   0.545
 1863SOL    HW217621   2.507   6.916   0.520
 1864SOL     OW17622   2.676   0.374   5.785
 1864SOL    HW117623   2.714   0.354   5.875
 1864SOL    HW217624   2.645   0.469   5.781
 1865SOL     OW17625   5.435   1.871   6.496
 1865SOL    HW117626   5.529   1.877   6.462
 1865SOL    HW217627   5.376   1.834   6.424
 1866SOL     OW17628   0.450   5.925   0.213
 1866SOL    HW117629   0.451   5.830   0.180
 1866SOL    HW217630   0.468   5.926   0.311
 1867SOL     OW17631   3.782   1.651   1.345
 1867SOL    HW117632   3.864   1.683   1.298
 1867SOL    HW217633   3.807   1.586   1.417
 1868SOL     OW17634   9.082   8.420   6.611
 1868SOL    HW117635   9.084   8.414   6.710
 1868SOL    HW217636   9.096   8.515   6.582
 1869SOL     OW17637   0.126   7.912   0.011
 1869SOL    HW117638   0.072   7.963  -0.056
 1869SOL    HW217639   0.139   7.818  -0.020
 1870SOL     OW17640   0.011   1.950   6.484
 1870SOL    HW117641   0.100   1.904   6.478
 1870SOL    HW217642  -0.045   1.906   6.555
 1871SOL     OW17643   4.802   1.241   1.252
 1871SOL    HW117644   4.791   1.143   1.234
 1871SOL    HW217645   4.872   1.254   1.322
 1872SOL     OW17646   2.662   3.250   0.472
 1872SOL    HW117647   2.753   3.267   0.435
 1872SOL    HW217648   2.622   3.336   0.504
 1873SOL     OW17649   1.962   1.528   0.921
 1873SOL    HW117650   1.949   1.437   0.883
 1873SOL    HW217651   2.059   1.546   0.934
 1874SOL     OW17652   6.605   8.328   6.294
 1874SOL    HW117653   6.691   8.291   6.328
 1874SOL    HW217654   6.570   8.268   6.221
 1875SOL     OW17655   3.410   3.600   6.294
 1875SOL    HW117656   3.406   3.582   6.392
 1875SOL    HW217657   3.503   3.587   6.262
 1876SOL     OW17658   7.897   5.087   5.285
 1876SOL    HW117659   7.886   5.150   5.362
 1876SOL    HW217660   7.867   4.995   5.312
 1877SOL     OW17661   0.012   6.796   0.211
 1877SOL    HW117662   0.030   6.884   0.256
 1877SOL    HW217663   0.001   6.810   0.113
 1878SOL     OW17664   4.524   4.664   5.922
 1878SOL    HW117665   4.493   4.710   6.006
 1878SOL    HW217666   4.465   4.586   5.904
 1879SOL     OW17667   3.057   0.944   6.248
 1879SOL    HW117668   3.033   0.985   6.336
 1879SOL    HW217669   2.999   0.864   6.231
 1880SOL     OW17670   3.655   1.398   0.278
 1880SOL    HW117671   3.672   1.381   0.375
 1880SOL    HW217672   3.574   1.455   0.267
 1881SOL     OW17673   3.835   7.485   6.728
 1881SOL    HW117674   3.898   7.545   6.778
 1881SOL    HW217675   3.869   7.391   6.732
 1882SOL     OW17676   1.975   0.838   1.003
 1882SOL    HW117677   1.937   0.830   0.911
 1882SOL    HW217678   1.974   0.934   1.031
 1883SOL     OW17679   0.278   6.143   5.590
 1883SOL    HW117680   0.193   6.104   5.626
 1883SOL    HW217681   0.342   6.158   5.665
 1884SOL     OW17682   1.935   5.474   6.575
 1884SOL    HW117683   1.849   5.471   6.524
 1884SOL    HW217684   1.920   5.519   6.663
 1885SOL     OW17685   1.747   5.066   6.655
 1885SOL    HW117686   1.702   5.137   6.602
 1885SOL    HW217687   1.840   5.096   6.678
 1886SOL     OW17688   0.849   6.164   0.023
 1886SOL    HW117689   0.897   6.143  -0.062
 1886SOL    HW217690   0.751   6.165   0.006
 1887SOL     OW17691   7.218   0.018   5.543
 1887SOL    HW117692   7.190   0.019   5.447
 1887SOL    HW217693   7.164   0.086   5.594
 1888SOL     OW17694   2.585   2.182   1.020
 1888SOL    HW117695   2.658   2.239   1.056
 1888SOL    HW217696   2.614   2.086   1.022
 1889SOL     OW17697   3.442   1.672   0.028
 1889SOL    HW117698   3.441   1.581  -0.015
 1889SOL    HW217699   3.477   1.739  -0.038
 1890SOL     OW17700   0.764   6.046   0.653
 1890SOL    HW117701   0.821   6.112   0.603
 1890SOL    HW217702   0.801   5.954   0.639
 1891SOL     OW17703   3.580   5.935   1.121
 1891SOL    HW117704   3.498   5.965   1.072
 1891SOL    HW217705   3.592   5.837   1.108
 1892SOL     OW17706   5.333   2.065   5.763
 1892SOL    HW117707   5.421   2.097   5.798
 1892SOL    HW217708   5.301   2.128   5.692
 1893SOL     OW17709   4.157   7.621   6.314
 1893SOL    HW117710   4.170   7.646   6.409
 1893SOL    HW217711   4.078   7.560   6.306
 1894SOL     OW17712   4.182   5.578   5.231
 1894SOL    HW117713   4.114   5.645   5.202
 1894SOL    HW217714   4.227   5.540   5.150
 1895SOL     OW17715   6.406   1.604   0.674
 1895SOL    HW117716   6.425   1.688   0.725
 1895SOL    HW217717   6.422   1.525   0.733
 1896SOL     OW17718   1.284   2.088   0.602
 1896SOL    HW117719   1.325   2.018   0.660
 1896SOL    HW217720   1.250   2.046   0.518
 1897SOL     OW17721   7.422   6.299   1.125
 1897SOL    HW117722   7.446   6.293   1.222
 1897SOL    HW217723   7.331   6.339   1.115
 1898SOL     OW17724   1.376   7.075   6.344
 1898SOL    HW117725   1.476   7.069   6.338
 1898SOL    HW217726   1.351   7.136   6.419
 1899SOL     OW17727   9.432   8.420   0.100
 1899SOL    HW117728   9.358   8.463   0.048
 1899SOL    HW217729   9.518   8.433   0.051
 1900SOL     OW17730   6.247   5.212   0.284
 1900SOL    HW117731   6.325   5.205   0.223
 1900SOL    HW217732   6.167   5.244   0.233
 1901SOL     OW17733   7.895   7.434   5.252
 1901SOL    HW117734   7.969   7.493   5.220
 1901SOL    HW217735   7.821   7.491   5.288
 1902SOL     OW17736   2.509   3.032   0.492
 1902SOL    HW117737   2.539   2.979   0.413
 1902SOL    HW217738   2.572   3.109   0.506
 1903SOL     OW17739   3.458   1.153   0.636
 1903SOL    HW117740   3.529   1.170   0.567
 1903SOL    HW217741   3.501   1.135   0.724
 1904SOL     OW17742   7.765   0.610   4.857
 1904SOL    HW117743   7.700   0.669   4.809
 1904SOL    HW217744   7.858   0.638   4.836
 1905SOL     OW17745   7.029   0.728   5.618
 1905SOL    HW117746   7.028   0.828   5.607
 1905SOL    HW217747   7.123   0.696   5.622
 1906SOL     OW17748   0.168   2.259   5.922
 1906SOL    HW117749   0.138   2.215   6.007
 1906SOL    HW217750   0.165   2.358   5.933
 1907SOL     OW17751   4.127   5.907   6.275
 1907SOL    HW117752   4.158   5.834   6.214
 1907SOL    HW217753   4.194   5.918   6.349
 1908SOL     OW17754   0.931   1.329   0.687
 1908SOL    HW117755   0.843   1.347   0.642
 1908SOL    HW217756   0.937   1.232   0.711
 1909SOL     OW17757   4.096   7.972   2.174
 1909SOL    HW117758   4.054   7.964   2.264
 1909SOL    HW217759   4.045   8.037   2.118
 1910SOL     OW17760   5.434   6.289   1.549
 1910SOL    HW117761   5.465   6.359   1.614
 1910SOL    HW217762   5.495   6.289   1.469
 1911SOL     OW17763   6.980   8.359   5.162
 1911SOL    HW117764   6.904   8.421   5.145
 1911SOL    HW217765   7.002   8.310   5.077
 1912SOL     OW17766   4.553   0.579   0.547
 1912SOL    HW117767   4.520   0.506   0.607
 1912SOL    HW217768   4.560   0.664   0.600
 1913SOL     OW17769   0.597   7.418   0.775
 1913SOL    HW117770   0.632   7.342   0.721
 1913SOL    HW217771   0.498   7.408   0.786
 1914SOL     OW17772   4.590   4.160   5.911
 1914SOL    HW117773   4.587   4.089   5.981
 1914SOL    HW217774   4.505   4.157   5.857
 1915SOL     OW17775   5.962   5.504   0.981
 1915SOL    HW117776   5.893   5.546   0.921
 1915SOL    HW217777   5.934   5.515   1.076
 1916SOL     OW17778   9.312   7.879   4.983
 1916SOL    HW117779   9.262   7.871   4.897
 1916SOL    HW217780   9.372   7.959   4.979
 1917SOL     OW17781   1.122   6.191   5.539
 1917SOL    HW117782   1.082   6.170   5.628
 1917SOL    HW217783   1.195   6.259   5.550
 1918SOL     OW17784   5.799   8.431   0.258
 1918SOL    HW117785   5.800   8.530   0.242
 1918SOL    HW217786   5.824   8.383   0.174
 1919SOL     OW17787   4.826   4.332   6.120
 1919SOL    HW117788   4.872   4.249   6.153
 1919SOL    HW217789   4.736   4.308   6.085
 1920SOL     OW17790   7.066   7.749   0.234
 1920SOL    HW117791   6.974   7.723   0.204
 1920SOL    HW217792   7.132   7.725   0.163
 1921SOL     OW17793   0.456   8.249   0.432
 1921SOL    HW117794   0.501   8.203   0.355
 1921SOL    HW217795   0.499   8.219   0.517
 1922SOL     OW17796   7.839   4.426   6.295
 1922SOL    HW117797   7.894   4.484   6.236
 1922SOL    HW217798   7.743   4.454   6.289
 1923SOL     OW17799   3.713   6.302   0.746
 1923SOL    HW117800   3.633   6.323   0.802
 1923SOL    HW217801   3.770   6.235   0.793
 1924SOL     OW17802   2.207   4.743   0.305
 1924SOL    HW117803   2.162   4.684   0.372
 1924SOL    HW217804   2.299   4.708   0.286
 1925SOL     OW17805   5.236   8.290   0.861
 1925SOL    HW117806   5.169   8.286   0.787
 1925SOL    HW217807   5.319   8.240   0.835
 1926SOL     OW17808   6.707   3.157   6.557
 1926SOL    HW117809   6.627   3.144   6.615
 1926SOL    HW217810   6.790   3.145   6.613
 1927SOL     OW17811   0.545   6.757   4.463
 1927SOL    HW117812   0.626   6.699   4.476
 1927SOL    HW217813   0.467   6.700   4.439
 1928SOL     OW17814   0.837   6.546   0.400
 1928SOL    HW117815   0.779   6.620   0.365
 1928SOL    HW217816   0.917   6.585   0.445
 1929SOL     OW17817   2.866   4.225   0.016
 1929SOL    HW117818   2.797   4.297   0.021
 1929SOL    HW217819   2.872   4.190  -0.078
 1930SOL     OW17820   1.253   2.456   5.892
 1930SOL    HW117821   1.232   2.539   5.943
 1930SOL    HW217822   1.338   2.469   5.840
 1931SOL     OW17823   5.564   5.583   6.336
 1931SOL    HW117824   5.575   5.576   6.237
 1931SOL    HW217825   5.550   5.492   6.375
 1932SOL     OW17826   3.282   3.208   0.261
 1932SOL    HW117827   3.379   3.196   0.237
 1932SOL    HW217828   3.227   3.198   0.178
 1933SOL     OW17829   0.182   8.204   0.383
 1933SOL    HW117830   0.203   8.217   0.286
 1933SOL    HW217831   0.117   8.128   0.394
 1934SOL     OW17832   4.791   6.105   5.885
 1934SOL    HW117833   4.778   6.127   5.788
 1934SOL    HW217834   4.864   6.163   5.922
 1935SOL     OW17835   1.367   6.225   1.337
 1935SOL    HW117836   1.291   6.283   1.306
 1935SOL    HW217837   1.365   6.138   1.287
 1936SOL     OW17838   2.670   4.260   0.621
 1936SOL    HW117839   2.664   4.249   0.720
 1936SOL    HW217840   2.682   4.171   0.578
 1937SOL     OW17841   9.016   2.252   5.330
 1937SOL    HW117842   9.011   2.352   5.326
 1937SOL    HW217843   9.038   2.223   5.423
 1938SOL     OW17844   1.481   5.859   0.436
 1938SOL    HW117845   1.510   5.825   0.347
 1938SOL    HW217846   1.387   5.832   0.454
 1939SOL     OW17847   9.327   3.539   0.934
 1939SOL    HW117848   9.255   3.489   0.983
 1939SOL    HW217849   9.305   3.636   0.933
 1940SOL     OW17850   3.642   2.478   6.342
 1940SOL    HW117851   3.660   2.571   6.375
 1940SOL    HW217852   3.718   2.447   6.285
 1941SOL     OW17853   3.159   5.059   0.668
 1941SOL    HW117854   3.179   4.961   0.674
 1941SOL    HW217855   3.076   5.079   0.720
 1942SOL     OW17856   2.777   7.990   6.269
 1942SOL    HW117857   2.702   7.926   6.255
 1942SOL    HW217858   2.772   8.026   6.362
 1943SOL     OW17859   7.791   3.902   0.446
 1943SOL    HW117860   7.805   3.982   0.389
 1943SOL    HW217861   7.693   3.883   0.455
 1944SOL     OW17862   0.283   0.749   6.336
 1944SOL    HW117863   0.324   0.713   6.420
 1944SOL    HW217864   0.351   0.747   6.263
 1945SOL     OW17865   3.500   1.437   6.637
 1945SOL    HW117866   3.586   1.465   6.594
 1945SOL    HW217867   3.508   1.342   6.667
 1946SOL     OW17868   7.562   8.060   6.533
 1946SOL    HW117869   7.535   7.964   6.542
 1946SOL    HW217870   7.501   8.118   6.587
 1947SOL     OW17871   2.549   0.647   0.136
 1947SOL    HW117872   2.595   0.703   0.206
 1947SOL    HW217873   2.617   0.606   0.076
 1948SOL     OW17874   5.138   5.874   6.368
 1948SOL    HW117875   5.104   5.954   6.417
 1948SOL    HW217876   5.084   5.794   6.393
 1949SOL     OW17877   8.562   6.529   4.910
 1949SOL    HW117878   8.557   6.441   4.863
 1949SOL    HW217879   8.506   6.596   4.861
 1950SOL     OW17880   8.513   0.957   0.632
 1950SOL    HW117881   8.583   0.953   0.704
 1950SOL    HW217882   8.432   1.004   0.667
 1951SOL     OW17883   8.382   6.644   0.549
 1951SOL    HW117884   8.452   6.677   0.613
 1951SOL    HW217885   8.314   6.716   0.535
 1952SOL     OW17886   5.902   7.180   0.491
 1952SOL    HW117887   5.883   7.082   0.488
 1952SOL    HW217888   5.847   7.227   0.423
 1953SOL     OW17889   7.905   3.403   1.076
 1953SOL    HW117890   7.920   3.307   1.052
 1953SOL    HW217891   7.809   3.417   1.101
 1954SOL     OW17892   6.858   5.937   5.902
 1954SOL    HW117893   6.877   5.986   5.817
 1954SOL    HW217894   6.759   5.931   5.917
 1955SOL     OW17895   6.488   6.442   1.133
 1955SOL    HW117896   6.431   6.521   1.111
 1955SOL    HW217897   6.473   6.415   1.228
 1956SOL     OW17898   2.569   8.294   6.308
 1956SOL    HW117899   2.508   8.261   6.379
 1956SOL    HW217900   2.660   8.312   6.347
 1957SOL     OW17901   7.654   1.989   6.591
 1957SOL    HW117902   7.695   1.905   6.555
 1957SOL    HW217903   7.711   2.067   6.565
 1958SOL     OW17904   0.697   7.489   4.924
 1958SOL    HW117905   0.635   7.426   4.969
 1958SOL    HW217906   0.741   7.548   4.992
 1959SOL     OW17907   4.185   2.466   0.222
 1959SOL    HW117908   4.099   2.511   0.200
 1959SOL    HW217909   4.244   2.530   0.272
 1960SOL     OW17910   4.554   5.250   0.100
 1960SOL    HW117911   4.471   5.226   0.151
 1960SOL    HW217912   4.574   5.178   0.033
 1961SOL     OW17913   0.322   2.142   6.311
 1961SOL    HW117914   0.300   2.083   6.234
 1961SOL    HW217915   0.411   2.185   6.295
 1962SOL     OW17916   1.020   6.849   0.448
 1962SOL    HW117917   1.025   6.759   0.490
 1962SOL    HW217918   1.096   6.905   0.481
 1963SOL     OW17919   1.495   0.143   0.712
 1963SOL    HW117920   1.527   0.117   0.803
 1963SOL    HW217921   1.574   0.155   0.651
 1964SOL     OW17922   2.474   5.490   0.609
 1964SOL    HW117923   2.561   5.444   0.591
 1964SOL    HW217924   2.425   5.503   0.523
 1965SOL     OW17925   1.263   3.120   5.420
 1965SOL    HW117926   1.284   3.140   5.324
 1965SOL    HW217927   1.323   3.175   5.478
 1966SOL     OW17928   2.872   8.382   6.442
 1966SOL    HW117929   2.791   8.417   6.489
 1966SOL    HW217930   2.914   8.456   6.389
 1967SOL     OW17931   0.270   6.871   6.676
 1967SOL    HW117932   0.284   6.812   6.756
 1967SOL    HW217933   0.172   6.877   6.656
 1968SOL     OW17934   2.651   5.159   6.139
 1968SOL    HW117935   2.566   5.129   6.182
 1968SOL    HW217936   2.653   5.258   6.132
 1969SOL     OW17937   7.606   6.104   5.167
 1969SOL    HW117938   7.541   6.177   5.184
 1969SOL    HW217939   7.665   6.128   5.090
 1970SOL     OW17940   4.174   0.132   1.464
 1970SOL    HW117941   4.141   0.040   1.445
 1970SOL    HW217942   4.226   0.132   1.549
 1971SOL     OW17943   4.165   5.150   0.795
 1971SOL    HW117944   4.223   5.119   0.720
 1971SOL    HW217945   4.113   5.230   0.765
 1972SOL     OW17946   1.065   3.791   4.913
 1972SOL    HW117947   1.093   3.876   4.867
 1972SOL    HW217948   1.050   3.720   4.844
 1973SOL     OW17949   1.308   5.654   5.279
 1973SOL    HW117950   1.261   5.732   5.319
 1973SOL    HW217951   1.294   5.655   5.179
 1974SOL     OW17952   8.340   1.176   5.461
 1974SOL    HW117953   8.392   1.132   5.388
 1974SOL    HW217954   8.342   1.275   5.449
 1975SOL     OW17955   4.530   4.918   5.635
 1975SOL    HW117956   4.611   4.862   5.616
 1975SOL    HW217957   4.451   4.878   5.588
 1976SOL     OW17958   6.538   6.178   5.856
 1976SOL    HW117959   6.548   6.083   5.826
 1976SOL    HW217960   6.592   6.238   5.797
 1977SOL     OW17961   0.589   8.168   0.639
 1977SOL    HW117962   0.528   8.195   0.714
 1977SOL    HW217963   0.674   8.132   0.677
 1978SOL     OW17964   4.385   8.249   6.387
 1978SOL    HW117965   4.424   8.199   6.309
 1978SOL    HW217966   4.453   8.313   6.423
 1979SOL     OW17967   2.180   0.554   1.377
 1979SOL    HW117968   2.179   0.643   1.422
 1979SOL    HW217969   2.092   0.509   1.389
 1980SOL     OW17970   4.478   4.806   6.511
 1980SOL    HW117971   4.417   4.850   6.445
 1980SOL    HW217972   4.569   4.796   6.471
 1981SOL     OW17973   1.606   4.217   5.500
 1981SOL    HW117974   1.572   4.309   5.521
 1981SOL    HW217975   1.671   4.222   5.424
 1982SOL     OW17976   8.918   3.434   1.550
 1982SOL    HW117977   9.005   3.386   1.562
 1982SOL    HW217978   8.894   3.482   1.635
 1983SOL     OW17979   7.214   6.128   1.252
 1983SOL    HW117980   7.296   6.092   1.209
 1983SOL    HW217981   7.233   6.218   1.290
 1984SOL     OW17982   1.126   7.361   5.153
 1984SOL    HW117983   1.151   7.291   5.219
 1984SOL    HW217984   1.037   7.338   5.112
 1985SOL     OW17985   4.376   0.003   6.045
 1985SOL    HW117986   4.291  -0.010   6.096
 1985SOL    HW217987   4.377  -0.057   5.965
 1986SOL     OW17988   7.528   5.286   4.980
 1986SOL    HW117989   7.489   5.349   4.913
 1986SOL    HW217990   7.599   5.332   5.033
 1987SOL     OW17991   6.988   3.165   5.468
 1987SOL    HW117992   6.972   3.074   5.429
 1987SOL    HW217993   7.040   3.220   5.403
 1988SOL     OW17994   0.062   3.957   1.347
 1988SOL    HW117995   0.152   3.912   1.353
 1988SOL    HW217996   0.029   3.978   1.438
 1989SOL     OW17997   2.302   5.552   6.031
 1989SOL    HW117998   2.285   5.465   6.077
 1989SOL    HW217999   2.333   5.620   6.098
 1990SOL     OW18000   4.876   8.163   5.664
 1990SOL    HW118001   4.874   8.091   5.594
 1990SOL    HW218002   4.954   8.147   5.725
 1991SOL     OW18003   2.248   2.256   0.194
 1991SOL    HW118004   2.279   2.342   0.154
 1991SOL    HW218005   2.320   2.187   0.185
 1992SOL     OW18006   9.195   3.304   6.055
 1992SOL    HW118007   9.266   3.244   6.092
 1992SOL    HW218008   9.172   3.274   5.962
 1993SOL     OW18009   2.739   4.633   6.658
 1993SOL    HW118010   2.782   4.631   6.568
 1993SOL    HW218011   2.691   4.547   6.674
 1994SOL     OW18012   3.577   4.437   1.816
 1994SOL    HW118013   3.485   4.467   1.840
 1994SOL    HW218014   3.617   4.388   1.893
 1995SOL     OW18015   8.593   3.687   6.087
 1995SOL    HW118016   8.519   3.711   6.024
 1995SOL    HW218017   8.583   3.741   6.171
 1996SOL     OW18018   4.829   1.972   6.160
 1996SOL    HW118019   4.929   1.975   6.151
 1996SOL    HW218020   4.805   1.981   6.257
 1997SOL     OW18021   2.360   4.718   0.882
 1997SOL    HW118022   2.433   4.733   0.816
 1997SOL    HW218023   2.290   4.659   0.842
 1998SOL     OW18024   7.433   1.283   1.136
 1998SOL    HW118025   7.441   1.191   1.096
 1998SOL    HW218026   7.414   1.275   1.234
 1999SOL     OW18027   1.824   2.121   0.077
 1999SOL    HW118028   1.822   2.125   0.177
 1999SOL    HW218029   1.744   2.168   0.040
 2000SOL     OW18030   6.143   7.408   5.318
 2000SOL    HW118031   6.056   7.368   5.345
 2000SOL    HW218032   6.149   7.410   5.218
 2001SOL     OW18033   0.512   1.927   5.185
 2001SOL    HW118034   0.591   1.910   5.127
 2001SOL    HW218035   0.441   1.974   5.133
 2002SOL     OW18036   3.602   7.136   1.311
 2002SOL    HW118037   3.511   7.170   1.334
 2002SOL    HW218038   3.664   7.213   1.298
 2003SOL     OW18039   0.998   3.773   5.802
 2003SOL    HW118040   1.073   3.798   5.863
 2003SOL    HW218041   0.928   3.844   5.805
 2004SOL     OW18042   3.679   6.270   1.693
 2004SOL    HW118043   3.593   6.320   1.693
 2004SOL    HW218044   3.661   6.173   1.676
 2005SOL     OW18045   1.385   6.625   4.869
 2005SOL    HW118046   1.478   6.627   4.906
 2005SOL    HW218047   1.379   6.686   4.790
 2006SOL     OW18048   4.028   1.602   0.771
 2006SOL    HW118049   3.978   1.549   0.839
 2006SOL    HW218050   3.994   1.696   0.770
 2007SOL     OW18051   5.943   4.813   6.001
 2007SOL    HW118052   5.915   4.881   6.068
 2007SOL    HW218053   6.040   4.791   6.013
 2008SOL     OW18054   1.394   8.445   1.082
 2008SOL    HW118055   1.348   8.357   1.070
 2008SOL    HW218056   1.326   8.518   1.090
 2009SOL     OW18057   9.419   1.767   0.627
 2009SOL    HW118058   9.324   1.792   0.607
 2009SOL    HW218059   9.459   1.722   0.547
 2010SOL     OW18060   9.130   2.458   6.320
 2010SOL    HW118061   9.180   2.540   6.349
 2010SOL    HW218062   9.091   2.413   6.401
 2011SOL     OW18063   6.143   7.766   0.855
 2011SOL    HW118064   6.209   7.710   0.906
 2011SOL    HW218065   6.076   7.805   0.918
 2012SOL     OW18066   0.033   1.163   6.474
 2012SOL    HW118067   0.084   1.249   6.465
 2012SOL    HW218068   0.093   1.092   6.510
 2013SOL     OW18069   0.924   5.660   5.094
 2013SOL    HW118070   0.946   5.748   5.053
 2013SOL    HW218071   0.930   5.667   5.194
 2014SOL     OW18072   3.550   3.352   6.692
 2014SOL    HW118073   3.569   3.402   6.777
 2014SOL    HW218074   3.478   3.400   6.641
 2015SOL     OW18075   2.529   7.018   4.971
 2015SOL    HW118076   2.489   6.933   4.938
 2015SOL    HW218077   2.528   7.086   4.897
 2016SOL     OW18078   6.706   5.147   0.780
 2016SOL    HW118079   6.754   5.157   0.867
 2016SOL    HW218080   6.610   5.176   0.791
 2017SOL     OW18081   9.357   3.229   0.130
 2017SOL    HW118082   9.322   3.200   0.219
 2017SOL    HW218083   9.370   3.150   0.071
 2018SOL     OW18084   7.984   7.010   0.217
 2018SOL    HW118085   7.898   6.973   0.182
 2018SOL    HW218086   7.967   7.097   0.263
 2019SOL     OW18087   9.387   2.493   1.077
 2019SOL    HW118088   9.428   2.423   1.018
 2019SOL    HW218089   9.332   2.448   1.147
 2020SOL     OW18090   1.414   7.579   0.448
 2020SOL    HW118091   1.396   7.599   0.352
 2020SOL    HW218092   1.472   7.498   0.455
 2021SOL     OW18093   5.823   5.050   0.881
 2021SOL    HW118094   5.894   5.067   0.813
 2021SOL    HW218095   5.762   4.978   0.848
 2022SOL     OW18096   5.044   0.385   5.990
 2022SOL    HW118097   5.035   0.417   6.085
 2022SOL    HW218098   4.955   0.350   5.959
 2023SOL     OW18099   7.705   4.044   6.620
 2023SOL    HW118100   7.647   3.964   6.638
 2023SOL    HW218101   7.647   4.124   6.602
 2024SOL     OW18102   6.344   5.078   5.928
 2024SOL    HW118103   6.416   5.085   5.859
 2024SOL    HW218104   6.379   5.031   6.008
 2025SOL     OW18105   2.177   4.923   6.000
 2025SOL    HW118106   2.145   5.000   5.945
 2025SOL    HW218107   2.270   4.941   6.032
 2026SOL     OW18108   0.353   5.778   6.632
 2026SOL    HW118109   0.389   5.862   6.593
 2026SOL    HW218110   0.269   5.753   6.585
 2027SOL     OW18111   4.277   6.352   2.111
 2027SOL    HW118112   4.328   6.436   2.094
 2027SOL    HW218113   4.293   6.321   2.204
 2028SOL     OW18114   1.004   5.892   6.467
 2028SOL    HW118115   1.097   5.859   6.453
 2028SOL    HW218116   0.981   5.889   6.564
 2029SOL     OW18117   8.283   6.336   6.428
 2029SOL    HW118118   8.236   6.261   6.382
 2029SOL    HW218119   8.381   6.316   6.434
 2030SOL     OW18120   9.031   3.151   1.023
 2030SOL    HW118121   9.123   3.112   1.023
 2030SOL    HW218122   9.013   3.194   0.934
 2031SOL     OW18123   3.036   1.177   0.220
 2031SOL    HW118124   2.968   1.106   0.239
 2031SOL    HW218125   2.991   1.266   0.216
 2032SOL     OW18126   7.290   8.194   5.709
 2032SOL    HW118127   7.232   8.274   5.727
 2032SOL    HW218128   7.240   8.111   5.732
 2033SOL     OW18129   1.132   2.836   0.739
 2033SOL    HW118130   1.191   2.916   0.748
 2033SOL    HW218131   1.123   2.790   0.827
 2034SOL     OW18132   5.618   2.114   6.249
 2034SOL    HW118133   5.705   2.158   6.269
 2034SOL    HW218134   5.544   2.161   6.297
 2035SOL     OW18135   4.687   0.134   1.027
 2035SOL    HW118136   4.778   0.093   1.016
 2035SOL    HW218137   4.686   0.222   0.979
 2036SOL     OW18138   1.711   8.419   5.292
 2036SOL    HW118139   1.617   8.449   5.272
 2036SOL    HW218140   1.739   8.350   5.226
 2037SOL     OW18141   7.032   4.064   1.170
 2037SOL    HW118142   6.966   3.998   1.207
 2037SOL    HW218143   6.989   4.114   1.094
 2038SOL     OW18144   0.104   5.082   0.140
 2038SOL    HW118145   0.179   5.145   0.118
 2038SOL    HW218146   0.023   5.135   0.164
 2039SOL     OW18147   3.992   4.969   0.928
 2039SOL    HW118148   4.011   4.983   1.025
 2039SOL    HW218149   4.057   5.022   0.873
 2040SOL     OW18150   8.111   3.805   5.591
 2040SOL    HW118151   8.069   3.829   5.504
 2040SOL    HW218152   8.041   3.773   5.654
 2041SOL     OW18153   4.469   1.129   1.778
 2041SOL    HW118154   4.436   1.153   1.870
 2041SOL    HW218155   4.469   1.029   1.768
 2042SOL     OW18156   2.479   2.153   6.411
 2042SOL    HW118157   2.389   2.185   6.440
 2042SOL    HW218158   2.477   2.136   6.312
 2043SOL     OW18159   4.437   7.701   1.127
 2043SOL    HW118160   4.408   7.621   1.179
 2043SOL    HW218161   4.404   7.692   1.032
 2044SOL     OW18162   6.943   2.263   0.499
 2044SOL    HW118163   6.997   2.343   0.472
 2044SOL    HW218164   6.998   2.203   0.556
 2045SOL     OW18165   6.661   6.245   6.696
 2045SOL    HW118166   6.637   6.163   6.750
 2045SOL    HW218167   6.655   6.224   6.599
 2046SOL     OW18168   3.363   1.983   6.624
 2046SOL    HW118169   3.283   1.928   6.600
 2046SOL    HW218170   3.437   1.964   6.560
 2047SOL     OW18171   8.103   0.174   5.790
 2047SOL    HW118172   8.085   0.078   5.813
 2047SOL    HW218173   8.113   0.227   5.874
 2048SOL     OW18174   6.534   8.088   6.615
 2048SOL    HW118175   6.528   8.029   6.534
 2048SOL    HW218176   6.512   8.034   6.697
 2049SOL     OW18177   8.341   4.587   5.546
 2049SOL    HW118178   8.284   4.515   5.585
 2049SOL    HW218179   8.291   4.631   5.471
 2050SOL     OW18180   8.226   4.101   5.945
 2050SOL    HW118181   8.275   4.095   5.858
 2050SOL    HW218182   8.186   4.193   5.954
 2051SOL     OW18183   6.952   5.370   6.598
 2051SOL    HW118184   6.860   5.410   6.601
 2051SOL    HW218185   6.949   5.277   6.633
 2052SOL     OW18186   3.339   4.494   0.189
 2052SOL    HW118187   3.311   4.551   0.112
 2052SOL    HW218188   3.421   4.532   0.231
 2053SOL     OW18189   8.709   6.232   4.367
 2053SOL    HW118190   8.800   6.271   4.380
 2053SOL    HW218191   8.652   6.296   4.316
 2054SOL     OW18192   8.799   3.312   0.219
 2054SOL    HW118193   8.854   3.347   0.143
 2054SOL    HW218194   8.716   3.368   0.229
 2055SOL     OW18195   3.953   8.122   0.288
 2055SOL    HW118196   3.988   8.104   0.196
 2055SOL    HW218197   3.947   8.036   0.338
 2056SOL     OW18198   3.814   6.107   0.167
 2056SOL    HW118199   3.849   6.079   0.078
 2056SOL    HW218200   3.820   6.031   0.232
 2057SOL     OW18201   3.821   1.888   6.322
 2057SOL    HW118202   3.754   1.856   6.255
 2057SOL    HW218203   3.901   1.827   6.321
 2058SOL     OW18204   3.260   3.251   5.425
 2058SOL    HW118205   3.240   3.251   5.327
 2058SOL    HW218206   3.338   3.312   5.443
 2059SOL     OW18207   2.868   3.995   0.182
 2059SOL    HW118208   2.824   3.925   0.126
 2059SOL    HW218209   2.862   4.083   0.136
 2060SOL     OW18210   1.407   7.990   1.378
 2060SOL    HW118211   1.370   8.081   1.359
 2060SOL    HW218212   1.485   7.997   1.440
 2061SOL     OW18213   8.748   5.335   0.454
 2061SOL    HW118214   8.685   5.394   0.404
 2061SOL    HW218215   8.818   5.392   0.498
 2062SOL     OW18216   3.363   7.264   0.511
 2062SOL    HW118217   3.333   7.200   0.581
 2062SOL    HW218218   3.285   7.289   0.453
 2063SOL     OW18219   3.581   5.623   1.226
 2063SOL    HW118220   3.528   5.668   1.299
 2063SOL    HW218221   3.672   5.664   1.220
 2064SOL     OW18222   9.309   7.360   0.091
 2064SOL    HW118223   9.401   7.378   0.125
 2064SOL    HW218224   9.268   7.446   0.060
 2065SOL     OW18225   6.234   5.369   5.785
 2065SOL    HW118226   6.246   5.275   5.753
 2065SOL    HW218227   6.295   5.429   5.732
 2066SOL     OW18228   8.174   0.784   0.124
 2066SOL    HW118229   8.093   0.819   0.171
 2066SOL    HW218230   8.256   0.818   0.171
 2067SOL     OW18231   4.901   3.828   0.068
 2067SOL    HW118232   4.831   3.866   0.129
 2067SOL    HW218233   4.944   3.902   0.017
 2068SOL     OW18234   1.362   2.227   5.066
 2068SOL    HW118235   1.273   2.191   5.037
 2068SOL    HW218236   1.423   2.232   4.987
 2069SOL     OW18237   2.296   7.600   0.333
 2069SOL    HW118238   2.258   7.508   0.335
 2069SOL    HW218239   2.257   7.651   0.256
 2070SOL     OW18240   2.896   5.368   6.577
 2070SOL    HW118241   2.925   5.452   6.531
 2070SOL    HW218242   2.963   5.345   6.648
 2071SOL     OW18243   6.991   7.684   6.327
 2071SOL    HW118244   7.001   7.694   6.228
 2071SOL    HW218245   6.906   7.727   6.357
 2072SOL     OW18246   8.887   4.477   6.705
 2072SOL    HW118247   8.985   4.482   6.685
 2072SOL    HW218248   8.836   4.473   6.620
 2073SOL     OW18249   5.675   0.970   5.799
 2073SOL    HW118250   5.664   0.888   5.743
 2073SOL    HW218251   5.681   1.050   5.740
 2074SOL     OW18252   8.064   1.699   0.477
 2074SOL    HW118253   8.071   1.599   0.468
 2074SOL    HW218254   8.156   1.737   0.489
 2075SOL     OW18255   4.975   3.123   1.315
 2075SOL    HW118256   4.932   3.039   1.350
 2075SOL    HW218257   5.051   3.149   1.375
 2076SOL     OW18258   1.529   3.087   5.202
 2076SOL    HW118259   1.434   3.114   5.188
 2076SOL    HW218260   1.579   3.093   5.115
 2077SOL     OW18261   9.437   6.167   4.271
 2077SOL    HW118262   9.437   6.251   4.325
 2077SOL    HW218263   9.400   6.185   4.180
 2078SOL     OW18264   6.389   7.865   0.430
 2078SOL    HW118265   6.293   7.842   0.413
 2078SOL    HW218266   6.400   7.964   0.427
 2079SOL     OW18267   7.889   4.380   0.094
 2079SOL    HW118268   7.930   4.303   0.045
 2079SOL    HW218269   7.961   4.434   0.138
 2080SOL     OW18270   2.212   7.665   4.813
 2080SOL    HW118271   2.266   7.657   4.729
 2080SOL    HW218272   2.121   7.627   4.798
 2081SOL     OW18273   1.164   2.250   0.041
 2081SOL    HW118274   1.214   2.189  -0.021
 2081SOL    HW218275   1.111   2.196   0.106
 2082SOL     OW18276   4.420   1.953   1.455
 2082SOL    HW118277   4.478   2.034   1.465
 2082SOL    HW218278   4.392   1.921   1.545
 2083SOL     OW18279   1.032   4.468   6.119
 2083SOL    HW118280   1.032   4.456   6.218
 2083SOL    HW218281   1.127   4.466   6.086
 2084SOL     OW18282   4.959   2.928   0.574
 2084SOL    HW118283   5.011   2.979   0.506
 2084SOL    HW218284   5.013   2.919   0.658
 2085SOL     OW18285   4.423   2.514   5.879
 2085SOL    HW118286   4.519   2.543   5.870
 2085SOL    HW218287   4.393   2.471   5.794
 2086SOL     OW18288   7.768   2.586   6.193
 2086SOL    HW118289   7.709   2.566   6.271
 2086SOL    HW218290   7.854   2.625   6.225
 2087SOL     OW18291   9.238   7.198   0.326
 2087SOL    HW118292   9.242   7.248   0.240
 2087SOL    HW218293   9.330   7.192   0.365
 2088SOL     OW18294   3.887   7.656   5.497
 2088SOL    HW118295   3.943   7.668   5.416
 2088SOL    HW218296   3.923   7.712   5.572
 2089SOL     OW18297   0.935   5.128   6.307
 2089SOL    HW118298   0.989   5.208   6.332
 2089SOL    HW218299   0.989   5.068   6.248
 2090SOL     OW18300   3.671   0.944   1.033
 2090SOL    HW118301   3.585   0.912   1.072
 2090SOL    HW218302   3.653   1.021   0.972
 2091SOL     OW18303   5.670   0.609   0.505
 2091SOL    HW118304   5.599   0.566   0.561
 2091SOL    HW218305   5.662   0.709   0.513
 2092SOL     OW18306   0.148   6.595   6.257
 2092SOL    HW118307   0.243   6.604   6.226
 2092SOL    HW218308   0.125   6.498   6.264
 2093SOL     OW18309   7.453   5.738   0.140
 2093SOL    HW118310   7.357   5.753   0.118
 2093SOL    HW218311   7.479   5.644   0.118
 2094SOL     OW18312   2.032   1.652   6.731
 2094SOL    HW118313   2.066   1.744   6.711
 2094SOL    HW218314   2.037   1.635   6.830
 2095SOL     OW18315   0.864   4.083   0.552
 2095SOL    HW118316   0.937   4.149   0.572
 2095SOL    HW218317   0.783   4.132   0.521
 2096SOL     OW18318   5.486   0.697   1.106
 2096SOL    HW118319   5.567   0.664   1.058
 2096SOL    HW218320   5.443   0.769   1.053
 2097SOL     OW18321   7.265   6.137   4.959
 2097SOL    HW118322   7.195   6.162   4.891
 2097SOL    HW218323   7.350   6.113   4.911
 2098SOL     OW18324   0.530   3.574   6.259
 2098SOL    HW118325   0.611   3.568   6.316
 2098SOL    HW218326   0.534   3.503   6.188
 2099SOL     OW18327   7.842   4.599   0.641
 2099SOL    HW118328   7.799   4.671   0.696
 2099SOL    HW218329   7.916   4.556   0.693
 2100SOL     OW18330   1.081   3.101   0.478
 2100SOL    HW118331   1.099   3.180   0.419
 2100SOL    HW218332   1.050   3.025   0.422
 2101SOL     OW18333   3.582   2.243   2.087
 2101SOL    HW118334   3.617   2.166   2.140
 2101SOL    HW218335   3.546   2.312   2.149
 2102SOL     OW18336   7.198   5.071   0.738
 2102SOL    HW118337   7.215   5.167   0.715
 2102SOL    HW218338   7.101   5.050   0.727
 2103SOL     OW18339   5.569   3.497   0.384
 2103SOL    HW118340   5.547   3.409   0.426
 2103SOL    HW218341   5.594   3.563   0.455
 2104SOL     OW18342   5.273   1.201   1.305
 2104SOL    HW118343   5.319   1.287   1.327
 2104SOL    HW218344   5.214   1.174   1.382
 2105SOL     OW18345   2.341   2.715   1.322
 2105SOL    HW118346   2.427   2.766   1.316
 2105SOL    HW218347   2.271   2.761   1.268
 2106SOL     OW18348   9.257   5.011   0.232
 2106SOL    HW118349   9.170   5.023   0.185
 2106SOL    HW218350   9.261   4.920   0.272
 2107SOL     OW18351   4.050   0.232   5.482
 2107SOL    HW118352   4.112   0.296   5.528
 2107SOL    HW218353   3.956   0.263   5.492
 2108SOL     OW18354   4.086   6.221   1.950
 2108SOL    HW118355   4.048   6.144   2.003
 2108SOL    HW218356   4.157   6.266   2.004
 2109SOL     OW18357   8.069   2.606   5.961
 2109SOL    HW118358   8.099   2.579   5.869
 2109SOL    HW218359   8.030   2.528   6.008
 2110SOL     OW18360   3.502   6.472   6.609
 2110SOL    HW118361   3.553   6.409   6.667
 2110SOL    HW218362   3.454   6.421   6.537
 2111SOL     OW18363   5.717   6.739   1.380
 2111SOL    HW118364   5.629   6.709   1.417
 2111SOL    HW218365   5.769   6.786   1.451
 2112SOL     OW18366   1.674   4.010   0.220
 2112SOL    HW118367   1.730   3.934   0.255
 2112SOL    HW218368   1.723   4.096   0.233
 2113SOL     OW18369   8.718   2.946   0.801
 2113SOL    HW118370   8.815   2.924   0.794
 2113SOL    HW218371   8.678   2.948   0.709
 2114SOL     OW18372   7.735   6.903   0.175
 2114SOL    HW118373   7.738   6.938   0.269
 2114SOL    HW218374   7.649   6.853   0.161
 2115SOL     OW18375   5.789   5.639   4.824
 2115SOL    HW118376   5.852   5.701   4.777
 2115SOL    HW218377   5.696   5.675   4.819
 2116SOL     OW18378   2.128   5.130   5.842
 2116SOL    HW118379   2.081   5.213   5.814
 2116SOL    HW218380   2.225   5.149   5.858
 2117SOL     OW18381   3.687   3.881   5.991
 2117SOL    HW118382   3.785   3.862   6.001
 2117SOL    HW218383   3.658   3.861   5.898
 2118SOL     OW18384   3.800   5.187   6.641
 2118SOL    HW118385   3.819   5.272   6.592
 2118SOL    HW218386   3.885   5.134   6.650
 2119SOL     OW18387   5.657   3.942   1.325
 2119SOL    HW118388   5.683   3.972   1.417
 2119SOL    HW218389   5.735   3.899   1.280
 2120SOL     OW18390   3.541   7.461   0.632
 2120SOL    HW118391   3.617   7.425   0.578
 2120SOL    HW218392   3.460   7.404   0.618
 2121SOL     OW18393   2.411   5.759   5.787
 2121SOL    HW118394   2.421   5.845   5.835
 2121SOL    HW218395   2.496   5.706   5.794
 2122SOL     OW18396   1.781   6.804   0.745
 2122SOL    HW118397   1.834   6.777   0.826
 2122SOL    HW218398   1.696   6.847   0.773
 2123SOL     OW18399   1.045   7.959   0.879
 2123SOL    HW118400   1.070   7.968   0.975
 2123SOL    HW218401   1.049   7.862   0.852
 2124SOL     OW18402   4.084   3.085   0.970
 2124SOL    HW118403   4.030   3.078   0.886
 2124SOL    HW218404   4.153   3.012   0.972
 2125SOL     OW18405   4.537   2.435   0.234
 2125SOL    HW118406   4.449   2.475   0.208
 2125SOL    HW218407   4.527   2.385   0.320
 2126SOL     OW18408   4.597   7.053   6.105
 2126SOL    HW118409   4.649   6.995   6.043
 2126SOL    HW218410   4.648   7.138   6.121
 2127SOL     OW18411   7.564   5.276   0.439
 2127SOL    HW118412   7.479   5.295   0.390
 2127SOL    HW218413   7.596   5.184   0.416
 2128SOL     OW18414   8.096   5.495   6.070
 2128SOL    HW118415   8.104   5.575   6.010
 2128SOL    HW218416   8.186   5.452   6.081
 2129SOL     OW18417   0.228   7.287   4.688
 2129SOL    HW118418   0.304   7.301   4.751
 2129SOL    HW218419   0.228   7.192   4.656
 2130SOL     OW18420   5.883   5.482   6.103
 2130SOL    HW118421   5.881   5.386   6.131
 2130SOL    HW218422   5.877   5.540   6.184
 2131SOL     OW18423   0.388   6.187   5.052
 2131SOL    HW118424   0.480   6.215   5.028
 2131SOL    HW218425   0.328   6.267   5.053
 2132SOL     OW18426   9.434   8.353   4.812
 2132SOL    HW118427   9.335   8.362   4.803
 2132SOL    HW218428   9.478   8.440   4.788
 2133SOL     OW18429   8.062   6.076   5.800
 2133SOL    HW118430   8.046   6.130   5.717
 2133SOL    HW218431   8.111   6.131   5.867
 2134SOL     OW18432   4.271   1.170   6.474
 2134SOL    HW118433   4.338   1.180   6.548
 2134SOL    HW218434   4.238   1.261   6.448
 2135SOL     OW18435   5.322   3.356   0.607
 2135SOL    HW118436   5.352   3.432   0.665
 2135SOL    HW218437   5.400   3.316   0.559
 2136SOL     OW18438   0.496   0.848   6.159
 2136SOL    HW118439   0.575   0.786   6.157
 2136SOL    HW218440   0.527   0.941   6.142
 2137SOL     OW18441   6.046   1.236   0.298
 2137SOL    HW118442   6.122   1.244   0.234
 2137SOL    HW218443   6.038   1.321   0.351
 2138SOL     OW18444   2.929   5.350   1.359
 2138SOL    HW118445   2.844   5.379   1.316
 2138SOL    HW218446   2.949   5.409   1.437
 2139SOL     OW18447   3.058   5.858   1.068
 2139SOL    HW118448   3.156   5.879   1.078
 2139SOL    HW218449   3.005   5.942   1.076
 2140SOL     OW18450   1.811   6.391   6.293
 2140SOL    HW118451   1.838   6.465   6.233
 2140SOL    HW218452   1.743   6.424   6.359
 2141SOL     OW18453   1.992   8.211   6.701
 2141SOL    HW118454   2.074   8.207   6.758
 2141SOL    HW218455   1.915   8.244   6.756
 2142SOL     OW18456   4.435   6.387   6.234
 2142SOL    HW118457   4.407   6.301   6.192
 2142SOL    HW218458   4.364   6.456   6.221
 2143SOL     OW18459   0.107   1.667   6.028
 2143SOL    HW118460   0.202   1.693   6.044
 2143SOL    HW218461   0.059   1.656   6.115
 2144SOL     OW18462   6.911   8.005   6.348
 2144SOL    HW118463   7.007   7.982   6.331
 2144SOL    HW218464   6.858   7.991   6.265
 2145SOL     OW18465   1.220   3.761   6.392
 2145SOL    HW118466   1.244   3.702   6.469
 2145SOL    HW218467   1.278   3.738   6.313
 2146SOL     OW18468   4.888   5.626   0.951
 2146SOL    HW118469   4.929   5.543   0.990
 2146SOL    HW218470   4.944   5.658   0.875
 2147SOL     OW18471   6.819   5.256   5.483
 2147SOL    HW118472   6.799   5.195   5.406
 2147SOL    HW218473   6.919   5.261   5.496
 2148SOL     OW18474   1.095   4.805   1.803
 2148SOL    HW118475   1.194   4.806   1.815
 2148SOL    HW218476   1.071   4.751   1.723
 2149SOL     OW18477   7.725   8.317   5.470
 2149SOL    HW118478   7.657   8.375   5.514
 2149SOL    HW218479   7.785   8.372   5.413
 2150SOL     OW18480   1.156   2.914   6.178
 2150SOL    HW118481   1.196   3.002   6.151
 2150SOL    HW218482   1.065   2.906   6.137
 2151SOL     OW18483   1.112   3.582   5.953
 2151SOL    HW118484   1.021   3.621   5.966
 2151SOL    HW218485   1.148   3.611   5.864
 2152SOL     OW18486   6.571   8.353   6.696
 2152SOL    HW118487   6.494   8.413   6.675
 2152SOL    HW218488   6.551   8.260   6.664
 2153SOL     OW18489   1.162   7.880   4.819
 2153SOL    HW118490   1.255   7.848   4.798
 2153SOL    HW218491   1.164   7.979   4.833
 2154SOL     OW18492   9.306   3.256   5.626
 2154SOL    HW118493   9.406   3.250   5.630
 2154SOL    HW218494   9.279   3.305   5.543
 2155SOL     OW18495   8.348   2.847   5.809
 2155SOL    HW118496   8.431   2.902   5.798
 2155SOL    HW218497   8.313   2.822   5.718
 2156SOL     OW18498   8.333   1.583   6.364
 2156SOL    HW118499   8.252   1.546   6.319
 2156SOL    HW218500   8.399   1.510   6.378
 2157SOL     OW18501   6.926   1.593   6.118
 2157SOL    HW118502   6.843   1.623   6.072
 2157SOL    HW218503   7.001   1.587   6.051
 2158SOL     OW18504   1.948   6.495   6.632
 2158SOL    HW118505   1.854   6.462   6.638
 2158SOL    HW218506   2.010   6.428   6.671
 2159SOL     OW18507   4.432   1.815   0.799
 2159SOL    HW118508   4.378   1.760   0.735
 2159SOL    HW218509   4.373   1.849   0.872
 2160SOL     OW18510   3.710   4.276   6.538
 2160SOL    HW118511   3.688   4.354   6.596
 2160SOL    HW218512   3.772   4.304   6.465
 2161SOL     OW18513   4.978   0.321   1.214
 2161SOL    HW118514   5.051   0.322   1.283
 2161SOL    HW218515   4.960   0.227   1.186
 2162SOL     OW18516   6.918   5.773   6.414
 2162SOL    HW118517   7.011   5.737   6.406
 2162SOL    HW218518   6.910   5.857   6.361
 2163SOL     OW18519   3.381   7.316   1.985
 2163SOL    HW118520   3.386   7.372   2.068
 2163SOL    HW218521   3.470   7.316   1.939
 2164SOL     OW18522   2.990   4.548   0.003
 2164SOL    HW118523   3.047   4.568  -0.077
 2164SOL    HW218524   2.894   4.570  -0.018
 2165SOL     OW18525   3.207   1.348   0.764
 2165SOL    HW118526   3.306   1.359   0.773
 2165SOL    HW218527   3.163   1.364   0.852
 2166SOL     OW18528   0.925   5.565   0.815
 2166SOL    HW118529   0.869   5.538   0.893
 2166SOL    HW218530   1.009   5.511   0.814
 2167SOL     OW18531   5.329   3.461   5.524
 2167SOL    HW118532   5.343   3.371   5.566
 2167SOL    HW218533   5.410   3.485   5.471
 2168SOL     OW18534   0.746   3.659   6.451
 2168SOL    HW118535   0.819   3.721   6.421
 2168SOL    HW218536   0.784   3.567   6.465
 2169SOL     OW18537   3.053   5.606   5.896
 2169SOL    HW118538   3.141   5.593   5.850
 2169SOL    HW218539   3.062   5.677   5.966
 2170SOL     OW18540   4.210   6.950   0.931
 2170SOL    HW118541   4.256   7.002   1.002
 2170SOL    HW218542   4.124   6.914   0.966
 2171SOL     OW18543   0.365   2.341   6.638
 2171SOL    HW118544   0.461   2.322   6.615
 2171SOL    HW218545   0.350   2.440   6.638
 2172SOL     OW18546   2.742   7.060   6.000
 2172SOL    HW118547   2.642   7.069   6.005
 2172SOL    HW218548   2.785   7.148   6.019
 2173SOL     OW18549   2.390   2.497   0.176
 2173SOL    HW118550   2.393   2.510   0.276
 2173SOL    HW218551   2.312   2.548   0.139
 2174SOL     OW18552   0.354   6.670   6.037
 2174SOL    HW118553   0.302   6.671   5.952
 2174SOL    HW218554   0.371   6.763   6.067
 2175SOL     OW18555   1.421   2.943   0.544
 2175SOL    HW118556   1.511   2.942   0.498
 2175SOL    HW218557   1.404   3.033   0.583
 2176SOL     OW18558   6.943   5.559   6.177
 2176SOL    HW118559   6.874   5.530   6.111
 2176SOL    HW218560   6.920   5.651   6.211
 2177SOL     OW18561   7.340   2.164   5.883
 2177SOL    HW118562   7.380   2.255   5.894
 2177SOL    HW218563   7.262   2.169   5.821
 2178SOL     OW18564   1.946   2.492   0.532
 2178SOL    HW118565   2.016   2.562   0.542
 2178SOL    HW218566   1.990   2.405   0.508
 2179SOL     OW18567   5.944   3.033   0.300
 2179SOL    HW118568   5.925   3.129   0.280
 2179SOL    HW218569   5.968   3.023   0.397
 2180SOL     OW18570   3.347   0.060   0.837
 2180SOL    HW118571   3.414   0.057   0.763
 2180SOL    HW218572   3.261   0.019   0.806
 2181SOL     OW18573   8.840   5.415   0.985
 2181SOL    HW118574   8.851   5.514   0.986
 2181SOL    HW218575   8.805   5.384   1.074
 2182SOL     OW18576   1.603   5.818   0.163
 2182SOL    HW118577   1.591   5.728   0.204
 2182SOL    HW218578   1.581   5.814   0.066
 2183SOL     OW18579   6.065   5.639   6.636
 2183SOL    HW118580   6.010   5.556   6.631
 2183SOL    HW218581   6.135   5.629   6.707
 2184SOL     OW18582   0.469   7.234   6.561
 2184SOL    HW118583   0.388   7.284   6.531
 2184SOL    HW218584   0.539   7.299   6.592
 2185SOL     OW18585   8.893   1.423   5.786
 2185SOL    HW118586   8.962   1.489   5.755
 2185SOL    HW218587   8.803   1.466   5.785
 2186SOL     OW18588   3.783   6.704   6.121
 2186SOL    HW118589   3.707   6.656   6.165
 2186SOL    HW218590   3.791   6.796   6.158
 2187SOL     OW18591   5.727   7.275   0.303
 2187SOL    HW118592   5.695   7.181   0.292
 2187SOL    HW218593   5.654   7.330   0.342
 2188SOL     OW18594   2.610   0.852   6.567
 2188SOL    HW118595   2.535   0.898   6.616
 2188SOL    HW218596   2.576   0.769   6.524
 2189SOL     OW18597   5.718   0.671   0.199
 2189SOL    HW118598   5.728   0.646   0.295
 2189SOL    HW218599   5.691   0.591   0.146
 2190SOL     OW18600   8.737   4.175   0.290
 2190SOL    HW118601   8.765   4.088   0.330
 2190SOL    HW218602   8.814   4.215   0.240
 2191SOL     OW18603   4.997   7.846   5.210
 2191SOL    HW118604   5.074   7.808   5.158
 2191SOL    HW218605   4.936   7.895   5.148
 2192SOL     OW18606   2.905   8.289   0.658
 2192SOL    HW118607   2.866   8.351   0.591
 2192SOL    HW218608   2.991   8.251   0.623
 2193SOL     OW18609   9.466   7.499   1.727
 2193SOL    HW118610   9.422   7.534   1.809
 2193SOL    HW218611   9.525   7.569   1.687
 2194SOL     OW18612   1.817   7.345   6.637
 2194SOL    HW118613   1.871   7.428   6.651
 2194SOL    HW218614   1.873   7.265   6.657
 2195SOL     OW18615   5.254   7.845   5.079
 2195SOL    HW118616   5.218   7.799   4.998
 2195SOL    HW218617   5.348   7.874   5.062
 2196SOL     OW18618   6.189   0.710   1.461
 2196SOL    HW118619   6.269   0.697   1.519
 2196SOL    HW218620   6.112   0.742   1.517
 2197SOL     OW18621   3.812   7.300   1.342
 2197SOL    HW118622   3.874   7.284   1.419
 2197SOL    HW218623   3.825   7.393   1.308
 2198SOL     OW18624   3.377   7.203   1.408
 2198SOL    HW118625   3.336   7.114   1.425
 2198SOL    HW218626   3.382   7.254   1.494
 2199SOL     OW18627   8.291   5.898   6.231
 2199SOL    HW118628   8.246   5.822   6.278
 2199SOL    HW218629   8.230   5.935   6.161
 2200SOL     OW18630   9.341   8.247   1.009
 2200SOL    HW118631   9.374   8.284   1.096
 2200SOL    HW218632   9.300   8.321   0.955
 2201SOL     OW18633   4.713   3.562   6.443
 2201SOL    HW118634   4.741   3.487   6.503
 2201SOL    HW218635   4.767   3.644   6.464
 2202SOL     OW18636   4.130   5.293   1.552
 2202SOL    HW118637   4.051   5.286   1.614
 2202SOL    HW218638   4.205   5.338   1.600
 2203SOL     OW18639   8.367   1.421   0.042
 2203SOL    HW118640   8.385   1.460   0.132
 2203SOL    HW218641   8.271   1.397   0.034
 2204SOL     OW18642   9.152   4.258   5.691
 2204SOL    HW118643   9.175   4.187   5.625
 2204SOL    HW218644   9.100   4.330   5.645
 2205SOL     OW18645   0.974   4.718   0.574
 2205SOL    HW118646   0.997   4.814   0.555
 2205SOL    HW218647   1.023   4.660   0.509
 2206SOL     OW18648   2.977   7.916   0.985
 2206SOL    HW118649   2.902   7.956   0.931
 2206SOL    HW218650   2.946   7.830   1.025
 2207SOL     OW18651   5.948   8.222   1.280
 2207SOL    HW118652   5.980   8.199   1.372
 2207SOL    HW218653   5.895   8.146   1.243
 2208SOL     OW18654   6.912   7.977   5.917
 2208SOL    HW118655   6.871   7.920   5.846
 2208SOL    HW218656   6.849   7.986   5.994
 2209SOL     OW18657   8.305   7.894   5.611
 2209SOL    HW118658   8.233   7.942   5.661
 2209SOL    HW218659   8.341   7.954   5.539
 2210SOL     OW18660   7.357   0.789   6.031
 2210SOL    HW118661   7.374   0.718   6.099
 2210SOL    HW218662   7.309   0.749   5.953
 2211SOL     OW18663   4.073   2.478   6.369
 2211SOL    HW118664   4.044   2.410   6.302
 2211SOL    HW218665   4.035   2.567   6.345
 2212SOL     OW18666   7.026   6.864   0.782
 2212SOL    HW118667   6.953   6.932   0.788
 2212SOL    HW218668   7.102   6.891   0.842
 2213SOL     OW18669   6.346   1.421   1.022
 2213SOL    HW118670   6.378   1.359   1.093
 2213SOL    HW218671   6.392   1.510   1.032
 2214SOL     OW18672   7.121   2.902   5.508
 2214SOL    HW118673   7.040   2.854   5.473
 2214SOL    HW218674   7.202   2.869   5.460
 2215SOL     OW18675   5.613   3.866   0.857
 2215SOL    HW118676   5.713   3.860   0.854
 2215SOL    HW218677   5.585   3.920   0.936
 2216SOL     OW18678   6.926   5.414   1.110
 2216SOL    HW118679   6.898   5.430   1.204
 2216SOL    HW218680   7.005   5.471   1.088
 2217SOL     OW18681   0.493   5.983   6.447
 2217SOL    HW118682   0.527   6.076   6.431
 2217SOL    HW218683   0.537   5.921   6.383
 2218SOL     OW18684   3.544   3.653   1.260
 2218SOL    HW118685   3.560   3.684   1.354
 2218SOL    HW218686   3.455   3.686   1.229
 2219SOL     OW18687   6.593   3.426   0.662
 2219SOL    HW118688   6.549   3.336   0.671
 2219SOL    HW218689   6.690   3.418   0.685
 2220SOL     OW18690   6.136   7.951   6.122
 2220SOL    HW118691   6.162   7.896   6.201
 2220SOL    HW218692   6.064   8.015   6.148
 2221SOL     OW18693   5.382   5.405   0.883
 2221SOL    HW118694   5.388   5.379   0.786
 2221SOL    HW218695   5.295   5.451   0.900
 2222SOL     OW18696   1.473   7.818   0.263
 2222SOL    HW118697   1.540   7.887   0.289
 2222SOL    HW218698   1.508   7.764   0.186
 2223SOL     OW18699   6.618   0.343   0.602
 2223SOL    HW118700   6.677   0.423   0.590
 2223SOL    HW218701   6.651   0.289   0.680
 2224SOL     OW18702   4.044   4.967   1.419
 2224SOL    HW118703   4.030   5.064   1.399
 2224SOL    HW218704   4.054   4.916   1.333
 2225SOL     OW18705   8.073   0.463   6.589
 2225SOL    HW118706   8.019   0.493   6.510
 2225SOL    HW218707   8.036   0.376   6.623
 2226SOL     OW18708   3.523   1.168   6.710
 2226SOL    HW118709   3.514   1.091   6.647
 2226SOL    HW218710   3.470   1.150   6.793
 2227SOL     OW18711   6.478   3.543   0.031
 2227SOL    HW118712   6.491   3.608   0.105
 2227SOL    HW218713   6.463   3.591  -0.055
 2228SOL     OW18714   0.809   2.598   6.349
 2228SOL    HW118715   0.905   2.568   6.351
 2228SOL    HW218716   0.763   2.567   6.432
 2229SOL     OW18717   5.252   4.515   0.931
 2229SOL    HW118718   5.222   4.498   0.837
 2229SOL    HW218719   5.319   4.589   0.932
 2230SOL     OW18720   6.301   0.917   0.287
 2230SOL    HW118721   6.321   0.822   0.264
 2230SOL    HW218722   6.219   0.947   0.238
 2231SOL     OW18723   7.068   1.372   0.534
 2231SOL    HW118724   7.035   1.327   0.451
 2231SOL    HW218725   7.092   1.467   0.513
 2232SOL     OW18726   3.584   6.203   0.383
 2232SOL    HW118727   3.655   6.144   0.422
 2232SOL    HW218728   3.624   6.293   0.364
 2233SOL     OW18729   1.691   1.879   5.928
 2233SOL    HW118730   1.780   1.884   5.882
 2233SOL    HW218731   1.626   1.829   5.870
 2234SOL     OW18732   3.734   2.925   1.528
 2234SOL    HW118733   3.714   2.878   1.442
 2234SOL    HW218734   3.755   2.857   1.599
 2235SOL     OW18735   2.841   6.968   1.313
 2235SOL    HW118736   2.784   7.009   1.385
 2235SOL    HW218737   2.909   6.908   1.356
 2236SOL     OW18738   0.911   2.808   5.310
 2236SOL    HW118739   1.003   2.845   5.316
 2236SOL    HW218740   0.848   2.879   5.280
 2237SOL     OW18741   2.508   1.297   1.386
 2237SOL    HW118742   2.573   1.250   1.447
 2237SOL    HW218743   2.487   1.238   1.308
 2238SOL     OW18744   2.256   3.016   0.346
 2238SOL    HW118745   2.305   2.941   0.392
 2238SOL    HW218746   2.213   2.981   0.263
 2239SOL     OW18747   1.213   7.908   5.781
 2239SOL    HW118748   1.212   7.808   5.771
 2239SOL    HW218749   1.264   7.948   5.705
 2240SOL     OW18750   6.855   3.443   0.734
 2240SOL    HW118751   6.848   3.542   0.746
 2240SOL    HW218752   6.936   3.409   0.782
 2241SOL     OW18753   0.252   5.835   5.598
 2241SOL    HW118754   0.314   5.854   5.522
 2241SOL    HW218755   0.161   5.813   5.563
 2242SOL     OW18756   5.404   2.566   5.621
 2242SOL    HW118757   5.304   2.563   5.619
 2242SOL    HW218758   5.440   2.477   5.648
 2243SOL     OW18759   4.112   1.717   1.549
 2243SOL    HW118760   4.192   1.687   1.497
 2243SOL    HW218761   4.106   1.817   1.546
 2244SOL     OW18762   4.515   4.584   0.065
 2244SOL    HW118763   4.433   4.576   0.008
 2244SOL    HW218764   4.563   4.496   0.065
 2245SOL     OW18765   6.141   4.266   5.020
 2245SOL    HW118766   6.095   4.354   5.011
 2245SOL    HW218767   6.166   4.251   5.116
 2246SOL     OW18768   7.840   0.336   1.130
 2246SOL    HW118769   7.838   0.279   1.213
 2246SOL    HW218770   7.885   0.286   1.056
 2247SOL     OW18771   3.428   0.485   0.765
 2247SOL    HW118772   3.393   0.477   0.672
 2247SOL    HW218773   3.401   0.573   0.804
 2248SOL     OW18774   8.267   6.714   5.044
 2248SOL    HW118775   8.267   6.643   4.973
 2248SOL    HW218776   8.226   6.677   5.127
 2249SOL     OW18777   9.231   8.328   0.381
 2249SOL    HW118778   9.261   8.241   0.421
 2249SOL    HW218779   9.243   8.401   0.447
 2250SOL     OW18780   7.361   8.363   0.585
 2250SOL    HW118781   7.316   8.278   0.612
 2250SOL    HW218782   7.334   8.386   0.491
 2251SOL     OW18783   1.557   4.999   5.440
 2251SOL    HW118784   1.520   4.906   5.429
 2251SOL    HW218785   1.627   5.015   5.371
 2252SOL     OW18786   6.520   5.787   5.679
 2252SOL    HW118787   6.460   5.708   5.665
 2252SOL    HW218788   6.477   5.868   5.640
 2253SOL     OW18789   1.601   7.896   6.521
 2253SOL    HW118790   1.551   7.979   6.545
 2253SOL    HW218791   1.541   7.835   6.469
 2254SOL     OW18792   2.465   7.349   5.345
 2254SOL    HW118793   2.529   7.272   5.335
 2254SOL    HW218794   2.418   7.364   5.258
 2255SOL     OW18795   0.479   0.376   0.103
 2255SOL    HW118796   0.564   0.342   0.141
 2255SOL    HW218797   0.478   0.476   0.108
 2256SOL     OW18798   4.120   5.612   6.146
 2256SOL    HW118799   4.027   5.615   6.184
 2256SOL    HW218800   4.127   5.675   6.070
 2257SOL     OW18801   0.091   4.302   0.531
 2257SOL    HW118802   0.001   4.321   0.569
 2257SOL    HW218803   0.114   4.206   0.547
 2258SOL     OW18804   5.304   4.828   5.962
 2258SOL    HW118805   5.343   4.746   6.002
 2258SOL    HW218806   5.227   4.859   6.017
 2259SOL     OW18807   7.523   3.683   6.079
 2259SOL    HW118808   7.487   3.748   6.013
 2259SOL    HW218809   7.614   3.654   6.050
 2260SOL     OW18810   4.640   7.679   5.396
 2260SOL    HW118811   4.616   7.625   5.316
 2260SOL    HW218812   4.739   7.676   5.409
 2261SOL     OW18813   3.894   1.840   0.956
 2261SOL    HW118814   3.811   1.793   0.926
 2261SOL    HW218815   3.927   1.900   0.883
 2262SOL     OW18816   6.688   6.779   4.986
 2262SOL    HW118817   6.595   6.747   5.001
 2262SOL    HW218818   6.712   6.767   4.889
 2263SOL     OW18819   1.258   8.197   5.748
 2263SOL    HW118820   1.241   8.288   5.708
 2263SOL    HW218821   1.353   8.192   5.779
 2264SOL     OW18822   0.817   7.557   6.338
 2264SOL    HW118823   0.882   7.484   6.315
 2264SOL    HW218824   0.724   7.524   6.325
 2265SOL     OW18825   4.833   6.901   1.669
 2265SOL    HW118826   4.900   6.834   1.699
 2265SOL    HW218827   4.765   6.916   1.741
 2266SOL     OW18828   0.756   2.173   0.841
 2266SOL    HW118829   0.725   2.245   0.903
 2266SOL    HW218830   0.853   2.183   0.823
 2267SOL     OW18831   4.544   1.283   6.609
 2267SOL    HW118832   4.588   1.240   6.530
 2267SOL    HW218833   4.532   1.215   6.681
 2268SOL     OW18834   8.770   8.483   5.162
 2268SOL    HW118835   8.689   8.520   5.116
 2268SOL    HW218836   8.747   8.395   5.203
 2269SOL     OW18837   0.305   6.673   0.481
 2269SOL    HW118838   0.352   6.672   0.393
 2269SOL    HW218839   0.212   6.638   0.470
 2270SOL     OW18840   2.653   1.840   0.467
 2270SOL    HW118841   2.596   1.758   0.460
 2270SOL    HW218842   2.739   1.818   0.513
 2271SOL     OW18843   7.228   0.100   0.150
 2271SOL    HW118844   7.249   0.135   0.242
 2271SOL    HW218845   7.264   0.007   0.141
 2272SOL     OW18846   3.128   0.770   1.816
 2272SOL    HW118847   3.160   0.865   1.817
 2272SOL    HW218848   3.204   0.710   1.790
 2273SOL     OW18849   5.932   7.179   6.639
 2273SOL    HW118850   5.905   7.109   6.572
 2273SOL    HW218851   6.026   7.161   6.670
 2274SOL     OW18852   0.977   3.287   5.815
 2274SOL    HW118853   0.987   3.200   5.862
 2274SOL    HW218854   0.985   3.362   5.880
 2275SOL     OW18855   0.612   4.270   0.510
 2275SOL    HW118856   0.557   4.221   0.443
 2275SOL    HW218857   0.608   4.368   0.490
 2276SOL     OW18858   2.730   2.525   0.479
 2276SOL    HW118859   2.813   2.580   0.483
 2276SOL    HW218860   2.752   2.435   0.442
 2277SOL     OW18861   3.463   1.378   5.777
 2277SOL    HW118862   3.476   1.289   5.821
 2277SOL    HW218863   3.371   1.382   5.739
 2278SOL     OW18864   3.948   0.284   1.502
 2278SOL    HW118865   3.887   0.290   1.422
 2278SOL    HW218866   4.032   0.236   1.476
 2279SOL     OW18867   2.623   2.022   1.670
 2279SOL    HW118868   2.620   1.972   1.584
 2279SOL    HW218869   2.543   1.999   1.725
 2280SOL     OW18870   5.112   6.809   1.968
 2280SOL    HW118871   5.087   6.905   1.959
 2280SOL    HW218872   5.090   6.760   1.884
 2281SOL     OW18873   1.125   0.441   1.098
 2281SOL    HW118874   1.038   0.484   1.123
 2281SOL    HW218875   1.191   0.455   1.172
 2282SOL     OW18876   4.786   7.497   4.910
 2282SOL    HW118877   4.872   7.545   4.926
 2282SOL    HW218878   4.740   7.536   4.830
 2283SOL     OW18879   4.312   1.410   6.258
 2283SOL    HW118880   4.368   1.346   6.204
 2283SOL    HW218881   4.372   1.475   6.305
 2284SOL     OW18882   1.584   1.409   6.721
 2284SOL    HW118883   1.669   1.440   6.764
 2284SOL    HW218884   1.507   1.457   6.761
 2285SOL     OW18885   7.367   0.040   6.381
 2285SOL    HW118886   7.430  -0.036   6.363
 2285SOL    HW218887   7.360   0.053   6.480
 2286SOL     OW18888   2.476   7.024   5.740
 2286SOL    HW118889   2.480   7.123   5.750
 2286SOL    HW218890   2.458   6.982   5.829
 2287SOL     OW18891   7.329   4.656   6.599
 2287SOL    HW118892   7.335   4.726   6.670
 2287SOL    HW218893   7.259   4.589   6.623
 2288SOL     OW18894   5.228   6.785   0.440
 2288SOL    HW118895   5.235   6.712   0.508
 2288SOL    HW218896   5.147   6.840   0.459
 2289SOL     OW18897   6.462   6.389   1.403
 2289SOL    HW118898   6.553   6.351   1.420
 2289SOL    HW218899   6.392   6.320   1.423
 2290SOL     OW18900   2.644   5.875   0.699
 2290SOL    HW118901   2.656   5.776   0.696
 2290SOL    HW218902   2.682   5.911   0.784
 2291SOL     OW18903   1.942   0.855   0.461
 2291SOL    HW118904   1.998   0.787   0.413
 2291SOL    HW218905   1.965   0.947   0.428
 2292SOL     OW18906   1.522   4.467   5.514
 2292SOL    HW118907   1.480   4.464   5.423
 2292SOL    HW218908   1.597   4.532   5.515
 2293SOL     OW18909   4.147   6.261   6.351
 2293SOL    HW118910   4.221   6.274   6.418
 2293SOL    HW218911   4.127   6.348   6.306
 2294SOL     OW18912   1.303   8.057   0.172
 2294SOL    HW118913   1.349   7.969   0.188
 2294SOL    HW218914   1.342   8.125   0.234
 2295SOL     OW18915   0.010   6.575   4.277
 2295SOL    HW118916  -0.063   6.641   4.259
 2295SOL    HW218917   0.076   6.578   4.202
 2296SOL     OW18918   6.138   3.490   0.163
 2296SOL    HW118919   6.082   3.502   0.245
 2296SOL    HW218920   6.224   3.446   0.188
 2297SOL     OW18921   8.499   7.037   4.647
 2297SOL    HW118922   8.563   6.992   4.585
 2297SOL    HW218923   8.406   7.004   4.629
 2298SOL     OW18924   9.332   2.804   5.565
 2298SOL    HW118925   9.248   2.845   5.600
 2298SOL    HW218926   9.380   2.871   5.507
 2299SOL     OW18927   5.118   1.369   0.677
 2299SOL    HW118928   5.023   1.368   0.645
 2299SOL    HW218929   5.119   1.363   0.777
 2300SOL     OW18930   5.229   1.043   0.575
 2300SOL    HW118931   5.265   1.130   0.609
 2300SOL    HW218932   5.129   1.048   0.570
 2301SOL     OW18933   3.352   1.480   6.171
 2301SOL    HW118934   3.279   1.493   6.238
 2301SOL    HW218935   3.323   1.517   6.083
 2302SOL     OW18936   5.366   1.257   5.939
 2302SOL    HW118937   5.287   1.314   5.918
 2302SOL    HW218938   5.398   1.277   6.032
 2303SOL     OW18939   3.088   0.108   1.262
 2303SOL    HW118940   3.074   0.180   1.195
 2303SOL    HW218941   3.170   0.056   1.239
 2304SOL     OW18942   8.227   3.099   6.262
 2304SOL    HW118943   8.138   3.060   6.286
 2304SOL    HW218944   8.296   3.026   6.259
 2305SOL     OW18945   3.870   3.849   0.393
 2305SOL    HW118946   3.869   3.946   0.367
 2305SOL    HW218947   3.962   3.823   0.421
 2306SOL     OW18948   4.967   2.647   0.119
 2306SOL    HW118949   4.880   2.621   0.161
 2306SOL    HW218950   5.013   2.565   0.085
 2307SOL     OW18951   8.477   8.301   5.776
 2307SOL    HW118952   8.533   8.384   5.779
 2307SOL    HW218953   8.381   8.326   5.786
 2308SOL     OW18954   8.203   7.942   0.622
 2308SOL    HW118955   8.232   8.014   0.558
 2308SOL    HW218956   8.180   7.982   0.710
 2309SOL     OW18957   8.173   3.665   0.374
 2309SOL    HW118958   8.200   3.574   0.406
 2309SOL    HW218959   8.125   3.712   0.448
 2310SOL     OW18960   0.171   1.658   6.585
 2310SOL    HW118961   0.224   1.581   6.621
 2310SOL    HW218962   0.229   1.740   6.582
 2311SOL     OW18963   6.625   2.113   6.140
 2311SOL    HW118964   6.623   2.074   6.232
 2311SOL    HW218965   6.585   2.204   6.142
 2312SOL     OW18966   2.995   2.548   0.806
 2312SOL    HW118967   2.973   2.612   0.732
 2312SOL    HW218968   2.987   2.594   0.894
 2313SOL     OW18969   4.885   3.486   0.395
 2313SOL    HW118970   4.958   3.527   0.339
 2313SOL    HW218971   4.926   3.439   0.473
 2314SOL     OW18972   8.959   3.220   0.408
 2314SOL    HW118973   9.047   3.266   0.424
 2314SOL    HW218974   8.914   3.262   0.329
 2315SOL     OW18975   0.981   5.891   0.002
 2315SOL    HW118976   0.940   5.815   0.054
 2315SOL    HW218977   1.072   5.910   0.038
 2316SOL     OW18978   9.315   2.233   0.784
 2316SOL    HW118979   9.397   2.178   0.769
 2316SOL    HW218980   9.332   2.326   0.751
 2317SOL     OW18981   3.190   7.716   0.074
 2317SOL    HW118982   3.222   7.663   0.152
 2317SOL    HW218983   3.187   7.813   0.098
 2318SOL     OW18984   6.065   1.976   5.539
 2318SOL    HW118985   5.973   1.947   5.515
 2318SOL    HW218986   6.074   2.075   5.529
 2319SOL     OW18987   3.615   1.886   1.447
 2319SOL    HW118988   3.667   1.971   1.459
 2319SOL    HW218989   3.672   1.819   1.399
 2320SOL     OW18990   7.311   8.217   5.443
 2320SOL    HW118991   7.242   8.289   5.431
 2320SOL    HW218992   7.332   8.207   5.540
 2321SOL     OW18993   0.946   8.137   5.818
 2321SOL    HW118994   0.996   8.207   5.870
 2321SOL    HW218995   1.011   8.079   5.770
 2322SOL     OW18996   9.270   6.878   0.665
 2322SOL    HW118997   9.369   6.879   0.651
 2322SOL    HW218998   9.225   6.841   0.583
 2323SOL     OW18999   2.884   6.203   0.353
 2323SOL    HW119000   2.867   6.149   0.436
 2323SOL    HW219001   2.797   6.237   0.317
 2324SOL     OW19002   0.255   3.511   0.256
 2324SOL    HW119003   0.230   3.586   0.317
 2324SOL    HW219004   0.270   3.428   0.310
 2325SOL     OW19005   8.167   2.703   6.509
 2325SOL    HW119006   8.232   2.627   6.517
 2325SOL    HW219007   8.182   2.768   6.583
 2326SOL     OW19008   7.012   8.307   0.797
 2326SOL    HW119009   7.077   8.230   0.789
 2326SOL    HW219010   7.061   8.393   0.779
 2327SOL     OW19011   4.165   8.488   0.493
 2327SOL    HW119012   4.120   8.399   0.497
 2327SOL    HW219013   4.244   8.488   0.554
 2328SOL     OW19014   6.467   5.223   0.105
 2328SOL    HW119015   6.428   5.270   0.026
 2328SOL    HW219016   6.535   5.156   0.075
 2329SOL     OW19017   1.163   6.742   5.797
 2329SOL    HW119018   1.206   6.748   5.707
 2329SOL    HW219019   1.192   6.658   5.843
 2330SOL     OW19020   0.291   6.762   0.180
 2330SOL    HW119021   0.377   6.712   0.180
 2330SOL    HW219022   0.215   6.698   0.188
 2331SOL     OW19023   3.230   1.344   0.030
 2331SOL    HW119024   3.262   1.266   0.085
 2331SOL    HW219025   3.306   1.409   0.018
 2332SOL     OW19026   9.304   3.681   0.573
 2332SOL    HW119027   9.346   3.769   0.595
 2332SOL    HW219028   9.221   3.669   0.629
 2333SOL     OW19029   3.309   4.063   6.712
 2333SOL    HW119030   3.309   3.981   6.655
 2333SOL    HW219031   3.322   4.038   6.808
 2334SOL     OW19032   2.623   8.354   0.023
 2334SOL    HW119033   2.634   8.448  -0.007
 2334SOL    HW219034   2.600   8.352   0.121
 2335SOL     OW19035   1.889   4.072   0.632
 2335SOL    HW119036   1.810   4.026   0.672
 2335SOL    HW219037   1.861   4.120   0.549
 2336SOL     OW19038   2.244   2.570   5.397
 2336SOL    HW119039   2.239   2.566   5.497
 2336SOL    HW219040   2.194   2.493   5.358
 2337SOL     OW19041   3.775   1.958   5.837
 2337SOL    HW119042   3.790   1.871   5.883
 2337SOL    HW219043   3.860   1.988   5.794
 2338SOL     OW19044   1.388   5.390   5.698
 2338SOL    HW119045   1.484   5.373   5.721
 2338SOL    HW219046   1.340   5.302   5.688
 2339SOL     OW19047   6.543   1.136   0.933
 2339SOL    HW119048   6.519   1.081   1.012
 2339SOL    HW219049   6.639   1.122   0.910
 2340SOL     OW19050   0.125   1.816   0.324
 2340SOL    HW119051   0.087   1.891   0.378
 2340SOL    HW219052   0.091   1.821   0.230
 2341SOL     OW19053   6.624   3.360   1.409
 2341SOL    HW119054   6.707   3.403   1.371
 2341SOL    HW219055   6.613   3.389   1.504
 2342SOL     OW19056   5.492   6.635   1.489
 2342SOL    HW119057   5.506   6.571   1.565
 2342SOL    HW219058   5.412   6.607   1.437
 2343SOL     OW19059   4.724   6.829   4.845
 2343SOL    HW119060   4.699   6.811   4.750
 2343SOL    HW219061   4.661   6.896   4.884
 2344SOL     OW19062   6.937   0.162   1.719
 2344SOL    HW119063   6.839   0.143   1.721
 2344SOL    HW219064   6.954   0.250   1.763
 2345SOL     OW19065   2.864   1.403   6.175
 2345SOL    HW119066   2.896   1.463   6.247
 2345SOL    HW219067   2.919   1.417   6.092
 2346SOL     OW19068   1.892   6.797   6.711
 2346SOL    HW119069   1.990   6.808   6.696
 2346SOL    HW219070   1.873   6.702   6.735
 2347SOL     OW19071   4.530   1.981   5.487
 2347SOL    HW119072   4.528   1.882   5.475
 2347SOL    HW219073   4.438   2.014   5.507
 2348SOL     OW19074   6.363   0.046   1.096
 2348SOL    HW119075   6.411   0.001   1.021
 2348SOL    HW219076   6.415   0.124   1.128
 2349SOL     OW19077   2.935   8.198   0.350
 2349SOL    HW119078   3.019   8.159   0.388
 2349SOL    HW219079   2.940   8.298   0.354
 2350SOL     OW19080   3.171   1.542   0.485
 2350SOL    HW119081   3.122   1.548   0.398
 2350SOL    HW219082   3.116   1.491   0.551
 2351SOL     OW19083   1.184   2.756   0.495
 2351SOL    HW119084   1.258   2.823   0.486
 2351SOL    HW219085   1.130   2.777   0.576
 2352SOL     OW19086   4.824   0.271   5.299
 2352SOL    HW119087   4.794   0.269   5.203
 2352SOL    HW219088   4.787   0.353   5.344
 2353SOL     OW19089   2.643   1.881   6.296
 2353SOL    HW119090   2.556   1.835   6.277
 2353SOL    HW219091   2.627   1.978   6.312
 2354SOL     OW19092   8.976   2.232   0.598
 2354SOL    HW119093   9.006   2.174   0.674
 2354SOL    HW219094   8.902   2.292   0.629
 2355SOL     OW19095   0.611   4.857   6.354
 2355SOL    HW119096   0.571   4.875   6.264
 2355SOL    HW219097   0.606   4.939   6.410
 2356SOL     OW19098   7.944   7.394   0.576
 2356SOL    HW119099   7.914   7.312   0.624
 2356SOL    HW219100   7.984   7.458   0.642
 2357SOL     OW19101   9.450   4.854   5.321
 2357SOL    HW119102   9.467   4.785   5.250
 2357SOL    HW219103   9.410   4.935   5.278
 2358SOL     OW19104   5.449   6.781   0.282
 2358SOL    HW119105   5.502   6.710   0.328
 2358SOL    HW219106   5.373   6.810   0.341
 2359SOL     OW19107   1.892   8.257   5.662
 2359SOL    HW119108   1.841   8.255   5.748
 2359SOL    HW219109   1.923   8.350   5.645
 2360SOL     OW19110   4.230   7.964   6.403
 2360SOL    HW119111   4.159   7.951   6.473
 2360SOL    HW219112   4.224   8.056   6.367
 2361SOL     OW19113   3.774   1.222   0.125
 2361SOL    HW119114   3.740   1.286   0.194
 2361SOL    HW219115   3.700   1.196   0.064
 2362SOL     OW19116   9.114   2.849   0.144
 2362SOL    HW119117   9.107   2.937   0.193
 2362SOL    HW219118   9.165   2.862   0.060
 2363SOL     OW19119   9.046   5.259   1.195
 2363SOL    HW119120   8.951   5.290   1.197
 2363SOL    HW219121   9.078   5.242   1.288
 2364SOL     OW19122   8.616   2.621   0.249
 2364SOL    HW119123   8.545   2.684   0.282
 2364SOL    HW219124   8.705   2.652   0.284
 2365SOL     OW19125   4.446   0.575   1.505
 2365SOL    HW119126   4.510   0.600   1.432
 2365SOL    HW219127   4.497   0.534   1.580
 2366SOL     OW19128   0.663   7.798   5.153
 2366SOL    HW119129   0.605   7.784   5.072
 2366SOL    HW219130   0.688   7.710   5.192
 2367SOL     OW19131   8.508   3.985   5.472
 2367SOL    HW119132   8.450   3.994   5.391
 2367SOL    HW219133   8.561   4.068   5.485
 2368SOL     OW19134   4.441   2.262   6.518
 2368SOL    HW119135   4.372   2.332   6.499
 2368SOL    HW219136   4.495   2.290   6.598
 2369SOL     OW19137   4.110   2.768   0.848
 2369SOL    HW119138   4.078   2.843   0.790
 2369SOL    HW219139   4.034   2.706   0.868
 2370SOL     OW19140   4.097   6.160   2.346
 2370SOL    HW119141   4.014   6.188   2.393
 2370SOL    HW219142   4.161   6.236   2.342
 2371SOL     OW19143   6.742   4.025   0.237
 2371SOL    HW119144   6.702   4.034   0.329
 2371SOL    HW219145   6.768   3.930   0.222
 2372SOL     OW19146   8.278   4.156   1.100
 2372SOL    HW119147   8.373   4.147   1.127
 2372SOL    HW219148   8.230   4.069   1.113
 2373SOL     OW19149   2.722   0.431   6.640
 2373SOL    HW119150   2.748   0.524   6.663
 2373SOL    HW219151   2.803   0.372   6.644
 2374SOL     OW19152   6.429   3.863   0.584
 2374SOL    HW119153   6.388   3.944   0.626
 2374SOL    HW219154   6.358   3.810   0.538
 2375SOL     OW19155   4.352   6.416   1.470
 2375SOL    HW119156   4.330   6.387   1.563
 2375SOL    HW219157   4.443   6.384   1.445
 2376SOL     OW19158   2.823   5.928   5.253
 2376SOL    HW119159   2.839   5.863   5.179
 2376SOL    HW219160   2.770   6.005   5.219
 2377SOL     OW19161   4.428   0.928   2.202
 2377SOL    HW119162   4.473   1.017   2.214
 2377SOL    HW219163   4.335   0.942   2.170
 2378SOL     OW19164   6.301   5.235   1.581
 2378SOL    HW119165   6.329   5.231   1.485
 2378SOL    HW219166   6.351   5.166   1.633
 2379SOL     OW19167   0.969   4.912   5.426
 2379SOL    HW119168   0.939   4.888   5.334
 2379SOL    HW219169   1.069   4.912   5.430
 2380SOL     OW19170   4.885   6.644   0.188
 2380SOL    HW119171   4.965   6.703   0.182
 2380SOL    HW219172   4.914   6.551   0.212
 2381SOL     OW19173   7.873   3.594   6.167
 2381SOL    HW119174   7.836   3.631   6.082
 2381SOL    HW219175   7.965   3.558   6.151
 2382SOL     OW19176   8.288   2.804   1.004
 2382SOL    HW119177   8.381   2.771   1.020
 2382SOL    HW219178   8.244   2.826   1.091
 2383SOL     OW19179   5.400   7.460   0.711
 2383SOL    HW119180   5.442   7.526   0.773
 2383SOL    HW219181   5.365   7.382   0.763
 2384SOL     OW19182   4.772   6.208   0.770
 2384SOL    HW119183   4.697   6.196   0.835
 2384SOL    HW219184   4.762   6.297   0.724
 2385SOL     OW19185   5.245   5.500   6.433
 2385SOL    HW119186   5.331   5.462   6.401
 2385SOL    HW219187   5.263   5.584   6.485
 2386SOL     OW19188   5.159   1.788   5.971
 2386SOL    HW119189   5.115   1.861   6.021
 2386SOL    HW219190   5.144   1.701   6.018
 2387SOL     OW19191   3.734   6.682   0.578
 2387SOL    HW119192   3.817   6.656   0.628
 2387SOL    HW219193   3.655   6.637   0.620
 2388SOL     OW19194   8.605   2.696   6.211
 2388SOL    HW119195   8.667   2.618   6.204
 2388SOL    HW219196   8.529   2.673   6.272
 2389SOL     OW19197   5.941   7.989   5.841
 2389SOL    HW119198   5.914   7.945   5.927
 2389SOL    HW219199   6.034   7.961   5.818
 2390SOL     OW19200   3.330   8.202   0.681
 2390SOL    HW119201   3.349   8.255   0.764
 2390SOL    HW219202   3.410   8.147   0.658
 2391SOL     OW19203   8.763   7.165   1.088
 2391SOL    HW119204   8.800   7.135   1.176
 2391SOL    HW219205   8.805   7.252   1.062
 2392SOL     OW19206   8.808   2.752   6.464
 2392SOL    HW119207   8.761   2.839   6.446
 2392SOL    HW219208   8.827   2.706   6.378
 2393SOL     OW19209   1.563   5.868   6.629
 2393SOL    HW119210   1.494   5.937   6.607
 2393SOL    HW219211   1.651   5.912   6.645
 2394SOL     OW19212   0.190   0.940   6.564
 2394SOL    HW119213   0.261   0.972   6.627
 2394SOL    HW219214   0.231   0.877   6.498
 2395SOL     OW19215   9.296   0.408   0.139
 2395SOL    HW119216   9.301   0.316   0.099
 2395SOL    HW219217   9.380   0.458   0.118
 2396SOL     OW19218   0.014   7.122   0.814
 2396SOL    HW119219   0.022   7.063   0.733
 2396SOL    HW219220  -0.009   7.065   0.894
 2397SOL     OW19221   3.336   0.853   5.694
 2397SOL    HW119222   3.282   0.823   5.773
 2397SOL    HW219223   3.283   0.921   5.642
 2398SOL     OW19224   2.967   5.279   0.290
 2398SOL    HW119225   3.014   5.266   0.378
 2398SOL    HW219226   2.899   5.351   0.299
 2399SOL     OW19227   5.083   6.863   0.749
 2399SOL    HW119228   4.992   6.854   0.708
 2399SOL    HW219229   5.126   6.947   0.714
 2400SOL     OW19230   6.294   7.626   5.040
 2400SOL    HW119231   6.315   7.723   5.037
 2400SOL    HW219232   6.378   7.573   5.027
 2401SOL     OW19233   8.038   3.705   6.547
 2401SOL    HW119234   8.006   3.724   6.640
 2401SOL    HW219235   7.989   3.765   6.482
 2402SOL     OW19236   1.607   1.025   5.665
 2402SOL    HW119237   1.647   0.967   5.595
 2402SOL    HW219238   1.514   0.993   5.686
 2403SOL     OW19239   5.652   0.524   6.461
 2403SOL    HW119240   5.579   0.588   6.482
 2403SOL    HW219241   5.736   0.574   6.442
 2404SOL     OW19242   4.848   4.825   6.688
 2404SOL    HW119243   4.860   4.727   6.673
 2404SOL    HW219244   4.772   4.839   6.752
 2405SOL     OW19245   4.501   4.539   0.362
 2405SOL    HW119246   4.404   4.517   0.372
 2405SOL    HW219247   4.537   4.492   0.281
 2406SOL     OW19248   3.283   5.988   5.612
 2406SOL    HW119249   3.281   5.928   5.693
 2406SOL    HW219250   3.338   5.945   5.541
 2407SOL     OW19251   2.882   0.382   5.544
 2407SOL    HW119252   2.813   0.352   5.609
 2407SOL    HW219253   2.973   0.360   5.580
 2408SOL     OW19254   9.248   3.829   0.951
 2408SOL    HW119255   9.345   3.808   0.937
 2408SOL    HW219256   9.226   3.821   1.048
 2409SOL     OW19257   2.857   1.721   0.174
 2409SOL    HW119258   2.893   1.664   0.248
 2409SOL    HW219259   2.826   1.662   0.099
 2410SOL     OW19260   2.243   1.919   0.330
 2410SOL    HW119261   2.177   1.949   0.399
 2410SOL    HW219262   2.305   1.995   0.308
 2411SOL     OW19263   3.924   7.173   2.467
 2411SOL    HW119264   3.987   7.115   2.416
 2411SOL    HW219265   3.848   7.117   2.501
 2412SOL     OW19266   0.283   7.637   0.172
 2412SOL    HW119267   0.234   7.645   0.259
 2412SOL    HW219268   0.377   7.670   0.184
 2413SOL     OW19269   2.255   6.349   0.483
 2413SOL    HW119270   2.311   6.294   0.545
 2413SOL    HW219271   2.298   6.439   0.471
 2414SOL     OW19272   7.061   5.457   0.218
 2414SOL    HW119273   7.019   5.507   0.293
 2414SOL    HW219274   7.157   5.441   0.239
 2415SOL     OW19275   5.482   6.508   5.515
 2415SOL    HW119276   5.525   6.418   5.508
 2415SOL    HW219277   5.430   6.527   5.431
 2416SOL     OW19278   0.500   2.176   1.165
 2416SOL    HW119279   0.571   2.129   1.219
 2416SOL    HW219280   0.469   2.257   1.214
 2417SOL     OW19281   3.091   0.585   2.119
 2417SOL    HW119282   3.087   0.672   2.168
 2417SOL    HW219283   3.137   0.517   2.177
 2418SOL     OW19284   5.407   3.625   0.194
 2418SOL    HW119285   5.311   3.598   0.193
 2418SOL    HW219286   5.452   3.587   0.275
 2419SOL     OW19287   4.532   2.716   0.655
 2419SOL    HW119288   4.500   2.637   0.707
 2419SOL    HW219289   4.473   2.794   0.673
 2420SOL     OW19290   9.446   1.107   0.405
 2420SOL    HW119291   9.433   1.193   0.454
 2420SOL    HW219292   9.541   1.099   0.375
 2421SOL     OW19293   3.218   7.610   5.487
 2421SOL    HW119294   3.132   7.575   5.450
 2421SOL    HW219295   3.201   7.694   5.538
 2422SOL     OW19296   4.247   4.628   1.434
 2422SOL    HW119297   4.201   4.666   1.355
 2422SOL    HW219298   4.209   4.667   1.518
 2423SOL     OW19299   2.244   6.692   5.874
 2423SOL    HW119300   2.235   6.600   5.912
 2423SOL    HW219301   2.337   6.726   5.892
 2424SOL     OW19302   0.400   4.152   6.340
 2424SOL    HW119303   0.330   4.155   6.411
 2424SOL    HW219304   0.486   4.121   6.380
 2425SOL     OW19305   4.057   0.697   5.047
 2425SOL    HW119306   4.059   0.775   5.109
 2425SOL    HW219307   4.069   0.729   4.953
 2426SOL     OW19308   2.596   1.693   2.278
 2426SOL    HW119309   2.586   1.683   2.179
 2426SOL    HW219310   2.602   1.603   2.321
 2427SOL     OW19311   2.431   6.374   0.046
 2427SOL    HW119312   2.383   6.459   0.023
 2427SOL    HW219313   2.530   6.389   0.041
 2428SOL     OW19314   3.158   0.208   0.620
 2428SOL    HW119315   3.157   0.283   0.686
 2428SOL    HW219316   3.068   0.165   0.616
 2429SOL     OW19317   2.712   7.637   5.381
 2429SOL    HW119318   2.659   7.592   5.453
 2429SOL    HW219319   2.775   7.572   5.341
 2430SOL     OW19320   4.223   5.838   1.186
 2430SOL    HW119321   4.229   5.827   1.087
 2430SOL    HW219322   4.223   5.748   1.230
 2431SOL     OW19323   5.457   7.743   6.233
 2431SOL    HW119324   5.370   7.716   6.275
 2431SOL    HW219325   5.526   7.757   6.304
 2432SOL     OW19326   4.128   3.117   6.612
 2432SOL    HW119327   4.220   3.154   6.599
 2432SOL    HW219328   4.132   3.017   6.614
 2433SOL     OW19329   4.143   5.380   0.104
 2433SOL    HW119330   4.085   5.315   0.054
 2433SOL    HW219331   4.176   5.450   0.041
 2434SOL     OW19332   3.777   5.396   1.040
 2434SOL    HW119333   3.753   5.314   0.988
 2434SOL    HW219334   3.708   5.412   1.111
 2435SOL     OW19335   7.218   6.795   0.006
 2435SOL    HW119336   7.157   6.794  -0.073
 2435SOL    HW219337   7.163   6.789   0.090
 2436SOL     OW19338   2.435   4.082   0.252
 2436SOL    HW119339   2.416   4.060   0.347
 2436SOL    HW219340   2.458   3.999   0.202
 2437SOL     OW19341   8.408   7.620   5.543
 2437SOL    HW119342   8.339   7.605   5.614
 2437SOL    HW219343   8.392   7.708   5.499
 2438SOL     OW19344   4.795   7.059   0.938
 2438SOL    HW119345   4.821   7.021   0.849
 2438SOL    HW219346   4.695   7.069   0.942
 2439SOL     OW19347   6.483   5.602   0.592
 2439SOL    HW119348   6.572   5.557   0.604
 2439SOL    HW219349   6.495   5.701   0.597
 2440SOL     OW19350   5.824   3.265   0.076
 2440SOL    HW119351   5.765   3.326   0.025
 2440SOL    HW219352   5.889   3.221   0.014
 2441SOL     OW19353   2.628   0.924   1.939
 2441SOL    HW119354   2.575   0.856   1.889
 2441SOL    HW219355   2.720   0.890   1.956
 2442SOL     OW19356   4.601   2.505   0.925
 2442SOL    HW119357   4.584   2.590   0.976
 2442SOL    HW219358   4.517   2.476   0.880
 2443SOL     OW19359   6.977   3.880   6.637
 2443SOL    HW119360   7.067   3.855   6.602
 2443SOL    HW219361   6.955   3.823   6.717
 2444SOL     OW19362   3.393   6.870   0.608
 2444SOL    HW119363   3.456   6.945   0.630
 2444SOL    HW219364   3.387   6.860   0.509
 2445SOL     OW19365   0.004   5.724   5.486
 2445SOL    HW119366   0.055   5.651   5.440
 2445SOL    HW219367  -0.027   5.791   5.419
 2446SOL     OW19368   2.348   0.109   4.823
 2446SOL    HW119369   2.320   0.101   4.727
 2446SOL    HW219370   2.427   0.170   4.830
 2447SOL     OW19371   7.963   7.290   0.313
 2447SOL    HW119372   7.940   7.339   0.396
 2447SOL    HW219373   8.062   7.292   0.299
 2448SOL     OW19374   2.636   2.428   1.463
 2448SOL    HW119375   2.716   2.369   1.475
 2448SOL    HW219376   2.602   2.456   1.552
 2449SOL     OW19377   3.131   1.042   0.820
 2449SOL    HW119378   3.040   1.028   0.860
 2449SOL    HW219379   3.131   1.127   0.767
 2450SOL     OW19380   5.006   2.874   6.636
 2450SOL    HW119381   5.075   2.876   6.564
 2450SOL    HW219382   5.052   2.862   6.725
 2451SOL     OW19383   2.561   5.552   0.061
 2451SOL    HW119384   2.640   5.534   0.120
 2451SOL    HW219385   2.487   5.590   0.116
 2452SOL     OW19386   9.327   0.538   0.822
 2452SOL    HW119387   9.417   0.578   0.807
 2452SOL    HW219388   9.316   0.458   0.762
 2453SOL     OW19389   0.871   2.267   5.974
 2453SOL    HW119390   0.896   2.261   5.878
 2453SOL    HW219391   0.848   2.361   5.997
 2454SOL     OW19392   0.881   5.956   5.907
 2454SOL    HW119393   0.781   5.949   5.911
 2454SOL    HW219394   0.916   5.969   6.000
 2455SOL     OW19395   5.652   4.318   5.712
 2455SOL    HW119396   5.569   4.363   5.744
 2455SOL    HW219397   5.628   4.241   5.654
 2456SOL     OW19398   9.348   6.937   1.036
 2456SOL    HW119399   9.253   6.966   1.019
 2456SOL    HW219400   9.361   6.922   1.134
 2457SOL     OW19401   7.606   3.798   6.656
 2457SOL    HW119402   7.672   3.728   6.686
 2457SOL    HW219403   7.514   3.758   6.655
 2458SOL     OW19404   2.424   0.565   6.153
 2458SOL    HW119405   2.503   0.512   6.122
 2458SOL    HW219406   2.356   0.504   6.193
 2459SOL     OW19407   0.321   4.556   0.233
 2459SOL    HW119408   0.421   4.556   0.229
 2459SOL    HW219409   0.284   4.610   0.157
 2460SOL     OW19410   7.389   2.064   0.725
 2460SOL    HW119411   7.483   2.042   0.698
 2460SOL    HW219412   7.332   2.070   0.643
 2461SOL     OW19413   3.336   0.767   2.064
 2461SOL    HW119414   3.259   0.736   2.008
 2461SOL    HW219415   3.421   0.738   2.021
 2462SOL     OW19416   1.045   8.187   5.400
 2462SOL    HW119417   1.013   8.094   5.412
 2462SOL    HW219418   0.998   8.248   5.464
 2463SOL     OW19419   0.959   6.019   5.335
 2463SOL    HW119420   0.889   6.005   5.405
 2463SOL    HW219421   1.040   6.059   5.376
 2464SOL     OW19422   2.110   1.668   5.501
 2464SOL    HW119423   2.119   1.709   5.410
 2464SOL    HW219424   2.017   1.684   5.535
 2465SOL     OW19425   8.568   3.486   0.944
 2465SOL    HW119426   8.622   3.520   0.867
 2465SOL    HW219427   8.472   3.483   0.919
 2466SOL     OW19428   0.616   3.661   5.491
 2466SOL    HW119429   0.532   3.621   5.455
 2466SOL    HW219430   0.601   3.758   5.511
 2467SOL     OW19431   2.180   7.314   1.222
 2467SOL    HW119432   2.144   7.267   1.142
 2467SOL    HW219433   2.112   7.379   1.256
 2468SOL     OW19434   4.461   2.135   6.280
 2468SOL    HW119435   4.462   2.192   6.197
 2468SOL    HW219436   4.475   2.193   6.360
 2469SOL     OW19437   2.245   3.603   0.775
 2469SOL    HW119438   2.200   3.683   0.814
 2469SOL    HW219439   2.341   3.602   0.803
 2470SOL     OW19440   6.030   6.032   1.802
 2470SOL    HW119441   6.112   6.025   1.745
 2470SOL    HW219442   6.051   6.084   1.885
 2471SOL     OW19443   0.454   5.872   4.621
 2471SOL    HW119444   0.461   5.814   4.702
 2471SOL    HW219445   0.366   5.858   4.576
 2472SOL     OW19446   8.515   3.887   0.679
 2472SOL    HW119447   8.511   3.789   0.662
 2472SOL    HW219448   8.593   3.908   0.738
 2473SOL     OW19449   9.197   0.411   0.419
 2473SOL    HW119450   9.207   0.468   0.337
 2473SOL    HW219451   9.284   0.410   0.469
 2474SOL     OW19452   3.228   3.402   0.426
 2474SOL    HW119453   3.217   3.492   0.385
 2474SOL    HW219454   3.243   3.334   0.354
 2475SOL     OW19455   8.122   7.998   0.117
 2475SOL    HW119456   8.161   8.025   0.028
 2475SOL    HW219457   8.164   7.912   0.146
 2476SOL     OW19458   3.568   3.520   0.161
 2476SOL    HW119459   3.593   3.458   0.236
 2476SOL    HW219460   3.607   3.611   0.179
 2477SOL     OW19461   3.556   0.847   0.390
 2477SOL    HW119462   3.606   0.894   0.317
 2477SOL    HW219463   3.560   0.748   0.375
 2478SOL     OW19464   5.861   7.578   6.029
 2478SOL    HW119465   5.780   7.627   5.996
 2478SOL    HW219466   5.840   7.481   6.038
 2479SOL     OW19467   0.714   1.014   1.439
 2479SOL    HW119468   0.793   0.984   1.493
 2479SOL    HW219469   0.642   0.945   1.445
 2480SOL     OW19470   4.372   2.404   0.822
 2480SOL    HW119471   4.273   2.389   0.833
 2480SOL    HW219472   4.414   2.321   0.785
 2481SOL     OW19473   3.378   3.001   1.149
 2481SOL    HW119474   3.314   2.934   1.111
 2481SOL    HW219475   3.463   2.999   1.098
 2482SOL     OW19476   8.477   1.424   5.877
 2482SOL    HW119477   8.466   1.331   5.843
 2482SOL    HW219478   8.493   1.423   5.975
 2483SOL     OW19479   4.861   8.282   1.270
 2483SOL    HW119480   4.764   8.273   1.294
 2483SOL    HW219481   4.911   8.315   1.349
 2484SOL     OW19482   0.022   6.364   4.448
 2484SOL    HW119483   0.103   6.382   4.505
 2484SOL    HW219484   0.006   6.442   4.388
 2485SOL     OW19485   2.833   3.589   5.418
 2485SOL    HW119486   2.802   3.594   5.324
 2485SOL    HW219487   2.933   3.598   5.421
 2486SOL     OW19488   8.472   5.272   5.392
 2486SOL    HW119489   8.411   5.197   5.367
 2486SOL    HW219490   8.549   5.275   5.328
 2487SOL     OW19491   7.559   0.750   6.426
 2487SOL    HW119492   7.544   0.809   6.347
 2487SOL    HW219493   7.609   0.668   6.398
 2488SOL     OW19494   0.801   6.869   0.010
 2488SOL    HW119495   0.757   6.954   0.037
 2488SOL    HW219496   0.887   6.888  -0.036
 2489SOL     OW19497   4.734   4.854   5.896
 2489SOL    HW119498   4.688   4.942   5.902
 2489SOL    HW219499   4.666   4.781   5.891
 2490SOL     OW19500   5.477   0.917   0.921
 2490SOL    HW119501   5.502   0.989   0.857
 2490SOL    HW219502   5.428   0.958   0.999
 2491SOL     OW19503   3.413   5.171   0.695
 2491SOL    HW119504   3.457   5.184   0.606
 2491SOL    HW219505   3.330   5.116   0.684
 2492SOL     OW19506   4.074   7.903   1.269
 2492SOL    HW119507   4.133   7.836   1.314
 2492SOL    HW219508   4.130   7.967   1.215
 2493SOL     OW19509   4.286   3.508   0.034
 2493SOL    HW119510   4.319   3.415   0.015
 2493SOL    HW219511   4.253   3.550  -0.051
 2494SOL     OW19512   0.762   0.987   6.727
 2494SOL    HW119513   0.747   0.954   6.820
 2494SOL    HW219514   0.754   1.087   6.725
 2495SOL     OW19515   0.749   2.992   0.253
 2495SOL    HW119516   0.727   3.086   0.277
 2495SOL    HW219517   0.829   2.961   0.305
 2496SOL     OW19518   1.651   6.561   4.940
 2496SOL    HW119519   1.675   6.497   4.867
 2496SOL    HW219520   1.728   6.623   4.956
 2497SOL     OW19521   7.767   3.070   0.181
 2497SOL    HW119522   7.695   3.128   0.220
 2497SOL    HW219523   7.784   3.098   0.087
 2498SOL     OW19524   3.927   5.940   5.559
 2498SOL    HW119525   3.911   5.842   5.571
 2498SOL    HW219526   3.992   5.954   5.484
 2499SOL     OW19527   2.415   1.581   5.822
 2499SOL    HW119528   2.396   1.528   5.739
 2499SOL    HW219529   2.354   1.660   5.827
 2500SOL     OW19530   7.004   1.627   0.411
 2500SOL    HW119531   7.078   1.693   0.399
 2500SOL    HW219532   6.997   1.569   0.330
 2501SOL     OW19533   1.013   0.675   6.293
 2501SOL    HW119534   0.921   0.714   6.293
 2501SOL    HW219535   1.062   0.705   6.211
 2502SOL     OW19536   9.334   6.870   1.390
 2502SOL    HW119537   9.239   6.895   1.406
 2502SOL    HW219538   9.345   6.771   1.401
 2503SOL     OW19539   7.555   4.299   0.079
 2503SOL    HW119540   7.495   4.241   0.024
 2503SOL    HW219541   7.577   4.382   0.028
 2504SOL     OW19542   6.960   5.118   6.682
 2504SOL    HW119543   6.922   5.033   6.720
 2504SOL    HW219544   7.058   5.122   6.702
 2505SOL     OW19545   3.751   3.126   1.220
 2505SOL    HW119546   3.745   3.035   1.263
 2505SOL    HW219547   3.711   3.123   1.129
 2506SOL     OW19548   2.012   2.783   5.951
 2506SOL    HW119549   2.107   2.782   5.982
 2506SOL    HW219550   1.991   2.872   5.912
 2507SOL     OW19551   8.647   3.003   6.054
 2507SOL    HW119552   8.563   2.975   6.100
 2507SOL    HW219553   8.715   2.931   6.062
 2508SOL     OW19554   3.731   3.357   0.334
 2508SOL    HW119555   3.781   3.430   0.288
 2508SOL    HW219556   3.749   3.270   0.288
 2509SOL     OW19557   7.116   1.442   6.391
 2509SOL    HW119558   7.029   1.391   6.391
 2509SOL    HW219559   7.154   1.441   6.299
 2510SOL     OW19560   0.230   1.033   0.488
 2510SOL    HW119561   0.279   1.097   0.547
 2510SOL    HW219562   0.153   0.993   0.539
 2511SOL     OW19563   9.467   0.942   4.883
 2511SOL    HW119564   9.430   1.033   4.897
 2511SOL    HW219565   9.498   0.933   4.788
 2512SOL     OW19566   2.300   2.654   6.474
 2512SOL    HW119567   2.361   2.662   6.552
 2512SOL    HW219568   2.278   2.745   6.440
 2513SOL     OW19569   6.183   7.731   6.287
 2513SOL    HW119570   6.094   7.688   6.303
 2513SOL    HW219571   6.245   7.664   6.245
 2514SOL     OW19572   4.469   7.975   4.992
 2514SOL    HW119573   4.512   8.012   4.910
 2514SOL    HW219574   4.466   7.875   4.986
 2515SOL     OW19575   9.264   8.432   5.048
 2515SOL    HW119576   9.180   8.465   5.091
 2515SOL    HW219577   9.257   8.441   4.949
 2516SOL     OW19578   5.489   0.722   2.150
 2516SOL    HW119579   5.568   0.781   2.165
 2516SOL    HW219580   5.415   0.749   2.212
 2517SOL     OW19581   0.523   7.589   6.288
 2517SOL    HW119582   0.469   7.597   6.372
 2517SOL    HW219583   0.503   7.666   6.228
 2518SOL     OW19584   7.290   0.545   0.141
 2518SOL    HW119585   7.375   0.577   0.098
 2518SOL    HW219586   7.307   0.525   0.238
 2519SOL     OW19587   7.461   5.681   0.409
 2519SOL    HW119588   7.458   5.722   0.318
 2519SOL    HW219589   7.528   5.728   0.465
 2520SOL     OW19590   3.901   5.785   6.734
 2520SOL    HW119591   3.849   5.771   6.818
 2520SOL    HW219592   3.953   5.702   6.713
 2521SOL     OW19593   1.770   6.179   0.104
 2521SOL    HW119594   1.816   6.137   0.025
 2521SOL    HW219595   1.738   6.270   0.080
 2522SOL     OW19596   7.399   6.289   5.148
 2522SOL    HW119597   7.358   6.219   5.089
 2522SOL    HW219598   7.401   6.376   5.099
 2523SOL     OW19599   2.538   1.491   6.310
 2523SOL    HW119600   2.542   1.519   6.214
 2523SOL    HW219601   2.482   1.556   6.361
 2524SOL     OW19602   3.311   1.147   6.171
 2524SOL    HW119603   3.247   1.080   6.210
 2524SOL    HW219604   3.259   1.224   6.134
 2525SOL     OW19605   4.823   6.020   6.684
 2525SOL    HW119606   4.833   6.011   6.783
 2525SOL    HW219607   4.912   6.040   6.642
 2526SOL     OW19608   6.602   6.542   5.507
 2526SOL    HW119609   6.681   6.602   5.493
 2526SOL    HW219610   6.584   6.533   5.605
 2527SOL     OW19611   6.651   5.005   0.177
 2527SOL    HW119612   6.686   5.089   0.219
 2527SOL    HW219613   6.648   5.016   0.078
 2528SOL     OW19614   2.697   4.837   0.528
 2528SOL    HW119615   2.745   4.925   0.524
 2528SOL    HW219616   2.695   4.797   0.436
 2529SOL     OW19617   2.696   5.081   1.042
 2529SOL    HW119618   2.648   5.123   0.965
 2529SOL    HW219619   2.770   5.141   1.072
 2530SOL     OW19620   8.715   2.504   4.989
 2530SOL    HW119621   8.722   2.404   4.988
 2530SOL    HW219622   8.619   2.531   4.991
 2531SOL     OW19623   5.795   2.480   5.964
 2531SOL    HW119624   5.803   2.551   5.894
 2531SOL    HW219625   5.794   2.390   5.921
 2532SOL     OW19626   8.122   8.442   4.891
 2532SOL    HW119627   8.041   8.495   4.868
 2532SOL    HW219628   8.181   8.496   4.952
 2533SOL     OW19629   3.584   0.109   5.524
 2533SOL    HW119630   3.583   0.018   5.565
 2533SOL    HW219631   3.560   0.177   5.594
 2534SOL     OW19632   7.043   0.441   5.891
 2534SOL    HW119633   6.975   0.511   5.868
 2534SOL    HW219634   6.997   0.354   5.909
 2535SOL     OW19635   5.849   6.100   0.637
 2535SOL    HW119636   5.806   6.021   0.593
 2535SOL    HW219637   5.902   6.069   0.716
 2536SOL     OW19638   8.946   6.730   6.288
 2536SOL    HW119639   8.874   6.749   6.221
 2536SOL    HW219640   8.978   6.816   6.329
 2537SOL     OW19641   6.693   4.068   6.692
 2537SOL    HW119642   6.700   4.031   6.785
 2537SOL    HW219643   6.675   4.166   6.696
 2538SOL     OW19644   2.412   5.684   0.806
 2538SOL    HW119645   2.445   5.598   0.768
 2538SOL    HW219646   2.327   5.669   0.857
 2539SOL     OW19647   3.557   1.807   6.544
 2539SOL    HW119648   3.603   1.728   6.503
 2539SOL    HW219649   3.614   1.888   6.534
 2540SOL     OW19650   6.397   1.804   1.215
 2540SOL    HW119651   6.466   1.734   1.196
 2540SOL    HW219652   6.384   1.861   1.134
 2541SOL     OW19653   4.652   8.003   0.672
 2541SOL    HW119654   4.717   8.008   0.596
 2541SOL    HW219655   4.636   8.095   0.708
 2542SOL     OW19656   1.892   0.960   6.731
 2542SOL    HW119657   1.847   1.029   6.787
 2542SOL    HW219658   1.848   0.871   6.746
 2543SOL     OW19659   0.757   7.357   5.754
 2543SOL    HW119660   0.855   7.360   5.772
 2543SOL    HW219661   0.715   7.444   5.781
 2544SOL     OW19662   4.676   6.402   6.406
 2544SOL    HW119663   4.595   6.391   6.347
 2544SOL    HW219664   4.738   6.468   6.365
 2545SOL     OW19665   1.171   8.232   1.084
 2545SOL    HW119666   1.172   8.222   1.184
 2545SOL    HW219667   1.087   8.192   1.047
 2546SOL     OW19668   5.407   6.274   0.935
 2546SOL    HW119669   5.443   6.367   0.930
 2546SOL    HW219670   5.397   6.247   1.031
 2547SOL     OW19671   5.368   0.672   5.960
 2547SOL    HW119672   5.327   0.763   5.963
 2547SOL    HW219673   5.467   0.680   5.968
 2548SOL     OW19674   4.986   0.280   5.529
 2548SOL    HW119675   4.917   0.259   5.460
 2548SOL    HW219676   4.982   0.212   5.602
 2549SOL     OW19677   1.960   1.081   1.119
 2549SOL    HW119678   1.938   1.177   1.139
 2549SOL    HW219679   1.978   1.033   1.205
 2550SOL     OW19680   0.918   8.379   5.590
 2550SOL    HW119681   0.857   8.370   5.668
 2550SOL    HW219682   1.007   8.412   5.622
 2551SOL     OW19683   4.785   8.274   5.901
 2551SOL    HW119684   4.836   8.231   5.975
 2551SOL    HW219685   4.786   8.215   5.820
 2552SOL     OW19686   5.872   4.361   5.869
 2552SOL    HW119687   5.957   4.307   5.872
 2552SOL    HW219688   5.810   4.322   5.802
 2553SOL     OW19689   0.404   7.091   0.047
 2553SOL    HW119690   0.354   7.006   0.035
 2553SOL    HW219691   0.444   7.119  -0.041
 2554SOL     OW19692   1.262   0.616   5.992
 2554SOL    HW119693   1.330   0.635   6.064
 2554SOL    HW219694   1.177   0.586   6.034
 2555SOL     OW19695   4.118   0.922   1.725
 2555SOL    HW119696   4.096   0.985   1.799
 2555SOL    HW219697   4.206   0.878   1.744
 2556SOL     OW19698   6.204   5.004   5.458
 2556SOL    HW119699   6.242   4.912   5.451
 2556SOL    HW219700   6.151   5.025   5.377
 2557SOL     OW19701   0.633   1.094   6.090
 2557SOL    HW119702   0.655   1.072   5.995
 2557SOL    HW219703   0.710   1.143   6.131
 2558SOL     OW19704   6.399   0.359   6.216
 2558SOL    HW119705   6.492   0.394   6.220
 2558SOL    HW219706   6.397   0.265   6.248
 2559SOL     OW19707   8.300   4.611   0.394
 2559SOL    HW119708   8.395   4.580   0.395
 2559SOL    HW219709   8.255   4.577   0.312
 2560SOL     OW19710   2.188   3.198   0.566
 2560SOL    HW119711   2.215   3.135   0.494
 2560SOL    HW219712   2.224   3.289   0.546
 2561SOL     OW19713   0.094   5.195   5.763
 2561SOL    HW119714   0.149   5.174   5.683
 2561SOL    HW219715   0.005   5.232   5.734
 2562SOL     OW19716   8.231   3.729   5.127
 2562SOL    HW119717   8.144   3.701   5.169
 2562SOL    HW219718   8.268   3.654   5.074
 2563SOL     OW19719   6.476   2.093   0.579
 2563SOL    HW119720   6.414   2.158   0.536
 2563SOL    HW219721   6.490   2.014   0.519
 2564SOL     OW19722   0.668   3.137   5.069
 2564SOL    HW119723   0.698   3.232   5.064
 2564SOL    HW219724   0.596   3.122   5.001
 2565SOL     OW19725   0.459   0.279   0.830
 2565SOL    HW119726   0.508   0.362   0.804
 2565SOL    HW219727   0.373   0.304   0.875
 2566SOL     OW19728   5.896   0.766   5.933
 2566SOL    HW119729   5.960   0.751   5.858
 2566SOL    HW219730   5.814   0.710   5.919
 2567SOL     OW19731   3.626   2.699   0.391
 2567SOL    HW119732   3.596   2.612   0.430
 2567SOL    HW219733   3.559   2.731   0.324
 2568SOL     OW19734   5.674   6.579   5.859
 2568SOL    HW119735   5.749   6.513   5.858
 2568SOL    HW219736   5.591   6.535   5.824
 2569SOL     OW19737   7.280   0.959   5.445
 2569SOL    HW119738   7.296   1.058   5.438
 2569SOL    HW219739   7.198   0.935   5.393
 2570SOL     OW19740   3.427   5.134   1.221
 2570SOL    HW119741   3.501   5.189   1.261
 2570SOL    HW219742   3.401   5.174   1.133
 2571SOL     OW19743   2.642   6.301   0.943
 2571SOL    HW119744   2.718   6.243   0.914
 2571SOL    HW219745   2.597   6.340   0.863
 2572SOL     OW19746   6.976   7.060   0.388
 2572SOL    HW119747   6.969   6.961   0.379
 2572SOL    HW219748   7.043   7.094   0.321
 2573SOL     OW19749   8.321   7.548   0.380
 2573SOL    HW119750   8.280   7.460   0.356
 2573SOL    HW219751   8.421   7.541   0.373
 2574SOL     OW19752   4.899   2.895   1.054
 2574SOL    HW119753   4.848   2.855   1.130
 2574SOL    HW219754   4.909   2.828   0.981
 2575SOL     OW19755   3.803   5.250   6.047
 2575SOL    HW119756   3.707   5.225   6.057
 2575SOL    HW219757   3.845   5.195   5.975
 2576SOL     OW19758   6.882   7.883   1.221
 2576SOL    HW119759   6.941   7.922   1.292
 2576SOL    HW219760   6.814   7.824   1.264
 2577SOL     OW19761   3.809   6.235   6.569
 2577SOL    HW119762   3.768   6.298   6.635
 2577SOL    HW219763   3.892   6.195   6.609
 2578SOL     OW19764   6.428   4.967   6.155
 2578SOL    HW119765   6.493   5.040   6.172
 2578SOL    HW219766   6.476   4.879   6.155
 2579SOL     OW19767   4.127   8.135   1.108
 2579SOL    HW119768   4.096   8.156   1.015
 2579SOL    HW219769   4.096   8.207   1.170
 2580SOL     OW19770   8.577   7.884   6.627
 2580SOL    HW119771   8.604   7.874   6.531
 2580SOL    HW219772   8.579   7.981   6.652
 2581SOL     OW19773   1.724   8.032   0.243
 2581SOL    HW119774   1.734   8.072   0.334
 2581SOL    HW219775   1.699   8.103   0.177
 2582SOL     OW19776   5.548   1.182   1.751
 2582SOL    HW119777   5.642   1.165   1.781
 2582SOL    HW219778   5.548   1.253   1.680
 2583SOL     OW19779   3.475   0.566   0.138
 2583SOL    HW119780   3.505   0.563   0.234
 2583SOL    HW219781   3.555   0.561   0.078
 2584SOL     OW19782   2.136   6.495   1.430
 2584SOL    HW119783   2.114   6.405   1.467
 2584SOL    HW219784   2.055   6.533   1.386
 2585SOL     OW19785   0.937   7.098   1.279
 2585SOL    HW119786   1.011   7.161   1.256
 2585SOL    HW219787   0.864   7.146   1.327
 2586SOL     OW19788   3.496   0.160   0.105
 2586SOL    HW119789   3.443   0.081   0.138
 2586SOL    HW219790   3.523   0.217   0.182
 2587SOL     OW19791   3.647   2.074   0.463
 2587SOL    HW119792   3.589   2.149   0.432
 2587SOL    HW219793   3.590   1.999   0.498
 2588SOL     OW19794   9.466   4.713   0.698
 2588SOL    HW119795   9.525   4.777   0.748
 2588SOL    HW219796   9.447   4.633   0.755
 2589SOL     OW19797   2.117   5.385   0.099
 2589SOL    HW119798   2.158   5.371   0.009
 2589SOL    HW219799   2.029   5.338   0.104
 2590SOL     OW19800   4.669   2.281   0.551
 2590SOL    HW119801   4.583   2.245   0.514
 2590SOL    HW219802   4.680   2.251   0.646
 2591SOL     OW19803   3.944   4.864   6.490
 2591SOL    HW119804   3.892   4.853   6.575
 2591SOL    HW219805   3.893   4.922   6.427
 2592SOL     OW19806   2.200   7.742   6.320
 2592SOL    HW119807   2.291   7.718   6.286
 2592SOL    HW219808   2.132   7.727   6.248
 2593SOL     OW19809   9.236   6.383   0.016
 2593SOL    HW119810   9.234   6.452   0.088
 2593SOL    HW219811   9.143   6.350  -0.000
 2594SOL     OW19812   7.482   3.932   0.241
 2594SOL    HW119813   7.395   3.963   0.203
 2594SOL    HW219814   7.544   4.010   0.250
 2595SOL     OW19815   1.703   6.265   6.042
 2595SOL    HW119816   1.767   6.294   5.971
 2595SOL    HW219817   1.747   6.275   6.132
 2596SOL     OW19818   4.683   1.218   6.394
 2596SOL    HW119819   4.717   1.160   6.319
 2596SOL    HW219820   4.757   1.276   6.428
 2597SOL     OW19821   3.951   4.511   1.399
 2597SOL    HW119822   3.904   4.429   1.432
 2597SOL    HW219823   3.885   4.582   1.378
 2598SOL     OW19824   6.398   2.870   6.065
 2598SOL    HW119825   6.384   2.948   6.004
 2598SOL    HW219826   6.395   2.785   6.012
 2599SOL     OW19827   2.009   3.971   1.673
 2599SOL    HW119828   1.910   3.963   1.661
 2599SOL    HW219829   2.056   3.912   1.608
 2600SOL     OW19830   6.315   4.088   0.300
 2600SOL    HW119831   6.281   3.994   0.302
 2600SOL    HW219832   6.238   4.151   0.288
 2601SOL     OW19833   5.175   0.476   5.562
 2601SOL    HW119834   5.197   0.476   5.659
 2601SOL    HW219835   5.111   0.401   5.542
 2602SOL     OW19836   3.101   6.235   1.386
 2602SOL    HW119837   3.130   6.296   1.459
 2602SOL    HW219838   3.001   6.237   1.378
 2603SOL     OW19839   6.416   8.361   5.391
 2603SOL    HW119840   6.478   8.286   5.369
 2603SOL    HW219841   6.469   8.439   5.424
 2604SOL     OW19842   8.892   1.845   6.119
 2604SOL    HW119843   8.878   1.942   6.134
 2604SOL    HW219844   8.960   1.810   6.183
 2605SOL     OW19845   4.887   3.993   1.572
 2605SOL    HW119846   4.908   3.896   1.559
 2605SOL    HW219847   4.859   4.009   1.666
 2606SOL     OW19848   5.585   2.208   1.509
 2606SOL    HW119849   5.627   2.118   1.515
 2606SOL    HW219850   5.487   2.198   1.490
 2607SOL     OW19851   4.993   0.133   0.770
 2607SOL    HW119852   5.075   0.094   0.810
 2607SOL    HW219853   4.982   0.228   0.801
 2608SOL     OW19854   1.714   4.986   6.102
 2608SOL    HW119855   1.668   5.072   6.125
 2608SOL    HW219856   1.774   4.999   6.023
 2609SOL     OW19857   3.970   6.889   4.947
 2609SOL    HW119858   3.927   6.846   5.026
 2609SOL    HW219859   3.905   6.951   4.903
 2610SOL     OW19860   0.267   1.093   5.936
 2610SOL    HW119861   0.260   1.083   6.036
 2610SOL    HW219862   0.360   1.119   5.912
 2611SOL     OW19863   1.924   7.552   6.223
 2611SOL    HW119864   1.918   7.619   6.149
 2611SOL    HW219865   1.863   7.579   6.298
 2612SOL     OW19866   7.671   3.819   1.964
 2612SOL    HW119867   7.677   3.918   1.965
 2612SOL    HW219868   7.576   3.792   1.944
 2613SOL     OW19869   7.215   7.874   5.040
 2613SOL    HW119870   7.282   7.922   4.983
 2613SOL    HW219871   7.128   7.923   5.039
 2614SOL     OW19872   4.392   4.963   5.997
 2614SOL    HW119873   4.385   5.021   5.916
 2614SOL    HW219874   4.385   5.019   6.079
 2615SOL     OW19875   3.771   2.429   1.314
 2615SOL    HW119876   3.863   2.402   1.344
 2615SOL    HW219877   3.756   2.525   1.340
 2616SOL     OW19878   0.525   4.166   6.706
 2616SOL    HW119879   0.487   4.100   6.771
 2616SOL    HW219880   0.554   4.117   6.623
 2617SOL     OW19881   3.112   4.774   0.276
 2617SOL    HW119882   3.197   4.792   0.327
 2617SOL    HW219883   3.066   4.694   0.316
 2618SOL     OW19884   3.157   1.272   5.955
 2618SOL    HW119885   3.101   1.224   5.888
 2618SOL    HW219886   3.115   1.360   5.977
 2619SOL     OW19887   4.611   5.067   6.647
 2619SOL    HW119888   4.529   5.086   6.594
 2619SOL    HW219889   4.608   4.973   6.681
 2620SOL     OW19890   4.952   5.082   5.689
 2620SOL    HW119891   4.907   5.046   5.607
 2620SOL    HW219892   4.987   5.006   5.744
 2621SOL     OW19893   8.262   0.016   0.358
 2621SOL    HW119894   8.202   0.093   0.381
 2621SOL    HW219895   8.340   0.049   0.305
 2622SOL     OW19896   1.132   3.477   6.488
 2622SOL    HW119897   1.096   3.471   6.581
 2622SOL    HW219898   1.188   3.397   6.468
 2623SOL     OW19899   3.845   6.153   1.465
 2623SOL    HW119900   3.824   6.170   1.369
 2623SOL    HW219901   3.787   6.212   1.522
 2624SOL     OW19902   2.976   2.558   5.489
 2624SOL    HW119903   2.951   2.484   5.427
 2624SOL    HW219904   2.893   2.601   5.525
 2625SOL     OW19905   8.120   0.394   5.962
 2625SOL    HW119906   8.197   0.438   5.917
 2625SOL    HW219907   8.106   0.436   6.052
 2626SOL     OW19908   8.817   4.422   6.090
 2626SOL    HW119909   8.857   4.368   6.016
 2626SOL    HW219910   8.889   4.473   6.137
 2627SOL     OW19911   6.137   0.333   5.645
 2627SOL    HW119912   6.054   0.355   5.594
 2627SOL    HW219913   6.124   0.246   5.693
 2628SOL     OW19914   3.689   4.964   0.271
 2628SOL    HW119915   3.675   5.062   0.262
 2628SOL    HW219916   3.706   4.942   0.367
 2629SOL     OW19917   1.742   8.278   0.056
 2629SOL    HW119918   1.734   8.374   0.082
 2629SOL    HW219919   1.671   8.255  -0.011
 2630SOL     OW19920   3.820   7.306   5.710
 2630SOL    HW119921   3.815   7.353   5.798
 2630SOL    HW219922   3.863   7.217   5.722
 2631SOL     OW19923   8.096   0.710   6.391
 2631SOL    HW119924   8.026   0.705   6.463
 2631SOL    HW219925   8.062   0.768   6.317
 2632SOL     OW19926   0.880   6.017   4.980
 2632SOL    HW119927   0.922   5.970   4.903
 2632SOL    HW219928   0.947   6.026   5.054
 2633SOL     OW19929   3.115   2.825   6.671
 2633SOL    HW119930   3.080   2.884   6.598
 2633SOL    HW219931   3.136   2.734   6.633
 2634SOL     OW19932   8.931   5.531   6.021
 2634SOL    HW119933   9.015   5.477   6.028
 2634SOL    HW219934   8.880   5.504   5.939
 2635SOL     OW19935   3.170   7.282   0.328
 2635SOL    HW119936   3.089   7.228   0.351
 2635SOL    HW219937   3.193   7.268   0.232
 2636SOL     OW19938   6.247   3.012   1.446
 2636SOL    HW119939   6.239   2.979   1.540
 2636SOL    HW219940   6.266   3.111   1.446
 2637SOL     OW19941   8.528   5.131   0.688
 2637SOL    HW119942   8.590   5.113   0.764
 2637SOL    HW219943   8.541   5.062   0.617
 2638SOL     OW19944   7.076   7.463   1.718
 2638SOL    HW119945   7.176   7.463   1.729
 2638SOL    HW219946   7.036   7.523   1.787
 2639SOL     OW19947   9.096   7.802   0.572
 2639SOL    HW119948   9.137   7.769   0.487
 2639SOL    HW219949   9.069   7.725   0.629
 2640SOL     OW19950   4.619   6.270   0.369
 2640SOL    HW119951   4.701   6.215   0.379
 2640SOL    HW219952   4.538   6.211   0.369
 2641SOL     OW19953   0.431   5.839   0.521
 2641SOL    HW119954   0.508   5.776   0.505
 2641SOL    HW219955   0.346   5.787   0.523
 2642SOL     OW19956   1.698   7.033   6.333
 2642SOL    HW119957   1.747   7.120   6.339
 2642SOL    HW219958   1.687   7.007   6.237
 2643SOL     OW19959   9.320   2.784   0.685
 2643SOL    HW119960   9.400   2.827   0.642
 2643SOL    HW219961   9.250   2.853   0.703
 2644SOL     OW19962   4.993   4.966   0.994
 2644SOL    HW119963   4.982   4.867   0.999
 2644SOL    HW219964   5.053   4.997   1.067
 2645SOL     OW19965   3.105   2.026   0.726
 2645SOL    HW119966   3.141   2.043   0.818
 2645SOL    HW219967   3.141   1.939   0.692
 2646SOL     OW19968   0.859   7.830   4.091
 2646SOL    HW119969   0.760   7.821   4.077
 2646SOL    HW219970   0.877   7.905   4.155
 2647SOL     OW19971   3.482   5.508   0.207
 2647SOL    HW119972   3.459   5.449   0.284
 2647SOL    HW219973   3.402   5.563   0.183
 2648SOL     OW19974   1.308   6.013   5.215
 2648SOL    HW119975   1.274   6.001   5.122
 2648SOL    HW219976   1.241   5.979   5.280
 2649SOL     OW19977   7.598   3.415   6.532
 2649SOL    HW119978   7.627   3.338   6.589
 2649SOL    HW219979   7.498   3.422   6.536
 2650SOL     OW19980   3.539   5.215   6.084
 2650SOL    HW119981   3.467   5.226   6.015
 2650SOL    HW219982   3.500   5.174   6.167
 2651SOL     OW19983   8.249   3.599   6.228
 2651SOL    HW119984   8.227   3.598   6.131
 2651SOL    HW219985   8.332   3.653   6.243
 2652SOL     OW19986   6.417   4.077   6.414
 2652SOL    HW119987   6.504   4.098   6.370
 2652SOL    HW219988   6.357   4.157   6.411
 2653SOL     OW19989   0.315   7.498   5.067
 2653SOL    HW119990   0.312   7.516   4.968
 2653SOL    HW219991   0.226   7.465   5.097
 2654SOL     OW19992   2.329   5.900   0.420
 2654SOL    HW119993   2.278   5.866   0.499
 2654SOL    HW219994   2.266   5.919   0.345
 2655SOL     OW19995   8.427   6.983   5.379
 2655SOL    HW119996   8.451   6.999   5.283
 2655SOL    HW219997   8.327   6.978   5.387
 2656SOL     OW19998   2.858   1.419   1.703
 2656SOL    HW119999   2.865   1.372   1.615
 2656SOL    HW220000   2.840   1.516   1.688
 2657SOL     OW20001   1.056   7.621   1.619
 2657SOL    HW120002   1.068   7.706   1.670
 2657SOL    HW220003   0.967   7.620   1.574
 2658SOL     OW20004   1.975   5.798   5.567
 2658SOL    HW120005   2.034   5.835   5.638
 2658SOL    HW220006   1.902   5.744   5.609
 2659SOL     OW20007   0.582   5.090   0.031
 2659SOL    HW120008   0.505   5.143   0.068
 2659SOL    HW220009   0.661   5.150   0.019
 2660SOL     OW20010   7.068   5.177   6.154
 2660SOL    HW120011   7.142   5.130   6.104
 2660SOL    HW220012   7.105   5.259   6.198
 2661SOL     OW20013   1.099   0.430   4.523
 2661SOL    HW120014   1.035   0.399   4.453
 2661SOL    HW220015   1.126   0.524   4.503
 2662SOL     OW20016   0.304   1.971   6.103
 2662SOL    HW120017   0.213   1.972   6.061
 2662SOL    HW220018   0.374   1.970   6.031
 2663SOL     OW20019   4.962   3.348   1.120
 2663SOL    HW120020   5.006   3.438   1.129
 2663SOL    HW220021   4.992   3.289   1.194
 2664SOL     OW20022   9.145   0.963   5.922
 2664SOL    HW120023   9.238   0.931   5.941
 2664SOL    HW220024   9.125   1.044   5.976
 2665SOL     OW20025   8.355   1.269   6.180
 2665SOL    HW120026   8.410   1.188   6.164
 2665SOL    HW220027   8.287   1.250   6.251
 2666SOL     OW20028   1.508   7.941   5.623
 2666SOL    HW120029   1.437   7.880   5.587
 2666SOL    HW220030   1.594   7.924   5.575
 2667SOL     OW20031   0.541   2.074   0.563
 2667SOL    HW120032   0.544   2.046   0.659
 2667SOL    HW220033   0.510   1.998   0.507
 2668SOL     OW20034   9.223   1.869   5.419
 2668SOL    HW120035   9.303   1.915   5.381
 2668SOL    HW220036   9.242   1.772   5.431
 2669SOL     OW20037   8.386   0.499   5.243
 2669SOL    HW120038   8.397   0.434   5.167
 2669SOL    HW220039   8.475   0.536   5.268
 2670SOL     OW20040   5.365   7.402   1.051
 2670SOL    HW120041   5.384   7.500   1.050
 2670SOL    HW220042   5.279   7.385   1.099
 2671SOL     OW20043   6.727   4.097   0.745
 2671SOL    HW120044   6.752   4.174   0.804
 2671SOL    HW220045   6.810   4.055   0.708
 2672SOL     OW20046   1.840   3.007   6.165
 2672SOL    HW120047   1.793   3.000   6.253
 2672SOL    HW220048   1.799   2.942   6.100
 2673SOL     OW20049   3.419   1.019   6.520
 2673SOL    HW120050   3.465   1.106   6.503
 2673SOL    HW220051   3.323   1.026   6.492
 2674SOL     OW20052   2.491   8.264   0.662
 2674SOL    HW120053   2.550   8.268   0.742
 2674SOL    HW220054   2.530   8.201   0.594
 2675SOL     OW20055   0.409   7.944   0.733
 2675SOL    HW120056   0.404   8.044   0.740
 2675SOL    HW220057   0.492   7.919   0.683
 2676SOL     OW20058   8.806   5.681   5.178
 2676SOL    HW120059   8.748   5.605   5.149
 2676SOL    HW220060   8.877   5.697   5.110
 2677SOL     OW20061   2.974   3.705   5.936
 2677SOL    HW120062   3.020   3.790   5.961
 2677SOL    HW220063   2.963   3.701   5.837
 2678SOL     OW20064   1.508   1.323   0.340
 2678SOL    HW120065   1.472   1.388   0.273
 2678SOL    HW220066   1.487   1.230   0.310
 2679SOL     OW20067   3.146   7.855   0.553
 2679SOL    HW120068   3.188   7.856   0.462
 2679SOL    HW220069   3.218   7.845   0.622
 2680SOL     OW20070   6.098   6.134   4.581
 2680SOL    HW120071   6.187   6.158   4.621
 2680SOL    HW220072   6.113   6.076   4.500
 2681SOL     OW20073   0.281   7.030   4.023
 2681SOL    HW120074   0.203   6.978   3.989
 2681SOL    HW220075   0.340   7.056   3.946
 2682SOL     OW20076   1.516   1.155   6.327
 2682SOL    HW120077   1.562   1.162   6.415
 2682SOL    HW220078   1.507   1.246   6.286
 2683SOL     OW20079   2.805   3.994   5.781
 2683SOL    HW120080   2.774   3.948   5.698
 2683SOL    HW220081   2.836   3.927   5.848
 2684SOL     OW20082   1.524   6.693   4.329
 2684SOL    HW120083   1.427   6.672   4.347
 2684SOL    HW220084   1.530   6.758   4.253
 2685SOL     OW20085   1.184   5.444   0.852
 2685SOL    HW120086   1.267   5.390   0.837
 2685SOL    HW220087   1.177   5.466   0.949
 2686SOL     OW20088   3.846   5.897   0.332
 2686SOL    HW120089   3.829   5.919   0.428
 2686SOL    HW220090   3.795   5.814   0.308
 2687SOL     OW20091   3.568   2.254   6.523
 2687SOL    HW120092   3.613   2.323   6.468
 2687SOL    HW220093   3.625   2.172   6.527
 2688SOL     OW20094   5.506   7.850   6.491
 2688SOL    HW120095   5.487   7.943   6.462
 2688SOL    HW220096   5.583   7.850   6.556
 2689SOL     OW20097   0.967   7.167   0.754
 2689SOL    HW120098   0.911   7.095   0.714
 2689SOL    HW220099   0.977   7.151   0.852
 2690SOL     OW20100   6.010   6.791   5.634
 2690SOL    HW120101   6.082   6.742   5.585
 2690SOL    HW220102   5.943   6.826   5.568
 2691SOL     OW20103   1.950   4.502   4.910
 2691SOL    HW120104   1.886   4.550   4.849
 2691SOL    HW220105   2.002   4.435   4.857
 2692SOL     OW20106   8.064   8.179   6.457
 2692SOL    HW120107   8.078   8.278   6.457
 2692SOL    HW220108   7.984   8.157   6.512
 2693SOL     OW20109   8.620   1.776   5.883
 2693SOL    HW120110   8.542   1.802   5.825
 2693SOL    HW220111   8.661   1.692   5.848
 2694SOL     OW20112   4.219   5.572   6.609
 2694SOL    HW120113   4.315   5.563   6.586
 2694SOL    HW220114   4.192   5.668   6.602
 2695SOL     OW20115   6.885   6.603   6.298
 2695SOL    HW120116   6.922   6.511   6.306
 2695SOL    HW220117   6.940   6.667   6.352
 2696SOL     OW20118   0.989   7.155   0.416
 2696SOL    HW120119   0.963   7.227   0.480
 2696SOL    HW220120   1.066   7.104   0.453
 2697SOL     OW20121   0.866   5.501   0.357
 2697SOL    HW120122   0.798   5.432   0.380
 2697SOL    HW220123   0.948   5.456   0.320
 2698SOL     OW20124   2.824   1.875   1.934
 2698SOL    HW120125   2.728   1.847   1.929
 2698SOL    HW220126   2.852   1.910   1.845
 2699SOL     OW20127   9.192   0.097   0.543
 2699SOL    HW120128   9.259   0.113   0.470
 2699SOL    HW220129   9.101   0.124   0.511
 2700SOL     OW20130   5.692   6.650   5.569
 2700SOL    HW120131   5.736   6.617   5.653
 2700SOL    HW220132   5.613   6.592   5.549
 2701SOL     OW20133   2.546   0.300   4.807
 2701SOL    HW120134   2.604   0.268   4.732
 2701SOL    HW220135   2.559   0.398   4.820
 2702SOL     OW20136   3.616   2.225   0.935
 2702SOL    HW120137   3.646   2.133   0.910
 2702SOL    HW220138   3.529   2.246   0.889
 2703SOL     OW20139   0.793   3.935   5.647
 2703SOL    HW120140   0.818   3.871   5.574
 2703SOL    HW220141   0.865   4.004   5.655
 2704SOL     OW20142   8.098   8.299   0.395
 2704SOL    HW120143   8.018   8.315   0.338
 2704SOL    HW220144   8.151   8.383   0.404
 2705SOL     OW20145   8.328   3.925   5.697
 2705SOL    HW120146   8.395   3.942   5.624
 2705SOL    HW220147   8.242   3.894   5.656
 2706SOL     OW20148   2.567   7.562   6.645
 2706SOL    HW120149   2.576   7.501   6.723
 2706SOL    HW220150   2.657   7.592   6.615
 2707SOL     OW20151   2.695   4.075   0.922
 2707SOL    HW120152   2.632   4.045   0.850
 2707SOL    HW220153   2.683   4.017   1.003
 2708SOL     OW20154   5.525   7.744   1.178
 2708SOL    HW120155   5.620   7.771   1.191
 2708SOL    HW220156   5.484   7.722   1.267
 2709SOL     OW20157   2.890   0.790   1.974
 2709SOL    HW120158   2.954   0.786   1.897
 2709SOL    HW220159   2.935   0.754   2.056
 2710SOL     OW20160   9.289   6.981   5.920
 2710SOL    HW120161   9.201   7.020   5.896
 2710SOL    HW220162   9.358   7.053   5.926
 2711SOL     OW20163   4.181   5.996   5.849
 2711SOL    HW120164   4.270   6.040   5.848
 2711SOL    HW220165   4.109   6.066   5.843
 2712SOL     OW20166   3.577   6.721   6.576
 2712SOL    HW120167   3.513   6.790   6.611
 2712SOL    HW220168   3.556   6.632   6.617
 2713SOL     OW20169   4.561   0.919   0.425
 2713SOL    HW120170   4.495   0.993   0.435
 2713SOL    HW220171   4.531   0.857   0.352
 2714SOL     OW20172   7.109   2.406   0.336
 2714SOL    HW120173   7.193   2.447   0.372
 2714SOL    HW220174   7.130   2.318   0.294
 2715SOL     OW20175   5.601   8.216   5.881
 2715SOL    HW120176   5.668   8.230   5.954
 2715SOL    HW220177   5.629   8.139   5.823
 2716SOL     OW20178   4.073   1.510   6.122
 2716SOL    HW120179   4.141   1.476   6.187
 2716SOL    HW220180   4.116   1.579   6.064
 2717SOL     OW20181   2.540   1.579   0.149
 2717SOL    HW120182   2.505   1.551   0.238
 2717SOL    HW220183   2.631   1.540   0.135
 2718SOL     OW20184   4.147   4.462   5.633
 2718SOL    HW120185   4.055   4.425   5.625
 2718SOL    HW220186   4.160   4.532   5.563
 2719SOL     OW20187   9.280   3.214   6.519
 2719SOL    HW120188   9.314   3.307   6.507
 2719SOL    HW220189   9.342   3.162   6.578
 2720SOL     OW20190   5.337   3.755   0.729
 2720SOL    HW120191   5.240   3.749   0.753
 2720SOL    HW220192   5.372   3.845   0.756
 2721SOL     OW20193   0.030   1.555   5.434
 2721SOL    HW120194   0.083   1.600   5.362
 2721SOL    HW220195  -0.067   1.581   5.426
 2722SOL     OW20196   1.163   5.773   4.256
 2722SOL    HW120197   1.106   5.830   4.197
 2722SOL    HW220198   1.140   5.677   4.242
 2723SOL     OW20199   3.156   7.434   6.027
 2723SOL    HW120200   3.085   7.494   6.064
 2723SOL    HW220201   3.139   7.340   6.058
 2724SOL     OW20202   6.768   6.705   5.821
 2724SOL    HW120203   6.689   6.643   5.823
 2724SOL    HW220204   6.852   6.651   5.811
 2725SOL     OW20205   5.885   7.104   0.890
 2725SOL    HW120206   5.982   7.127   0.896
 2725SOL    HW220207   5.868   7.019   0.938
 2726SOL     OW20208   8.930   8.003   6.650
 2726SOL    HW120209   9.022   7.966   6.668
 2726SOL    HW220210   8.916   8.010   6.552
 2727SOL     OW20211   2.721   2.710   5.492
 2727SOL    HW120212   2.739   2.800   5.452
 2727SOL    HW220213   2.631   2.679   5.464
 2728SOL     OW20214   0.340   7.511   4.179
 2728SOL    HW120215   0.398   7.541   4.103
 2728SOL    HW220216   0.312   7.416   4.164
 2729SOL     OW20217   6.477   3.303   5.816
 2729SOL    HW120218   6.472   3.315   5.717
 2729SOL    HW220219   6.521   3.216   5.837
 2730SOL     OW20220   5.130   0.589   6.608
 2730SOL    HW120221   5.153   0.667   6.667
 2730SOL    HW220222   5.035   0.596   6.579
 2731SOL     OW20223   1.516   2.967   0.847
 2731SOL    HW120224   1.419   2.946   0.861
 2731SOL    HW220225   1.547   3.032   0.916
 2732SOL     OW20226   5.729   2.681   0.126
 2732SOL    HW120227   5.712   2.679   0.224
 2732SOL    HW220228   5.820   2.718   0.108
 2733SOL     OW20229   9.274   1.134   6.605
 2733SOL    HW120230   9.368   1.136   6.570
 2733SOL    HW220231   9.221   1.066   6.554
 2734SOL     OW20232   0.232   5.471   6.679
 2734SOL    HW120233   0.316   5.485   6.626
 2734SOL    HW220234   0.254   5.467   6.776
 2735SOL     OW20235   5.587   0.816   1.686
 2735SOL    HW120236   5.488   0.809   1.701
 2735SOL    HW220237   5.605   0.829   1.588
 2736SOL     OW20238   5.608   3.902   6.603
 2736SOL    HW120239   5.546   3.824   6.606
 2736SOL    HW220240   5.694   3.878   6.646
 2737SOL     OW20241   2.653   1.199   0.776
 2737SOL    HW120242   2.637   1.161   0.867
 2737SOL    HW220243   2.711   1.136   0.723
 2738SOL     OW20244   4.012   0.787   0.275
 2738SOL    HW120245   4.001   0.689   0.260
 2738SOL    HW220246   3.922   0.829   0.288
 2739SOL     OW20247   0.772   0.480   1.072
 2739SOL    HW120248   0.784   0.439   0.982
 2739SOL    HW220249   0.696   0.546   1.070
 2740SOL     OW20250   9.032   3.121   6.600
 2740SOL    HW120251   8.973   3.161   6.529
 2740SOL    HW220252   9.125   3.157   6.589
 2741SOL     OW20253   5.974   7.859   6.538
 2741SOL    HW120254   6.011   7.770   6.568
 2741SOL    HW220255   6.011   7.881   6.448
 2742SOL     OW20256   3.557   5.160   0.444
 2742SOL    HW120257   3.625   5.231   0.460
 2742SOL    HW220258   3.478   5.198   0.396
 2743SOL     OW20259   5.068   7.878   2.054
 2743SOL    HW120260   5.108   7.819   1.984
 2743SOL    HW220261   5.053   7.824   2.137
 2744SOL     OW20262   0.223   5.261   0.731
 2744SOL    HW120263   0.149   5.195   0.742
 2744SOL    HW220264   0.187   5.353   0.743
 2745SOL     OW20265   0.468   8.366   1.590
 2745SOL    HW120266   0.430   8.301   1.656
 2745SOL    HW220267   0.490   8.451   1.637
 2746SOL     OW20268   8.207   1.865   0.719
 2746SOL    HW120269   8.274   1.800   0.682
 2746SOL    HW220270   8.161   1.825   0.798
 2747SOL     OW20271   7.208   5.348   1.372
 2747SOL    HW120272   7.138   5.284   1.339
 2747SOL    HW220273   7.268   5.301   1.437
 2748SOL     OW20274   1.618   6.820   4.702
 2748SOL    HW120275   1.638   6.728   4.670
 2748SOL    HW220276   1.582   6.874   4.626
 2749SOL     OW20277   5.034   1.076   6.007
 2749SOL    HW120278   4.998   1.158   5.963
 2749SOL    HW220279   5.059   1.009   5.937
 2750SOL     OW20280   3.498   2.785   0.144
 2750SOL    HW120281   3.533   2.864   0.093
 2750SOL    HW220282   3.410   2.809   0.186
 2751SOL     OW20283   1.549   7.429   6.733
 2751SOL    HW120284   1.525   7.432   6.636
 2751SOL    HW220285   1.640   7.389   6.744
 2752SOL     OW20286   8.557   2.857   1.594
 2752SOL    HW120287   8.587   2.763   1.611
 2752SOL    HW220288   8.572   2.912   1.676
 2753SOL     OW20289   6.952   8.093   5.593
 2753SOL    HW120290   7.031   8.042   5.560
 2753SOL    HW220291   6.868   8.042   5.574
 2754SOL     OW20292   5.166   0.769   1.352
 2754SOL    HW120293   5.174   0.669   1.347
 2754SOL    HW220294   5.255   0.808   1.376
 2755SOL     OW20295   0.542   6.138   4.689
 2755SOL    HW120296   0.509   6.048   4.659
 2755SOL    HW220297   0.634   6.129   4.727
 2756SOL     OW20298   2.462   5.144   0.587
 2756SOL    HW120299   2.416   5.162   0.501
 2756SOL    HW220300   2.408   5.079   0.641
 2757SOL     OW20301   5.641   1.815   1.730
 2757SOL    HW120302   5.552   1.840   1.691
 2757SOL    HW220303   5.628   1.778   1.822
 2758SOL     OW20304   8.873   3.259   6.425
 2758SOL    HW120305   8.895   3.355   6.407
 2758SOL    HW220306   8.774   3.249   6.435
 2759SOL     OW20307   0.726   5.466   6.391
 2759SOL    HW120308   0.717   5.398   6.317
 2759SOL    HW220309   0.796   5.436   6.455
 2760SOL     OW20310   8.595   7.572   0.327
 2760SOL    HW120311   8.666   7.563   0.398
 2760SOL    HW220312   8.608   7.500   0.259
 2761SOL     OW20313   5.963   4.731   0.770
 2761SOL    HW120314   6.059   4.754   0.755
 2761SOL    HW220315   5.945   4.727   0.868
 2762SOL     OW20316   6.843   4.513   1.275
 2762SOL    HW120317   6.881   4.424   1.300
 2762SOL    HW220318   6.881   4.583   1.336
 2763SOL     OW20319   4.710   6.702   1.210
 2763SOL    HW120320   4.738   6.656   1.125
 2763SOL    HW220321   4.756   6.659   1.288
 2764SOL     OW20322   5.568   6.226   6.470
 2764SOL    HW120323   5.502   6.285   6.516
 2764SOL    HW220324   5.650   6.218   6.527
 2765SOL     OW20325   8.178   4.686   5.350
 2765SOL    HW120326   8.101   4.633   5.315
 2765SOL    HW220327   8.226   4.730   5.274
 2766SOL     OW20328   5.118   7.489   0.801
 2766SOL    HW120329   5.050   7.517   0.868
 2766SOL    HW220330   5.150   7.570   0.751
 2767SOL     OW20331   8.934   0.624   6.653
 2767SOL    HW120332   8.967   0.596   6.563
 2767SOL    HW220333   9.001   0.597   6.723
 2768SOL     OW20334   3.430   4.340   0.919
 2768SOL    HW120335   3.420   4.349   0.820
 2768SOL    HW220336   3.452   4.245   0.942
 2769SOL     OW20337   7.051   0.026   0.497
 2769SOL    HW120338   6.965  -0.017   0.525
 2769SOL    HW220339   7.101   0.057   0.578
 2770SOL     OW20340   0.772   6.192   5.264
 2770SOL    HW120341   0.845   6.125   5.276
 2770SOL    HW220342   0.684   6.146   5.263
 2771SOL     OW20343   9.253   1.320   5.352
 2771SOL    HW120344   9.300   1.268   5.424
 2771SOL    HW220345   9.291   1.294   5.263
 2772SOL     OW20346   4.888   5.815   6.091
 2772SOL    HW120347   4.824   5.781   6.161
 2772SOL    HW220348   4.850   5.799   6.000
 2773SOL     OW20349   0.644   1.063   0.547
 2773SOL    HW120350   0.617   1.135   0.610
 2773SOL    HW220351   0.714   1.097   0.484
 2774SOL     OW20352   4.077   4.764   0.079
 2774SOL    HW120353   3.982   4.786   0.101
 2774SOL    HW220354   4.081   4.679   0.027
 2775SOL     OW20355   8.811   0.036   0.556
 2775SOL    HW120356   8.823   0.098   0.478
 2775SOL    HW220357   8.717   0.000   0.556
 2776SOL     OW20358   0.227   4.291   0.279
 2776SOL    HW120359   0.157   4.295   0.350
 2776SOL    HW220360   0.244   4.382   0.244
 2777SOL     OW20361   2.163   5.465   4.998
 2777SOL    HW120362   2.224   5.536   4.963
 2777SOL    HW220363   2.084   5.506   5.042
 2778SOL     OW20364   0.101   2.404   6.691
 2778SOL    HW120365   0.140   2.408   6.783
 2778SOL    HW220366   0.168   2.363   6.628
 2779SOL     OW20367   0.813   6.092   5.566
 2779SOL    HW120368   0.716   6.071   5.581
 2779SOL    HW220369   0.842   6.163   5.630
 2780SOL     OW20370   2.811   4.358   1.216
 2780SOL    HW120371   2.785   4.430   1.152
 2780SOL    HW220372   2.757   4.367   1.300
 2781SOL     OW20373   7.030   0.160   6.718
 2781SOL    HW120374   6.973   0.088   6.679
 2781SOL    HW220375   7.095   0.119   6.782
 2782SOL     OW20376   4.813   8.227   6.661
 2782SOL    HW120377   4.900   8.216   6.708
 2782SOL    HW220378   4.784   8.323   6.667
 2783SOL     OW20379   7.872   8.425   0.260
 2783SOL    HW120380   7.908   8.518   0.250
 2783SOL    HW220381   7.773   8.430   0.277
 2784SOL     OW20382   1.594   3.060   6.447
 2784SOL    HW120383   1.537   3.055   6.365
 2784SOL    HW220384   1.624   3.154   6.461
 2785SOL     OW20385   7.833   0.511   5.627
 2785SOL    HW120386   7.794   0.561   5.550
 2785SOL    HW220387   7.886   0.433   5.593
 2786SOL     OW20388   0.655   5.651   0.470
 2786SOL    HW120389   0.722   5.590   0.429
 2786SOL    HW220390   0.681   5.670   0.565
 2787SOL     OW20391   0.024   3.935   6.335
 2787SOL    HW120392   0.063   3.983   6.414
 2787SOL    HW220393  -0.065   3.973   6.312
 2788SOL     OW20394   7.142   1.306   5.413
 2788SOL    HW120395   7.206   1.336   5.342
 2788SOL    HW220396   7.086   1.231   5.377
 2789SOL     OW20397   5.851   5.225   5.085
 2789SOL    HW120398   5.751   5.214   5.092
 2789SOL    HW220399   5.871   5.303   5.025
 2790SOL     OW20400   0.394   3.916   0.371
 2790SOL    HW120401   0.327   3.844   0.391
 2790SOL    HW220402   0.480   3.895   0.417
 2791SOL     OW20403   3.671   1.096   6.408
 2791SOL    HW120404   3.757   1.136   6.436
 2791SOL    HW220405   3.603   1.168   6.394
 2792SOL     OW20406   5.048   6.343   0.915
 2792SOL    HW120407   5.083   6.357   1.008
 2792SOL    HW220408   4.971   6.279   0.918
 2793SOL     OW20409   9.335   2.714   1.693
 2793SOL    HW120410   9.262   2.781   1.710
 2793SOL    HW220411   9.330   2.643   1.763
 2794SOL     OW20412   1.106   6.550   5.974
 2794SOL    HW120413   1.040   6.490   5.930
 2794SOL    HW220414   1.057   6.618   6.029
 2795SOL     OW20415   4.385   6.107   0.424
 2795SOL    HW120416   4.418   6.013   0.436
 2795SOL    HW220417   4.286   6.109   0.439
 2796SOL     OW20418   4.971   0.515   0.202
 2796SOL    HW120419   4.875   0.497   0.227
 2796SOL    HW220420   4.998   0.454   0.128
 2797SOL     OW20421   0.539   6.636   1.179
 2797SOL    HW120422   0.539   6.736   1.166
 2797SOL    HW220423   0.554   6.616   1.276
 2798SOL     OW20424   2.641   3.942   1.147
 2798SOL    HW120425   2.631   3.851   1.187
 2798SOL    HW220426   2.667   4.008   1.218
 2799SOL     OW20427   1.528   5.491   0.551
 2799SOL    HW120428   1.534   5.586   0.582
 2799SOL    HW220429   1.611   5.468   0.500
 2800SOL     OW20430   0.050   6.590   0.419
 2800SOL    HW120431  -0.037   6.594   0.468
 2800SOL    HW220432   0.038   6.625   0.326
 2801SOL     OW20433   7.976   4.181   6.669
 2801SOL    HW120434   8.065   4.143   6.646
 2801SOL    HW220435   7.904   4.116   6.643
 2802SOL     OW20436   3.086   3.918   0.345
 2802SOL    HW120437   3.073   3.996   0.406
 2802SOL    HW220438   3.012   3.915   0.278
 2803SOL     OW20439   6.062   6.781   0.324
 2803SOL    HW120440   6.091   6.823   0.409
 2803SOL    HW220441   6.137   6.780   0.259
 2804SOL     OW20442   1.758   2.889   6.569
 2804SOL    HW120443   1.856   2.898   6.587
 2804SOL    HW220444   1.726   2.971   6.520
 2805SOL     OW20445   6.712   5.502   5.284
 2805SOL    HW120446   6.637   5.552   5.326
 2805SOL    HW220447   6.797   5.521   5.334
 2806SOL     OW20448   8.276   6.624   6.529
 2806SOL    HW120449   8.199   6.669   6.484
 2806SOL    HW220450   8.274   6.526   6.510
 2807SOL     OW20451   4.123   6.827   1.625
 2807SOL    HW120452   4.069   6.909   1.646
 2807SOL    HW220453   4.098   6.793   1.535
 2808SOL     OW20454   9.297   7.627   5.679
 2808SOL    HW120455   9.236   7.704   5.658
 2808SOL    HW220456   9.314   7.625   5.778
 2809SOL     OW20457   5.473   4.661   6.543
 2809SOL    HW120458   5.402   4.732   6.539
 2809SOL    HW220459   5.434   4.573   6.518
 2810SOL     OW20460   0.291   8.280   0.150
 2810SOL    HW120461   0.365   8.241   0.206
 2810SOL    HW220462   0.298   8.380   0.152
 2811SOL     OW20463   6.214   5.084   6.317
 2811SOL    HW120464   6.300   5.035   6.300
 2811SOL    HW220465   6.181   5.124   6.231
 2812SOL     OW20466   6.880   0.290   6.374
 2812SOL    HW120467   6.843   0.346   6.299
 2812SOL    HW220468   6.865   0.336   6.461
 2813SOL     OW20469   7.565   3.193   0.746
 2813SOL    HW120470   7.584   3.251   0.825
 2813SOL    HW220471   7.614   3.107   0.755
 2814SOL     OW20472   0.014   1.086   5.827
 2814SOL    HW120473  -0.015   1.181   5.839
 2814SOL    HW220474   0.110   1.076   5.853
 2815SOL     OW20475   9.275   5.156   5.988
 2815SOL    HW120476   9.187   5.117   6.017
 2815SOL    HW220477   9.349   5.111   6.036
 2816SOL     OW20478   9.299   1.447   1.227
 2816SOL    HW120479   9.207   1.486   1.231
 2816SOL    HW220480   9.342   1.454   1.317
 2817SOL     OW20481   4.909   2.496   0.589
 2817SOL    HW120482   4.848   2.418   0.604
 2817SOL    HW220483   4.855   2.576   0.562
 2818SOL     OW20484   9.007   2.649   5.833
 2818SOL    HW120485   8.971   2.715   5.768
 2818SOL    HW220486   9.037   2.567   5.785
 2819SOL     OW20487   1.328   5.819   6.147
 2819SOL    HW120488   1.281   5.771   6.072
 2819SOL    HW220489   1.427   5.809   6.135
 2820SOL     OW20490   2.677   1.903   0.933
 2820SOL    HW120491   2.708   1.966   0.862
 2820SOL    HW220492   2.593   1.858   0.903
 2821SOL     OW20493   6.813   0.386   6.638
 2821SOL    HW120494   6.888   0.349   6.693
 2821SOL    HW220495   6.740   0.318   6.630
 2822SOL     OW20496   3.117   0.429   5.679
 2822SOL    HW120497   3.097   0.523   5.705
 2822SOL    HW220498   3.174   0.386   5.749
 2823SOL     OW20499   7.590   6.529   4.862
 2823SOL    HW120500   7.622   6.607   4.808
 2823SOL    HW220501   7.662   6.461   4.870
 2824SOL     OW20502   4.399   6.763   5.514
 2824SOL    HW120503   4.328   6.694   5.528
 2824SOL    HW220504   4.369   6.827   5.443
 2825SOL     OW20505   4.908   2.642   6.259
 2825SOL    HW120506   4.892   2.696   6.342
 2825SOL    HW220507   4.884   2.547   6.276
 2826SOL     OW20508   7.440   5.745   5.800
 2826SOL    HW120509   7.450   5.646   5.814
 2826SOL    HW220510   7.388   5.784   5.876
 2827SOL     OW20511   7.248   0.938   5.771
 2827SOL    HW120512   7.333   0.965   5.726
 2827SOL    HW220513   7.172   0.951   5.707
 2828SOL     OW20514   1.676   3.756   5.226
 2828SOL    HW120515   1.696   3.799   5.138
 2828SOL    HW220516   1.750   3.692   5.250
 2829SOL     OW20517   5.470   3.680   6.561
 2829SOL    HW120518   5.464   3.597   6.506
 2829SOL    HW220519   5.445   3.660   6.656
 2830SOL     OW20520   9.051   1.755   6.326
 2830SOL    HW120521   9.135   1.782   6.373
 2830SOL    HW220522   9.038   1.656   6.334
 2831SOL     OW20523   0.129   4.762   5.518
 2831SOL    HW120524   0.189   4.714   5.454
 2831SOL    HW220525   0.054   4.805   5.467
 2832SOL     OW20526   4.419   6.597   6.532
 2832SOL    HW120527   4.462   6.510   6.556
 2832SOL    HW220528   4.464   6.635   6.451
 2833SOL     OW20529   6.371   2.636   5.327
 2833SOL    HW120530   6.337   2.709   5.386
 2833SOL    HW220531   6.457   2.664   5.285
 2834SOL     OW20532   2.002   3.067   5.883
 2834SOL    HW120533   1.942   3.135   5.841
 2834SOL    HW220534   2.035   3.101   5.971
 2835SOL     OW20535   2.349   0.844   0.794
 2835SOL    HW120536   2.315   0.907   0.724
 2835SOL    HW220537   2.366   0.895   0.879
 2836SOL     OW20538   8.080   3.659   1.413
 2836SOL    HW120539   8.055   3.708   1.496
 2836SOL    HW220540   8.152   3.593   1.433
 2837SOL     OW20541   4.961   7.774   0.028
 2837SOL    HW120542   5.006   7.704  -0.028
 2837SOL    HW220543   4.925   7.846  -0.031
 2838SOL     OW20544   0.764   8.414   1.539
 2838SOL    HW120545   0.796   8.425   1.634
 2838SOL    HW220546   0.680   8.360   1.539
 2839SOL     OW20547   1.318   5.138   0.138
 2839SOL    HW120548   1.241   5.129   0.076
 2839SOL    HW220549   1.317   5.229   0.180
 2840SOL     OW20550   4.091   1.506   5.507
 2840SOL    HW120551   4.159   1.572   5.541
 2840SOL    HW220552   4.071   1.527   5.411
 2841SOL     OW20553   8.436   6.273   1.100
 2841SOL    HW120554   8.515   6.216   1.079
 2841SOL    HW220555   8.449   6.316   1.189
 2842SOL     OW20556   5.442   1.329   6.238
 2842SOL    HW120557   5.490   1.243   6.220
 2842SOL    HW220558   5.346   1.309   6.258
 2843SOL     OW20559   1.729   1.648   6.581
 2843SOL    HW120560   1.648   1.694   6.544
 2843SOL    HW220561   1.764   1.699   6.660
 2844SOL     OW20562   3.430   8.041   1.071
 2844SOL    HW120563   3.341   8.052   1.026
 2844SOL    HW220564   3.416   8.033   1.170
 2845SOL     OW20565   4.908   0.778   6.398
 2845SOL    HW120566   4.887   0.709   6.468
 2845SOL    HW220567   4.923   0.733   6.310
 2846SOL     OW20568   0.928   8.412   1.305
 2846SOL    HW120569   1.021   8.446   1.323
 2846SOL    HW220570   0.865   8.447   1.374
 2847SOL     OW20571   2.812   2.721   6.700
 2847SOL    HW120572   2.769   2.647   6.752
 2847SOL    HW220573   2.907   2.732   6.730
 2848SOL     OW20574   5.477   6.903   1.312
 2848SOL    HW120575   5.565   6.858   1.328
 2848SOL    HW220576   5.411   6.837   1.278
 2849SOL     OW20577   3.976   3.661   1.031
 2849SOL    HW120578   3.910   3.679   0.958
 2849SOL    HW220579   4.056   3.719   1.018
 2850SOL     OW20580   2.109   7.065   6.351
 2850SOL    HW120581   2.076   6.973   6.329
 2850SOL    HW220582   2.085   7.087   6.446
 2851SOL     OW20583   0.750   2.685   0.981
 2851SOL    HW120584   0.798   2.773   0.984
 2851SOL    HW220585   0.653   2.700   0.999
 2852SOL     OW20586   1.391   6.002   5.639
 2852SOL    HW120587   1.341   6.038   5.717
 2852SOL    HW220588   1.438   5.917   5.666
 2853SOL     OW20589   6.493   6.895   0.820
 2853SOL    HW120590   6.469   6.990   0.839
 2853SOL    HW220591   6.451   6.866   0.734
 2854SOL     OW20592   1.941   5.722   0.899
 2854SOL    HW120593   1.900   5.789   0.837
 2854SOL    HW220594   1.908   5.631   0.876
 2855SOL     OW20595   4.775   4.765   1.086
 2855SOL    HW120596   4.865   4.723   1.092
 2855SOL    HW220597   4.737   4.775   1.178
 2856SOL     OW20598   3.761   3.048   0.505
 2856SOL    HW120599   3.810   3.131   0.528
 2856SOL    HW220600   3.826   2.974   0.488
 2857SOL     OW20601   9.430   7.678   0.770
 2857SOL    HW120602   9.492   7.692   0.847
 2857SOL    HW220603   9.386   7.589   0.779
 2858SOL     OW20604   1.742   7.247   4.956
 2858SOL    HW120605   1.751   7.336   4.911
 2858SOL    HW220606   1.787   7.177   4.900
 2859SOL     OW20607   6.224   3.246   0.640
 2859SOL    HW120608   6.180   3.290   0.718
 2859SOL    HW220609   6.314   3.213   0.666
 2860SOL     OW20610   3.364   8.310   0.349
 2860SOL    HW120611   3.391   8.330   0.254
 2860SOL    HW220612   3.285   8.365   0.373
 2861SOL     OW20613   2.022   1.626   0.272
 2861SOL    HW120614   2.112   1.603   0.310
 2861SOL    HW220615   1.955   1.628   0.346
 2862SOL     OW20616   3.682   5.520   1.788
 2862SOL    HW120617   3.661   5.617   1.798
 2862SOL    HW220618   3.654   5.471   1.870
 2863SOL     OW20619   7.701   6.057   5.775
 2863SOL    HW120620   7.728   5.979   5.720
 2863SOL    HW220621   7.605   6.048   5.801
 2864SOL     OW20622   5.216   6.858   1.493
 2864SOL    HW120623   5.248   6.918   1.419
 2864SOL    HW220624   5.218   6.908   1.580
 2865SOL     OW20625   5.052   8.062   1.183
 2865SOL    HW120626   5.035   8.036   1.088
 2865SOL    HW220627   4.971   8.105   1.221
 2866SOL     OW20628   8.867   4.683   6.311
 2866SOL    HW120629   8.879   4.776   6.276
 2866SOL    HW220630   8.956   4.645   6.336
 2867SOL     OW20631   6.038   4.976   0.099
 2867SOL    HW120632   6.125   4.971   0.149
 2867SOL    HW220633   5.962   4.967   0.163
 2868SOL     OW20634   7.251   3.825   6.511
 2868SOL    HW120635   7.311   3.796   6.436
 2868SOL    HW220636   7.278   3.775   6.594
 2869SOL     OW20637   1.782   6.701   5.993
 2869SOL    HW120638   1.731   6.770   5.941
 2869SOL    HW220639   1.876   6.732   6.004
 2870SOL     OW20640   6.895   5.864   1.026
 2870SOL    HW120641   6.893   5.831   0.931
 2870SOL    HW220642   6.951   5.802   1.081
 2871SOL     OW20643   4.989   4.857   6.033
 2871SOL    HW120644   5.031   4.936   5.988
 2871SOL    HW220645   4.904   4.833   5.986
 2872SOL     OW20646   3.907   1.230   6.438
 2872SOL    HW120647   3.913   1.262   6.532
 2872SOL    HW220648   3.864   1.301   6.381
 2873SOL     OW20649   5.768   8.048   1.139
 2873SOL    HW120650   5.678   8.025   1.176
 2873SOL    HW220651   5.760   8.126   1.077
 2874SOL     OW20652   1.133   0.602   5.465
 2874SOL    HW120653   1.197   0.537   5.505
 2874SOL    HW220654   1.117   0.579   5.369
 2875SOL     OW20655   0.457   5.423   0.341
 2875SOL    HW120656   0.523   5.363   0.387
 2875SOL    HW220657   0.457   5.513   0.383
 2876SOL     OW20658   4.017   1.717   1.187
 2876SOL    HW120659   4.077   1.641   1.159
 2876SOL    HW220660   3.960   1.744   1.110
 2877SOL     OW20661   1.747   5.596   5.351
 2877SOL    HW120662   1.731   5.498   5.359
 2877SOL    HW220663   1.824   5.611   5.288
 2878SOL     OW20664   7.508   7.651   5.521
 2878SOL    HW120665   7.507   7.558   5.556
 2878SOL    HW220666   7.512   7.649   5.421
 2879SOL     OW20667   4.929   0.071   4.677
 2879SOL    HW120668   4.910  -0.010   4.622
 2879SOL    HW220669   4.875   0.067   4.761
 2880SOL     OW20670   0.745   5.296   6.199
 2880SOL    HW120671   0.820   5.232   6.219
 2880SOL    HW220672   0.669   5.245   6.158
 2881SOL     OW20673   5.508   6.767   0.814
 2881SOL    HW120674   5.489   6.843   0.752
 2881SOL    HW220675   5.425   6.713   0.827
 2882SOL     OW20676   2.321   4.004   0.500
 2882SOL    HW120677   2.291   4.100   0.508
 2882SOL    HW220678   2.249   3.944   0.535
 2883SOL     OW20679   5.576   2.825   6.399
 2883SOL    HW120680   5.591   2.728   6.382
 2883SOL    HW220681   5.545   2.869   6.314
 2884SOL     OW20682   4.893   7.643   5.478
 2884SOL    HW120683   4.934   7.671   5.565
 2884SOL    HW220684   4.943   7.565   5.440
 2885SOL     OW20685   3.690   0.784   5.280
 2885SOL    HW120686   3.743   0.867   5.262
 2885SOL    HW220687   3.595   0.810   5.297
 2886SOL     OW20688   7.923   4.870   5.689
 2886SOL    HW120689   7.980   4.798   5.727
 2886SOL    HW220690   7.929   4.868   5.589
 2887SOL     OW20691   8.009   1.221   0.881
 2887SOL    HW120692   7.979   1.219   0.786
 2887SOL    HW220693   7.929   1.220   0.941
 2888SOL     OW20694   6.735   2.533   6.573
 2888SOL    HW120695   6.647   2.575   6.593
 2888SOL    HW220696   6.732   2.437   6.600
 2889SOL     OW20697   4.871   8.022   0.495
 2889SOL    HW120698   4.800   8.026   0.425
 2889SOL    HW220699   4.939   7.952   0.470
 2890SOL     OW20700   6.870   3.191   0.054
 2890SOL    HW120701   6.787   3.247   0.053
 2890SOL    HW220702   6.917   3.203   0.141
 2891SOL     OW20703   0.819   5.406   4.669
 2891SOL    HW120704   0.752   5.412   4.595
 2891SOL    HW220705   0.785   5.458   4.748
 2892SOL     OW20706   5.992   1.900   6.313
 2892SOL    HW120707   6.008   1.819   6.257
 2892SOL    HW220708   6.069   1.962   6.305
 2893SOL     OW20709   6.158   8.044   5.086
 2893SOL    HW120710   6.073   8.059   5.137
 2893SOL    HW220711   6.141   7.981   5.010
 2894SOL     OW20712   1.954   0.693   5.636
 2894SOL    HW120713   1.993   0.734   5.553
 2894SOL    HW220714   2.001   0.730   5.716
 2895SOL     OW20715   5.822   5.994   1.079
 2895SOL    HW120716   5.843   6.036   1.167
 2895SOL    HW220717   5.853   5.899   1.079
 2896SOL     OW20718   0.394   1.222   0.639
 2896SOL    HW120719   0.385   1.304   0.695
 2896SOL    HW220720   0.415   1.247   0.545
 2897SOL     OW20721   4.292   1.266   1.020
 2897SOL    HW120722   4.347   1.183   1.026
 2897SOL    HW220723   4.236   1.263   0.938
 2898SOL     OW20724   5.876   7.520   0.987
 2898SOL    HW120725   5.860   7.507   0.889
 2898SOL    HW220726   5.916   7.610   1.003
 2899SOL     OW20727   8.026   3.198   6.664
 2899SOL    HW120728   8.040   3.215   6.762
 2899SOL    HW220729   7.932   3.220   6.640
 2900SOL     OW20730   0.063   2.053   0.112
 2900SOL    HW120731   0.019   1.989   0.050
 2900SOL    HW220732   0.010   2.058   0.197
 2901SOL     OW20733   3.731   6.368   0.064
 2901SOL    HW120734   3.718   6.279   0.108
 2901SOL    HW220735   3.726   6.440   0.133
 2902SOL     OW20736   7.276   2.194   6.144
 2902SOL    HW120737   7.282   2.162   6.050
 2902SOL    HW220738   7.183   2.182   6.177
 2903SOL     OW20739   6.957   0.296   0.541
 2903SOL    HW120740   6.894   0.346   0.482
 2903SOL    HW220741   6.994   0.217   0.491
 2904SOL     OW20742   8.500   8.243   6.469
 2904SOL    HW120743   8.505   8.195   6.381
 2904SOL    HW220744   8.420   8.302   6.470
 2905SOL     OW20745   8.707   7.340   5.632
 2905SOL    HW120746   8.800   7.352   5.668
 2905SOL    HW220747   8.685   7.243   5.628
 2906SOL     OW20748   2.054   4.544   6.707
 2906SOL    HW120749   2.042   4.597   6.622
 2906SOL    HW220750   2.150   4.545   6.734
 2907SOL     OW20751   7.777   0.902   6.715
 2907SOL    HW120752   7.832   0.963   6.658
 2907SOL    HW220753   7.687   0.890   6.674
 2908SOL     OW20754   2.347   3.496   6.159
 2908SOL    HW120755   2.365   3.398   6.154
 2908SOL    HW220756   2.434   3.545   6.167
 2909SOL     OW20757   7.607   3.677   0.260
 2909SOL    HW120758   7.580   3.773   0.269
 2909SOL    HW220759   7.531   3.624   0.221
 2910SOL     OW20760   4.090   1.968   0.469
 2910SOL    HW120761   4.001   1.930   0.442
 2910SOL    HW220762   4.099   2.060   0.432
 2911SOL     OW20763   5.323   3.370   5.921
 2911SOL    HW120764   5.391   3.441   5.939
 2911SOL    HW220765   5.295   3.328   6.007
 2912SOL     OW20766   6.439   6.506   0.239
 2912SOL    HW120767   6.452   6.415   0.279
 2912SOL    HW220768   6.485   6.574   0.297
 2913SOL     OW20769   0.706   6.495   5.935
 2913SOL    HW120770   0.697   6.499   6.035
 2913SOL    HW220771   0.615   6.482   5.895
 2914SOL     OW20772   6.961   4.498   0.932
 2914SOL    HW120773   7.041   4.516   0.990
 2914SOL    HW220774   6.948   4.575   0.870
 2915SOL     OW20775   3.980   7.051   5.394
 2915SOL    HW120776   3.884   7.080   5.391
 2915SOL    HW220777   4.016   7.045   5.301
 2916SOL     OW20778   4.592   5.004   0.681
 2916SOL    HW120779   4.613   4.914   0.718
 2916SOL    HW220780   4.579   5.069   0.756
 2917SOL     OW20781   7.818   1.179   0.370
 2917SOL    HW120782   7.763   1.111   0.323
 2917SOL    HW220783   7.806   1.268   0.326
 2918SOL     OW20784   4.964   0.766   0.086
 2918SOL    HW120785   4.986   0.673   0.118
 2918SOL    HW220786   4.913   0.814   0.157
 2919SOL     OW20787   2.622   0.595   1.595
 2919SOL    HW120788   2.595   0.503   1.566
 2919SOL    HW220789   2.721   0.606   1.585
 2920SOL     OW20790   0.268   6.160   4.805
 2920SOL    HW120791   0.350   6.175   4.750
 2920SOL    HW220792   0.292   6.155   4.901
 2921SOL     OW20793   1.082   4.954   6.142
 2921SOL    HW120794   1.000   4.908   6.107
 2921SOL    HW220795   1.138   4.888   6.191
 2922SOL     OW20796   0.340   3.003   6.626
 2922SOL    HW120797   0.367   3.011   6.530
 2922SOL    HW220798   0.333   3.094   6.666
 2923SOL     OW20799   1.173   6.442   4.864
 2923SOL    HW120800   1.147   6.489   4.780
 2923SOL    HW220801   1.264   6.473   4.892
 2924SOL     OW20802   6.350   2.354   5.382
 2924SOL    HW120803   6.367   2.443   5.339
 2924SOL    HW220804   6.431   2.296   5.372
 2925SOL     OW20805   3.687   0.263   6.002
 2925SOL    HW120806   3.714   0.334   6.067
 2925SOL    HW220807   3.762   0.247   5.938
 2926SOL     OW20808   7.381   8.231   5.174
 2926SOL    HW120809   7.440   8.158   5.141
 2926SOL    HW220810   7.396   8.244   5.272
 2927SOL     OW20811   8.798   4.096   0.638
 2927SOL    HW120812   8.789   4.041   0.721
 2927SOL    HW220813   8.721   4.077   0.577
 2928SOL     OW20814   1.512   5.750   4.595
 2928SOL    HW120815   1.478   5.793   4.511
 2928SOL    HW220816   1.490   5.652   4.594
 2929SOL     OW20817   9.369   8.110   5.331
 2929SOL    HW120818   9.389   8.203   5.363
 2929SOL    HW220819   9.318   8.115   5.245
 2930SOL     OW20820   3.188   3.019   5.549
 2930SOL    HW120821   3.091   3.026   5.572
 2930SOL    HW220822   3.215   3.098   5.493
 2931SOL     OW20823   7.676   6.898   5.643
 2931SOL    HW120824   7.656   6.960   5.567
 2931SOL    HW220825   7.771   6.910   5.673
 2932SOL     OW20826   4.104   3.366   1.338
 2932SOL    HW120827   4.017   3.317   1.339
 2932SOL    HW220828   4.106   3.433   1.412
 2933SOL     OW20829   6.760   7.770   6.402
 2933SOL    HW120830   6.673   7.724   6.421
 2933SOL    HW220831   6.745   7.868   6.394
 2934SOL     OW20832   6.123   7.267   0.289
 2934SOL    HW120833   6.198   7.201   0.293
 2934SOL    HW220834   6.059   7.250   0.363
 2935SOL     OW20835   8.752   5.343   1.255
 2935SOL    HW120836   8.665   5.312   1.215
 2935SOL    HW220837   8.733   5.412   1.325
 2936SOL     OW20838   1.548   8.259   6.617
 2936SOL    HW120839   1.467   8.287   6.670
 2936SOL    HW220840   1.542   8.296   6.525
 2937SOL     OW20841   5.230   4.875   1.614
 2937SOL    HW120842   5.164   4.838   1.550
 2937SOL    HW220843   5.198   4.860   1.708
 2938SOL     OW20844   2.203   7.184   1.481
 2938SOL    HW120845   2.197   7.242   1.400
 2938SOL    HW220846   2.182   7.238   1.563
 2939SOL     OW20847   8.565   5.486   0.313
 2939SOL    HW120848   8.566   5.529   0.223
 2939SOL    HW220849   8.562   5.557   0.384
 2940SOL     OW20850   4.839   6.641   6.305
 2940SOL    HW120851   4.924   6.589   6.318
 2940SOL    HW220852   4.852   6.734   6.340
 2941SOL     OW20853   9.102   7.447   0.798
 2941SOL    HW120854   9.123   7.422   0.704
 2941SOL    HW220855   9.150   7.385   0.860
 2942SOL     OW20856   8.846   7.059   4.577
 2942SOL    HW120857   8.863   6.976   4.523
 2942SOL    HW220858   8.833   7.136   4.515
 2943SOL     OW20859   6.598   8.431   1.627
 2943SOL    HW120860   6.551   8.411   1.712
 2943SOL    HW220861   6.635   8.523   1.630
 2944SOL     OW20862   1.460   2.088   5.879
 2944SOL    HW120863   1.456   1.994   5.915
 2944SOL    HW220864   1.474   2.152   5.955
 2945SOL     OW20865   8.447   0.295   5.770
 2945SOL    HW120866   8.455   0.283   5.869
 2945SOL    HW220867   8.351   0.315   5.747
 2946SOL     OW20868   3.185   2.426   6.377
 2946SOL    HW120869   3.225   2.338   6.402
 2946SOL    HW220870   3.085   2.418   6.374
 2947SOL     OW20871   3.233   8.026   5.288
 2947SOL    HW120872   3.186   8.087   5.224
 2947SOL    HW220873   3.328   8.055   5.298
 2948SOL     OW20874   3.924   1.317   5.174
 2948SOL    HW120875   3.913   1.279   5.082
 2948SOL    HW220876   3.976   1.253   5.231
 2949SOL     OW20877   9.163   6.336   6.206
 2949SOL    HW120878   9.117   6.279   6.139
 2949SOL    HW220879   9.103   6.351   6.285
 2950SOL     OW20880   8.780   3.156   5.623
 2950SOL    HW120881   8.788   3.239   5.677
 2950SOL    HW220882   8.710   3.169   5.553
 2951SOL     OW20883   3.766   6.948   0.626
 2951SOL    HW120884   3.816   6.992   0.700
 2951SOL    HW220885   3.743   6.854   0.652
 2952SOL     OW20886   9.221   6.179   5.546
 2952SOL    HW120887   9.259   6.137   5.463
 2952SOL    HW220888   9.133   6.221   5.524
 2953SOL     OW20889   0.916   6.498   6.232
 2953SOL    HW120890   0.820   6.479   6.252
 2953SOL    HW220891   0.926   6.593   6.202
 2954SOL     OW20892   8.284   1.152   1.399
 2954SOL    HW120893   8.329   1.074   1.355
 2954SOL    HW220894   8.332   1.175   1.483
 2955SOL     OW20895   7.679   2.265   0.030
 2955SOL    HW120896   7.768   2.220   0.017
 2955SOL    HW220897   7.607   2.207  -0.009
 2956SOL     OW20898   1.374   8.215   5.458
 2956SOL    HW120899   1.292   8.176   5.500
 2956SOL    HW220900   1.446   8.224   5.527
 2957SOL     OW20901   3.057   0.422   1.089
 2957SOL    HW120902   2.989   0.487   1.054
 2957SOL    HW220903   3.095   0.457   1.175
 2958SOL     OW20904   9.395   0.878   5.959
 2958SOL    HW120905   9.453   0.952   5.924
 2958SOL    HW220906   9.427   0.852   6.050
 2959SOL     OW20907   1.249   7.873   0.457
 2959SOL    HW120908   1.338   7.917   0.462
 2959SOL    HW220909   1.248   7.808   0.380
 2960SOL     OW20910   4.408   8.090   0.356
 2960SOL    HW120911   4.463   8.171   0.335
 2960SOL    HW220912   4.370   8.099   0.448
 2961SOL     OW20913   1.489   2.421   6.731
 2961SOL    HW120914   1.391   2.431   6.748
 2961SOL    HW220915   1.523   2.505   6.689
 2962SOL     OW20916   4.188   7.933   5.528
 2962SOL    HW120917   4.251   7.969   5.596
 2962SOL    HW220918   4.238   7.882   5.459
 2963SOL     OW20919   7.870   5.845   6.304
 2963SOL    HW120920   7.835   5.802   6.388
 2963SOL    HW220921   7.855   5.784   6.227
 2964SOL     OW20922   7.420   5.680   0.875
 2964SOL    HW120923   7.427   5.583   0.854
 2964SOL    HW220924   7.446   5.696   0.970
 2965SOL     OW20925   5.805   4.228   0.985
 2965SOL    HW120926   5.715   4.194   1.010
 2965SOL    HW220927   5.875   4.178   1.036
 2966SOL     OW20928   5.054   1.846   6.390
 2966SOL    HW120929   5.127   1.780   6.371
 2966SOL    HW220930   5.094   1.927   6.433
 2967SOL     OW20931   2.968   5.174   1.137
 2967SOL    HW120932   3.047   5.133   1.181
 2967SOL    HW220933   2.926   5.241   1.199
 2968SOL     OW20934   4.156   8.334   6.568
 2968SOL    HW120935   4.213   8.290   6.499
 2968SOL    HW220936   4.174   8.433   6.567
 2969SOL     OW20937   0.991   2.103   0.265
 2969SOL    HW120938   0.928   2.083   0.340
 2969SOL    HW220939   0.976   2.038   0.191
 2970SOL     OW20940   3.154   8.335   5.197
 2970SOL    HW120941   3.165   8.408   5.130
 2970SOL    HW220942   3.116   8.254   5.152
 2971SOL     OW20943   3.083   0.479   6.265
 2971SOL    HW120944   3.156   0.412   6.267
 2971SOL    HW220945   3.079   0.527   6.353
 2972SOL     OW20946   8.270   1.612   5.850
 2972SOL    HW120947   8.208   1.541   5.818
 2972SOL    HW220948   8.364   1.579   5.849
 2973SOL     OW20949   2.722   1.904   6.568
 2973SOL    HW120950   2.775   1.834   6.520
 2973SOL    HW220951   2.625   1.890   6.552
 2974SOL     OW20952   2.083   8.259   6.408
 2974SOL    HW120953   2.088   8.160   6.422
 2974SOL    HW220954   2.040   8.301   6.488
 2975SOL     OW20955   8.631   4.844   0.618
 2975SOL    HW120956   8.719   4.891   0.614
 2975SOL    HW220957   8.627   4.790   0.702
 2976SOL     OW20958   8.434   4.854   0.432
 2976SOL    HW120959   8.378   4.772   0.423
 2976SOL    HW220960   8.500   4.842   0.506
 2977SOL     OW20961   4.072   6.017   2.114
 2977SOL    HW120962   4.041   5.922   2.117
 2977SOL    HW220963   4.088   6.050   2.207
 2978SOL     OW20964   3.732   5.292   5.604
 2978SOL    HW120965   3.816   5.342   5.586
 2978SOL    HW220966   3.656   5.357   5.615
 2979SOL     OW20967   2.353   8.285   5.674
 2979SOL    HW120968   2.452   8.281   5.673
 2979SOL    HW220969   2.320   8.328   5.590
 2980SOL     OW20970   8.501   3.148   0.050
 2980SOL    HW120971   8.554   3.227   0.018
 2980SOL    HW220972   8.407   3.156   0.019
 2981SOL     OW20973   1.791   7.653   6.442
 2981SOL    HW120974   1.736   7.735   6.458
 2981SOL    HW220975   1.836   7.626   6.527
 2982SOL     OW20976   6.515   7.763   6.112
 2982SOL    HW120977   6.495   7.674   6.152
 2982SOL    HW220978   6.444   7.788   6.046
 2983SOL     OW20979   6.380   2.776   5.566
 2983SOL    HW120980   6.332   2.694   5.598
 2983SOL    HW220981   6.464   2.788   5.618
 2984SOL     OW20982   7.836   2.452   5.590
 2984SOL    HW120983   7.918   2.477   5.642
 2984SOL    HW220984   7.856   2.453   5.493
 2985SOL     OW20985   2.928   7.495   0.312
 2985SOL    HW120986   2.955   7.466   0.404
 2985SOL    HW220987   2.902   7.415   0.259
 2986SOL     OW20988   5.076   4.532   0.680
 2986SOL    HW120989   5.171   4.541   0.648
 2986SOL    HW220990   5.035   4.623   0.688
 2987SOL     OW20991   7.660   4.160   0.297
 2987SOL    HW120992   7.616   4.207   0.221
 2987SOL    HW220993   7.749   4.202   0.316
 2988SOL     OW20994   5.685   1.660   0.025
 2988SOL    HW120995   5.611   1.687   0.086
 2988SOL    HW220996   5.651   1.654  -0.069
 2989SOL     OW20997   4.532   7.049   4.940
 2989SOL    HW120998   4.588   7.130   4.958
 2989SOL    HW220999   4.444   7.077   4.904
 2990SOL     OW21000   2.984   1.446   0.640
 2990SOL    HW121001   3.064   1.410   0.690
 2990SOL    HW221002   2.934   1.509   0.699
 2991SOL     OW21003   0.757   1.178   4.710
 2991SOL    HW121004   0.675   1.223   4.673
 2991SOL    HW221005   0.830   1.245   4.722
 2992SOL     OW21006   1.823   7.332   1.093
 2992SOL    HW121007   1.890   7.341   1.166
 2992SOL    HW221008   1.732   7.322   1.133
 2993SOL     OW21009   5.103   6.014   5.658
 2993SOL    HW121010   5.003   6.020   5.667
 2993SOL    HW221011   5.129   6.034   5.563
 2994SOL     OW21012   2.812   0.434   0.621
 2994SOL    HW121013   2.811   0.334   0.615
 2994SOL    HW221014   2.754   0.463   0.698
 2995SOL     OW21015   7.831   0.681   0.873
 2995SOL    HW121016   7.759   0.614   0.895
 2995SOL    HW221017   7.801   0.772   0.900
 2996SOL     OW21018   1.036   8.370   6.436
 2996SOL    HW121019   1.021   8.308   6.513
 2996SOL    HW221020   1.059   8.461   6.471
 2997SOL     OW21021   2.845   6.111   0.836
 2997SOL    HW121022   2.887   6.083   0.749
 2997SOL    HW221023   2.806   6.030   0.881
 2998SOL     OW21024   2.052   4.987   1.079
 2998SOL    HW121025   2.143   4.981   1.039
 2998SOL    HW221026   1.984   4.988   1.005
 2999SOL     OW21027   9.139   7.790   6.591
 2999SOL    HW121028   9.074   7.814   6.519
 2999SOL    HW221029   9.207   7.862   6.600
 3000SOL     OW21030   7.569   2.675   6.639
 3000SOL    HW121031   7.619   2.759   6.615
 3000SOL    HW221032   7.528   2.685   6.729
 3001SOL     OW21033   1.000   7.199   0.060
 3001SOL    HW121034   0.919   7.157   0.102
 3001SOL    HW221035   1.082   7.158   0.100
 3002SOL     OW21036   1.987   2.569   5.783
 3002SOL    HW121037   2.000   2.640   5.852
 3002SOL    HW221038   1.893   2.573   5.748
 3003SOL     OW21039   3.090   1.766   6.188
 3003SOL    HW121040   3.065   1.754   6.284
 3003SOL    HW221041   3.007   1.765   6.132
 3004SOL     OW21042   7.878   1.855   0.300
 3004SOL    HW121043   7.918   1.794   0.369
 3004SOL    HW221044   7.900   1.949   0.323
 3005SOL     OW21045   6.973   3.759   0.752
 3005SOL    HW121046   6.943   3.787   0.661
 3005SOL    HW221047   7.062   3.800   0.772
 3006SOL     OW21048   9.208   0.904   1.017
 3006SOL    HW121049   9.251   0.892   1.106
 3006SOL    HW221050   9.111   0.924   1.030
 3007SOL     OW21051   5.228   6.055   1.401
 3007SOL    HW121052   5.227   5.963   1.441
 3007SOL    HW221053   5.178   6.118   1.459
 3008SOL     OW21054   5.095   1.990   6.135
 3008SOL    HW121055   5.109   2.089   6.132
 3008SOL    HW221056   5.168   1.948   6.189
 3009SOL     OW21057   5.389   4.216   0.590
 3009SOL    HW121058   5.437   4.138   0.550
 3009SOL    HW221059   5.312   4.241   0.532
 3010SOL     OW21060   2.864   6.027   5.550
 3010SOL    HW121061   2.912   6.014   5.463
 3010SOL    HW221062   2.889   5.953   5.612
 3011SOL     OW21063   3.501   8.107   6.713
 3011SOL    HW121064   3.424   8.158   6.675
 3011SOL    HW221065   3.535   8.042   6.644
 3012SOL     OW21066   1.161   4.364   0.495
 3012SOL    HW121067   1.075   4.333   0.535
 3012SOL    HW221068   1.148   4.453   0.451
 3013SOL     OW21069   0.954   4.223   5.925
 3013SOL    HW121070   0.994   4.151   5.980
 3013SOL    HW221071   0.864   4.247   5.961
 3014SOL     OW21072   0.202   5.983   6.421
 3014SOL    HW121073   0.185   5.887   6.399
 3014SOL    HW221074   0.300   5.997   6.433
 3015SOL     OW21075   6.747   0.201   0.339
 3015SOL    HW121076   6.781   0.151   0.260
 3015SOL    HW221077   6.657   0.166   0.364
 3016SOL     OW21078   8.112   3.416   1.597
 3016SOL    HW121079   8.037   3.413   1.663
 3016SOL    HW221080   8.192   3.459   1.638
 3017SOL     OW21081   3.175   1.072   1.817
 3017SOL    HW121082   3.260   1.091   1.867
 3017SOL    HW221083   3.164   1.139   1.744
 3018SOL     OW21084   9.453   3.496   0.696
 3018SOL    HW121085   9.420   3.552   0.620
 3018SOL    HW221086   9.391   3.507   0.774
 3019SOL     OW21087   1.149   5.121   6.641
 3019SOL    HW121088   1.193   5.141   6.553
 3019SOL    HW221089   1.146   5.022   6.654
 3020SOL     OW21090   5.786   2.469   6.239
 3020SOL    HW121091   5.789   2.482   6.140
 3020SOL    HW221092   5.817   2.376   6.261
 3021SOL     OW21093   8.873   4.351   0.590
 3021SOL    HW121094   8.969   4.344   0.563
 3021SOL    HW221095   8.835   4.259   0.603
 3022SOL     OW21096   6.085   5.227   6.722
 3022SOL    HW121097   6.087   5.137   6.765
 3022SOL    HW221098   5.992   5.264   6.725
 3023SOL     OW21099   5.625   5.533   6.069
 3023SOL    HW121100   5.718   5.504   6.051
 3023SOL    HW221101   5.566   5.453   6.083
 3024SOL     OW21102   4.147   0.341   5.228
 3024SOL    HW121103   4.146   0.288   5.313
 3024SOL    HW221104   4.101   0.289   5.156
 3025SOL     OW21105   0.914   4.035   6.507
 3025SOL    HW121106   0.826   3.992   6.527
 3025SOL    HW221107   0.899   4.127   6.471
 3026SOL     OW21108   7.338   7.488   6.624
 3026SOL    HW121109   7.264   7.505   6.559
 3026SOL    HW221110   7.394   7.413   6.591
 3027SOL     OW21111   1.697   0.898   5.200
 3027SOL    HW121112   1.742   0.892   5.111
 3027SOL    HW221113   1.662   0.991   5.213
 3028SOL     OW21114   0.397   4.846   6.648
 3028SOL    HW121115   0.466   4.915   6.673
 3028SOL    HW221116   0.442   4.758   6.634
 3029SOL     OW21117   6.998   4.722   5.703
 3029SOL    HW121118   6.965   4.757   5.615
 3029SOL    HW221119   7.055   4.791   5.747
 3030SOL     OW21120   7.611   8.459   0.231
 3030SOL    HW121121   7.595   8.550   0.194
 3030SOL    HW221122   7.540   8.396   0.197
 3031SOL     OW21123   4.539   3.680   0.863
 3031SOL    HW121124   4.482   3.640   0.791
 3031SOL    HW221125   4.632   3.642   0.855
 3032SOL     OW21126   3.315   7.248   0.851
 3032SOL    HW121127   3.354   7.187   0.782
 3032SOL    HW221128   3.221   7.271   0.827
 3033SOL     OW21129   1.002   8.058   6.400
 3033SOL    HW121130   1.089   8.012   6.381
 3033SOL    HW221131   1.002   8.090   6.495
 3034SOL     OW21132   9.469   2.602   5.679
 3034SOL    HW121133   9.434   2.685   5.635
 3034SOL    HW221134   9.434   2.597   5.773
 3035SOL     OW21135   4.114   7.808   6.118
 3035SOL    HW121136   4.187   7.845   6.061
 3035SOL    HW221137   4.153   7.757   6.194
 3036SOL     OW21138   1.314   3.463   0.057
 3036SOL    HW121139   1.216   3.449   0.040
 3036SOL    HW221140   1.360   3.375   0.060
 3037SOL     OW21141   1.864   0.834   0.740
 3037SOL    HW121142   1.923   0.844   0.660
 3037SOL    HW221143   1.769   0.825   0.710
 3038SOL     OW21144   9.039   6.881   5.586
 3038SOL    HW121145   9.087   6.801   5.622
 3038SOL    HW221146   9.093   6.963   5.603
 3039SOL     OW21147   8.829   7.471   0.839
 3039SOL    HW121148   8.830   7.479   0.939
 3039SOL    HW221149   8.922   7.481   0.804
 3040SOL     OW21150   6.781   4.787   6.384
 3040SOL    HW121151   6.697   4.840   6.391
 3040SOL    HW221152   6.806   4.777   6.287
 3041SOL     OW21153   4.629   7.066   0.343
 3041SOL    HW121154   4.673   7.155   0.352
 3041SOL    HW221155   4.543   7.066   0.395
 3042SOL     OW21156   0.319   7.353   0.523
 3042SOL    HW121157   0.357   7.288   0.456
 3042SOL    HW221158   0.294   7.303   0.606
 3043SOL     OW21159   9.172   5.901   5.038
 3043SOL    HW121160   9.098   5.842   5.006
 3043SOL    HW221161   9.246   5.844   5.073
 3044SOL     OW21162   8.162   3.367   0.286
 3044SOL    HW121163   8.157   3.421   0.202
 3044SOL    HW221164   8.125   3.275   0.269
 3045SOL     OW21165   2.175   6.454   5.077
 3045SOL    HW121166   2.156   6.543   5.036
 3045SOL    HW221167   2.273   6.435   5.072
 3046SOL     OW21168   8.972   4.611   0.641
 3046SOL    HW121169   8.992   4.647   0.549
 3046SOL    HW221170   8.934   4.519   0.633
 3047SOL     OW21171   4.321   2.231   5.712
 3047SOL    HW121172   4.266   2.312   5.691
 3047SOL    HW221173   4.418   2.254   5.703
 3048SOL     OW21174   7.661   6.628   6.645
 3048SOL    HW121175   7.610   6.661   6.725
 3048SOL    HW221176   7.726   6.558   6.675
 3049SOL     OW21177   7.312   2.981   0.550
 3049SOL    HW121178   7.354   2.893   0.571
 3049SOL    HW221179   7.306   3.036   0.634
 3050SOL     OW21180   6.962   0.924   1.345
 3050SOL    HW121181   7.020   1.005   1.350
 3050SOL    HW221182   7.018   0.842   1.360
 3051SOL     OW21183   1.413   2.101   6.508
 3051SOL    HW121184   1.389   2.106   6.411
 3051SOL    HW221185   1.364   2.024   6.550
 3052SOL     OW21186   6.336   4.927   0.145
 3052SOL    HW121187   6.413   4.965   0.197
 3052SOL    HW221188   6.333   4.971   0.055
 3053SOL     OW21189   2.232   1.464   0.770
 3053SOL    HW121190   2.249   1.407   0.690
 3053SOL    HW221191   2.317   1.510   0.797
 3054SOL     OW21192   4.134   7.329   0.221
 3054SOL    HW121193   4.139   7.287   0.130
 3054SOL    HW221194   4.206   7.397   0.230
 3055SOL     OW21195   4.002   3.296   0.039
 3055SOL    HW121196   4.059   3.239  -0.021
 3055SOL    HW221197   4.054   3.321   0.121
 3056SOL     OW21198   6.237   4.439   0.733
 3056SOL    HW121199   6.172   4.428   0.808
 3056SOL    HW221200   6.203   4.509   0.669
 3057SOL     OW21201   4.950   6.708   4.914
 3057SOL    HW121202   4.874   6.763   4.879
 3057SOL    HW221203   5.036   6.742   4.876
 3058SOL     OW21204   6.262   2.627   6.373
 3058SOL    HW121205   6.197   2.697   6.405
 3058SOL    HW221206   6.345   2.672   6.340
 3059SOL     OW21207   5.441   0.941   5.598
 3059SOL    HW121208   5.512   0.874   5.621
 3059SOL    HW221209   5.433   0.948   5.499
 3060SOL     OW21210   9.308   2.722   1.204
 3060SOL    HW121211   9.351   2.642   1.163
 3060SOL    HW221212   9.379   2.783   1.241
 3061SOL     OW21213   8.876   3.346   5.785
 3061SOL    HW121214   8.868   3.445   5.796
 3061SOL    HW221215   8.857   3.301   5.872
 3062SOL     OW21216   4.870   3.802   1.136
 3062SOL    HW121217   4.925   3.881   1.163
 3062SOL    HW221218   4.773   3.827   1.137
 3063SOL     OW21219   6.207   0.694   6.047
 3063SOL    HW121220   6.150   0.613   6.061
 3063SOL    HW221221   6.149   0.773   6.032
 3064SOL     OW21222   5.262   6.469   1.424
 3064SOL    HW121223   5.202   6.448   1.347
 3064SOL    HW221224   5.310   6.386   1.452
 3065SOL     OW21225   0.520   4.420   0.822
 3065SOL    HW121226   0.486   4.340   0.774
 3065SOL    HW221227   0.453   4.494   0.815
 3066SOL     OW21228   5.558   4.043   0.421
 3066SOL    HW121229   5.471   3.996   0.436
 3066SOL    HW221230   5.603   4.004   0.341
 3067SOL     OW21231   2.552   0.961   0.543
 3067SOL    HW121232   2.453   0.977   0.550
 3067SOL    HW221233   2.567   0.874   0.496
 3068SOL     OW21234   2.811   1.354   5.760
 3068SOL    HW121235   2.855   1.271   5.726
 3068SOL    HW221236   2.736   1.330   5.822
 3069SOL     OW21237   8.174   6.287   0.697
 3069SOL    HW121238   8.176   6.298   0.796
 3069SOL    HW221239   8.256   6.327   0.657
 3070SOL     OW21240   8.644   2.794   1.345
 3070SOL    HW121241   8.723   2.854   1.338
 3070SOL    HW221242   8.597   2.810   1.432
 3071SOL     OW21243   4.816   7.703   6.298
 3071SOL    HW121244   4.767   7.616   6.301
 3071SOL    HW221245   4.908   7.688   6.263
 3072SOL     OW21246   4.529   1.620   1.688
 3072SOL    HW121247   4.577   1.611   1.775
 3072SOL    HW221248   4.468   1.699   1.691
 3073SOL     OW21249   3.839   7.555   1.304
 3073SOL    HW121250   3.766   7.565   1.237
 3073SOL    HW221251   3.922   7.598   1.270
 3074SOL     OW21252   9.223   0.138   1.226
 3074SOL    HW121253   9.129   0.105   1.232
 3074SOL    HW221254   9.278   0.094   1.298
 3075SOL     OW21255   8.534   2.557   0.003
 3075SOL    HW121256   8.475   2.477   0.007
 3075SOL    HW221257   8.570   2.577   0.094
 3076SOL     OW21258   4.884   5.846   1.099
 3076SOL    HW121259   4.913   5.761   1.055
 3076SOL    HW221260   4.784   5.849   1.104
 3077SOL     OW21261   5.911   5.478   1.255
 3077SOL    HW121262   5.830   5.433   1.290
 3077SOL    HW221263   5.983   5.476   1.324
 3078SOL     OW21264   3.309   1.110   0.127
 3078SOL    HW121265   3.225   1.132   0.176
 3078SOL    HW221266   3.324   1.011   0.130
 3079SOL     OW21267   2.969   6.684   6.504
 3079SOL    HW121268   2.972   6.769   6.452
 3079SOL    HW221269   3.053   6.673   6.556
 3080SOL     OW21270   6.900   3.768   0.151
 3080SOL    HW121271   6.919   3.757   0.249
 3080SOL    HW221272   6.849   3.688   0.118
 3081SOL     OW21273   1.469   6.306   6.162
 3081SOL    HW121274   1.552   6.282   6.112
 3081SOL    HW221275   1.424   6.222   6.195
 3082SOL     OW21276   1.057   5.975   6.183
 3082SOL    HW121277   1.142   5.926   6.203
 3082SOL    HW221278   1.020   6.015   6.267
 3083SOL     OW21279   9.231   6.914   6.508
 3083SOL    HW121280   9.271   6.998   6.545
 3083SOL    HW221281   9.138   6.933   6.476
 3084SOL     OW21282   0.966   1.061   5.897
 3084SOL    HW121283   0.992   0.979   5.948
 3084SOL    HW221284   1.019   1.065   5.812
 3085SOL     OW21285   1.916   5.720   4.854
 3085SOL    HW121286   1.838   5.677   4.809
 3085SOL    HW221287   1.996   5.713   4.794
 3086SOL     OW21288   0.541   7.355   5.111
 3086SOL    HW121289   0.591   7.411   5.177
 3086SOL    HW221290   0.457   7.401   5.084
 3087SOL     OW21291   1.794   6.583   0.316
 3087SOL    HW121292   1.893   6.577   0.306
 3087SOL    HW221293   1.751   6.574   0.225
 3088SOL     OW21294   1.802   5.174   0.664
 3088SOL    HW121295   1.744   5.167   0.583
 3088SOL    HW221296   1.839   5.266   0.671
 3089SOL     OW21297   3.546   7.101   5.196
 3089SOL    HW121298   3.477   7.171   5.177
 3089SOL    HW221299   3.623   7.143   5.245
 3090SOL     OW21300   3.515   5.711   1.486
 3090SOL    HW121301   3.454   5.631   1.488
 3090SOL    HW221302   3.510   5.758   1.574
 3091SOL     OW21303   7.678   7.370   0.824
 3091SOL    HW121304   7.749   7.320   0.874
 3091SOL    HW221305   7.697   7.468   0.829
 3092SOL     OW21306   7.633   0.171   5.420
 3092SOL    HW121307   7.586   0.156   5.333
 3092SOL    HW221308   7.602   0.102   5.487
 3093SOL     OW21309   8.064   3.193   0.743
 3093SOL    HW121310   8.106   3.116   0.694
 3093SOL    HW221311   8.033   3.262   0.677
 3094SOL     OW21312   4.912   8.424   5.634
 3094SOL    HW121313   4.847   8.464   5.699
 3094SOL    HW221314   4.894   8.326   5.626
 3095SOL     OW21315   3.872   4.710   1.646
 3095SOL    HW121316   3.877   4.793   1.701
 3095SOL    HW221317   3.956   4.700   1.593
 3096SOL     OW21318   3.920   8.370   1.854
 3096SOL    HW121319   3.846   8.352   1.788
 3096SOL    HW221320   3.918   8.300   1.925
 3097SOL     OW21321   8.730   8.442   0.224
 3097SOL    HW121322   8.780   8.377   0.166
 3097SOL    HW221323   8.794   8.483   0.289
 3098SOL     OW21324   8.429   2.781   0.388
 3098SOL    HW121325   8.372   2.859   0.363
 3098SOL    HW221326   8.420   2.763   0.486
 3099SOL     OW21327   4.277   8.391   4.881
 3099SOL    HW121328   4.247   8.391   4.785
 3099SOL    HW221329   4.218   8.330   4.934
 3100SOL     OW21330   8.392   5.812   1.618
 3100SOL    HW121331   8.324   5.744   1.590
 3100SOL    HW221332   8.483   5.778   1.598
 3101SOL     OW21333   6.329   2.870   6.631
 3101SOL    HW121334   6.259   2.857   6.561
 3101SOL    HW221335   6.349   2.967   6.641
 3102SOL     OW21336   7.299   1.801   6.231
 3102SOL    HW121337   7.322   1.740   6.307
 3102SOL    HW221338   7.324   1.895   6.255
 3103SOL     OW21339   2.148   1.376   0.409
 3103SOL    HW121340   2.112   1.334   0.325
 3103SOL    HW221341   2.090   1.352   0.486
 3104SOL     OW21342   5.942   0.336   6.334
 3104SOL    HW121343   5.864   0.348   6.272
 3104SOL    HW221344   6.026   0.327   6.281
 3105SOL     OW21345   4.250   7.458   0.683
 3105SOL    HW121346   4.342   7.443   0.720
 3105SOL    HW221347   4.199   7.373   0.684
 3106SOL     OW21348   6.837   4.484   5.919
 3106SOL    HW121349   6.846   4.507   6.016
 3106SOL    HW221350   6.922   4.504   5.871
 3107SOL     OW21351   2.863   5.603   6.402
 3107SOL    HW121352   2.877   5.671   6.474
 3107SOL    HW221353   2.782   5.627   6.348
 3108SOL     OW21354   8.654   5.914   5.168
 3108SOL    HW121355   8.566   5.895   5.211
 3108SOL    HW221356   8.712   5.832   5.171
 3109SOL     OW21357   8.320   5.874   0.573
 3109SOL    HW121358   8.264   5.803   0.615
 3109SOL    HW221359   8.278   5.904   0.487
 3110SOL     OW21360   2.339   7.595   5.859
 3110SOL    HW121361   2.274   7.599   5.783
 3110SOL    HW221362   2.301   7.644   5.938
 3111SOL     OW21363   4.977   0.687   5.846
 3111SOL    HW121364   5.008   0.700   5.752
 3111SOL    HW221365   5.032   0.744   5.907
 3112SOL     OW21366   1.790   5.873   0.725
 3112SOL    HW121367   1.842   5.878   0.639
 3112SOL    HW221368   1.719   5.804   0.717
 3113SOL     OW21369   6.572   1.619   1.162
 3113SOL    HW121370   6.615   1.559   1.231
 3113SOL    HW221371   6.642   1.653   1.100
 3114SOL     OW21372   5.239   1.573   0.528
 3114SOL    HW121373   5.179   1.514   0.581
 3114SOL    HW221374   5.268   1.525   0.445
 3115SOL     OW21375   2.112   7.980   6.435
 3115SOL    HW121376   2.014   7.977   6.454
 3115SOL    HW221377   2.145   7.889   6.414
 3116SOL     OW21378   6.780   0.460   0.252
 3116SOL    HW121379   6.756   0.377   0.302
 3116SOL    HW221380   6.871   0.451   0.212
 3117SOL     OW21381   2.515   5.005   0.133
 3117SOL    HW121382   2.436   5.015   0.193
 3117SOL    HW221383   2.532   5.092   0.086
 3118SOL     OW21384   4.899   4.185   0.709
 3118SOL    HW121385   4.957   4.103   0.712
 3118SOL    HW221386   4.923   4.239   0.628
 3119SOL     OW21387   3.155   3.374   0.681
 3119SOL    HW121388   3.190   3.381   0.588
 3119SOL    HW221389   3.156   3.464   0.723
 3120SOL     OW21390   7.793   1.759   6.532
 3120SOL    HW121391   7.822   1.781   6.625
 3120SOL    HW221392   7.861   1.699   6.489
 3121SOL     OW21393   3.849   1.155   5.506
 3121SOL    HW121394   3.840   1.125   5.602
 3121SOL    HW221395   3.944   1.179   5.488
 3122SOL     OW21396   6.309   7.149   6.112
 3122SOL    HW121397   6.337   7.053   6.110
 3122SOL    HW221398   6.212   7.156   6.132
 3123SOL     OW21399   7.992   6.161   6.332
 3123SOL    HW121400   7.988   6.105   6.415
 3123SOL    HW221401   7.903   6.159   6.286
 3124SOL     OW21402   6.897   3.834   1.412
 3124SOL    HW121403   6.925   3.898   1.483
 3124SOL    HW221404   6.854   3.885   1.337
 3125SOL     OW21405   1.100   1.354   6.436
 3125SOL    HW121406   1.164   1.330   6.363
 3125SOL    HW221407   1.134   1.320   6.523
 3126SOL     OW21408   5.247   3.962   6.136
 3126SOL    HW121409   5.263   3.960   6.235
 3126SOL    HW221410   5.249   3.868   6.101
 3127SOL     OW21411   3.998   7.147   0.800
 3127SOL    HW121412   4.012   7.093   0.883
 3127SOL    HW221413   4.074   7.133   0.737
 3128SOL     OW21414   6.658   6.422   0.728
 3128SOL    HW121415   6.721   6.403   0.652
 3128SOL    HW221416   6.659   6.520   0.748
 3129SOL     OW21417   8.907   5.510   0.583
 3129SOL    HW121418   8.942   5.495   0.675
 3129SOL    HW221419   8.982   5.530   0.521
 3130SOL     OW21420   6.595   8.474   5.912
 3130SOL    HW121421   6.671   8.500   5.853
 3130SOL    HW221422   6.586   8.540   5.987
 3131SOL     OW21423   2.827   1.230   1.910
 3131SOL    HW121424   2.821   1.304   1.842
 3131SOL    HW221425   2.821   1.142   1.864
 3132SOL     OW21426   3.969   7.990   6.589
 3132SOL    HW121427   3.988   8.077   6.634
 3132SOL    HW221428   3.875   7.962   6.609
 3133SOL     OW21429   3.891   8.459   0.752
 3133SOL    HW121430   3.910   8.380   0.694
 3133SOL    HW221431   3.877   8.540   0.695
 3134SOL     OW21432   1.697   4.026   5.880
 3134SOL    HW121433   1.714   4.121   5.906
 3134SOL    HW221434   1.738   4.008   5.790
 3135SOL     OW21435   8.271   4.171   6.548
 3135SOL    HW121436   8.225   4.215   6.471
 3135SOL    HW221437   8.368   4.196   6.548
 3136SOL     OW21438   8.964   5.972   0.167
 3136SOL    HW121439   8.898   5.995   0.239
 3136SOL    HW221440   8.997   5.878   0.180
 3137SOL     OW21441   3.508   7.753   5.343
 3137SOL    HW121442   3.431   7.708   5.296
 3137SOL    HW221443   3.593   7.730   5.296
 3138SOL     OW21444   7.660   6.349   1.003
 3138SOL    HW121445   7.705   6.410   1.069
 3138SOL    HW221446   7.580   6.307   1.045
 3139SOL     OW21447   0.792   5.558   5.643
 3139SOL    HW121448   0.745   5.477   5.678
 3139SOL    HW221449   0.726   5.631   5.626
 3140SOL     OW21450   8.549   2.518   1.330
 3140SOL    HW121451   8.527   2.604   1.375
 3140SOL    HW221452   8.544   2.443   1.397
 3141SOL     OW21453   7.779   6.282   5.648
 3141SOL    HW121454   7.765   6.192   5.688
 3141SOL    HW221455   7.694   6.334   5.651
 3142SOL     OW21456   8.564   2.413   0.818
 3142SOL    HW121457   8.521   2.402   0.908
 3142SOL    HW221458   8.603   2.504   0.811
 3143SOL     OW21459   4.554   0.181   0.457
 3143SOL    HW121460   4.525   0.193   0.362
 3143SOL    HW221461   4.592   0.090   0.470
 3144SOL     OW21462   3.328   0.590   5.037
 3144SOL    HW121463   3.248   0.530   5.035
 3144SOL    HW221464   3.392   0.562   4.965
 3145SOL     OW21465   7.307   0.068   1.018
 3145SOL    HW121466   7.398   0.108   1.016
 3145SOL    HW221467   7.280   0.049   1.112
 3146SOL     OW21468   0.599   0.151   5.338
 3146SOL    HW121469   0.578   0.233   5.283
 3146SOL    HW221470   0.671   0.099   5.292
 3147SOL     OW21471   7.359   1.612   6.394
 3147SOL    HW121472   7.443   1.595   6.447
 3147SOL    HW221473   7.299   1.533   6.401
 3148SOL     OW21474   5.197   3.680   5.642
 3148SOL    HW121475   5.254   3.615   5.592
 3148SOL    HW221476   5.196   3.767   5.593
 3149SOL     OW21477   2.768   3.767   0.069
 3149SOL    HW121478   2.722   3.689   0.113
 3149SOL    HW221479   2.831   3.734  -0.001
 3150SOL     OW21480   6.880   3.140   0.672
 3150SOL    HW121481   6.937   3.135   0.590
 3150SOL    HW221482   6.915   3.211   0.733
 3151SOL     OW21483   0.969   5.727   1.485
 3151SOL    HW121484   1.006   5.808   1.530
 3151SOL    HW221485   0.894   5.754   1.424
 3152SOL     OW21486   1.194   7.653   5.011
 3152SOL    HW121487   1.223   7.694   4.925
 3152SOL    HW221488   1.100   7.621   5.003
 3153SOL     OW21489   9.435   4.113   1.144
 3153SOL    HW121490   9.345   4.128   1.185
 3153SOL    HW221491   9.488   4.050   1.202
 3154SOL     OW21492   7.324   4.353   5.827
 3154SOL    HW121493   7.403   4.293   5.841
 3154SOL    HW221494   7.331   4.398   5.738
 3155SOL     OW21495   5.969   5.885   6.684
 3155SOL    HW121496   5.987   5.787   6.679
 3155SOL    HW221497   5.873   5.902   6.664
 3156SOL     OW21498   1.769   6.384   4.757
 3156SOL    HW121499   1.790   6.288   4.735
 3156SOL    HW221500   1.808   6.443   4.687
 3157SOL     OW21501   7.188   4.528   0.225
 3157SOL    HW121502   7.102   4.535   0.275
 3157SOL    HW221503   7.262   4.505   0.288
 3158SOL     OW21504   0.043   0.566   5.375
 3158SOL    HW121505   0.036   0.468   5.390
 3158SOL    HW221506   0.068   0.583   5.279
 3159SOL     OW21507   4.636   5.692   2.039
 3159SOL    HW121508   4.650   5.785   2.074
 3159SOL    HW221509   4.724   5.655   2.009
 3160SOL     OW21510   5.882   3.822   1.250
 3160SOL    HW121511   5.959   3.795   1.308
 3160SOL    HW221512   5.901   3.796   1.155
 3161SOL     OW21513   2.311   5.037   1.024
 3161SOL    HW121514   2.368   5.112   0.993
 3161SOL    HW221515   2.323   5.024   1.122
 3162SOL     OW21516   3.687   4.277   2.000
 3162SOL    HW121517   3.787   4.281   1.995
 3162SOL    HW221518   3.659   4.269   2.095
 3163SOL     OW21519   3.442   5.714   0.867
 3163SOL    HW121520   3.370   5.778   0.837
 3163SOL    HW221521   3.526   5.734   0.818
 3164SOL     OW21522   3.866   7.048   6.499
 3164SOL    HW121523   3.964   7.070   6.504
 3164SOL    HW221524   3.851   6.957   6.538
 3165SOL     OW21525   7.381   1.676   0.722
 3165SOL    HW121526   7.327   1.593   0.704
 3165SOL    HW221527   7.341   1.727   0.798
 3166SOL     OW21528   2.874   7.153   6.428
 3166SOL    HW121529   2.929   7.203   6.495
 3166SOL    HW221530   2.856   7.212   6.349
 3167SOL     OW21531   8.366   4.119   0.310
 3167SOL    HW121532   8.433   4.187   0.283
 3167SOL    HW221533   8.401   4.028   0.290
 3168SOL     OW21534   1.524   0.475   1.789
 3168SOL    HW121535   1.611   0.519   1.809
 3168SOL    HW221536   1.461   0.542   1.749
 3169SOL     OW21537   6.894   6.374   6.667
 3169SOL    HW121538   6.880   6.462   6.622
 3169SOL    HW221539   6.816   6.354   6.726
 3170SOL     OW21540   6.886   2.743   0.450
 3170SOL    HW121541   6.867   2.707   0.359
 3170SOL    HW221542   6.911   2.668   0.511
 3171SOL     OW21543   8.133   3.627   0.697
 3171SOL    HW121544   8.036   3.640   0.715
 3171SOL    HW221545   8.172   3.711   0.659
 3172SOL     OW21546   1.525   1.672   6.223
 3172SOL    HW121547   1.425   1.677   6.235
 3172SOL    HW221548   1.567   1.758   6.250
 3173SOL     OW21549   7.896   6.632   4.827
 3173SOL    HW121550   7.879   6.534   4.836
 3173SOL    HW221551   7.821   6.674   4.777
 3174SOL     OW21552   3.202   5.632   5.635
 3174SOL    HW121553   3.103   5.618   5.630
 3174SOL    HW221554   3.222   5.728   5.655
 3175SOL     OW21555   8.158   0.621   4.893
 3175SOL    HW121556   8.122   0.566   4.818
 3175SOL    HW221557   8.256   0.637   4.878
 3176SOL     OW21558   9.038   0.683   1.354
 3176SOL    HW121559   9.054   0.618   1.429
 3176SOL    HW221560   8.946   0.720   1.360
 3177SOL     OW21561   4.572   8.303   1.296
 3177SOL    HW121562   4.500   8.240   1.267
 3177SOL    HW221563   4.586   8.293   1.394
 3178SOL     OW21564   4.534   1.355   1.625
 3178SOL    HW121565   4.511   1.295   1.702
 3178SOL    HW221566   4.526   1.451   1.654
 3179SOL     OW21567   4.775   2.535   0.270
 3179SOL    HW121568   4.684   2.501   0.247
 3179SOL    HW221569   4.775   2.572   0.363
 3180SOL     OW21570   2.283   5.329   5.209
 3180SOL    HW121571   2.260   5.233   5.193
 3180SOL    HW221572   2.252   5.384   5.132
 3181SOL     OW21573   3.386   1.814   1.334
 3181SOL    HW121574   3.466   1.838   1.390
 3181SOL    HW221575   3.307   1.867   1.365
 3182SOL     OW21576   6.789   6.696   4.748
 3182SOL    HW121577   6.755   6.614   4.701
 3182SOL    HW221578   6.889   6.698   4.744
 3183SOL     OW21579   7.710   0.129   6.615
 3183SOL    HW121580   7.622   0.089   6.641
 3183SOL    HW221581   7.698   0.227   6.601
 3184SOL     OW21582   6.519   1.842   6.201
 3184SOL    HW121583   6.438   1.813   6.252
 3184SOL    HW221584   6.494   1.914   6.137
 3185SOL     OW21585   8.885   7.128   1.323
 3185SOL    HW121586   8.858   7.044   1.371
 3185SOL    HW221587   8.874   7.206   1.384
 3186SOL     OW21588   0.877   0.061   5.374
 3186SOL    HW121589   0.892   0.159   5.363
 3186SOL    HW221590   0.875   0.038   5.472
 3187SOL     OW21591   5.581   0.330   1.048
 3187SOL    HW121592   5.604   0.241   1.088
 3187SOL    HW221593   5.536   0.386   1.117
 3188SOL     OW21594   7.422   3.119   0.326
 3188SOL    HW121595   7.391   3.046   0.387
 3188SOL    HW221596   7.483   3.180   0.376
 3189SOL     OW21597   8.467   6.871   1.530
 3189SOL    HW121598   8.430   6.779   1.517
 3189SOL    HW221599   8.404   6.924   1.587
 3190SOL     OW21600   0.628   2.286   6.561
 3190SOL    HW121601   0.694   2.236   6.616
 3190SOL    HW221602   0.645   2.384   6.569
 3191SOL     OW21603   5.486   0.229   5.502
 3191SOL    HW121604   5.427   0.196   5.575
 3191SOL    HW221605   5.434   0.287   5.440
 3192SOL     OW21606   8.060   5.981   0.783
 3192SOL    HW121607   8.044   6.004   0.879
 3192SOL    HW221608   8.144   6.026   0.752
 3193SOL     OW21609   5.182   2.484   0.560
 3193SOL    HW121610   5.086   2.460   0.546
 3193SOL    HW221611   5.198   2.578   0.530
 3194SOL     OW21612   5.759   2.753   0.841
 3194SOL    HW121613   5.684   2.803   0.884
 3194SOL    HW221614   5.749   2.655   0.860
 3195SOL     OW21615   6.426   6.815   5.806
 3195SOL    HW121616   6.416   6.903   5.759
 3195SOL    HW221617   6.423   6.829   5.904
 3196SOL     OW21618   8.333   5.403   6.714
 3196SOL    HW121619   8.344   5.383   6.616
 3196SOL    HW221620   8.240   5.436   6.732
 3197SOL     OW21621   7.296   7.314   0.775
 3197SOL    HW121622   7.237   7.358   0.843
 3197SOL    HW221623   7.239   7.260   0.712
 3198SOL     OW21624   6.472   1.514   6.470
 3198SOL    HW121625   6.565   1.477   6.470
 3198SOL    HW221626   6.463   1.581   6.544
 3199SOL     OW21627   1.788   1.494   0.160
 3199SOL    HW121628   1.815   1.429   0.230
 3199SOL    HW221629   1.846   1.576   0.167
 3200SOL     OW21630   8.537   7.570   6.666
 3200SOL    HW121631   8.524   7.668   6.679
 3200SOL    HW221632   8.634   7.548   6.677
 3201SOL     OW21633   6.284   8.370   1.337
 3201SOL    HW121634   6.355   8.303   1.359
 3201SOL    HW221635   6.303   8.411   1.248
 3202SOL     OW21636   1.245   1.641   0.733
 3202SOL    HW121637   1.148   1.658   0.749
 3202SOL    HW221638   1.260   1.543   0.718
 3203SOL     OW21639   4.633   2.725   0.036
 3203SOL    HW121640   4.606   2.698   0.128
 3203SOL    HW221641   4.644   2.825   0.032
 3204SOL     OW21642   1.697   0.243   0.506
 3204SOL    HW121643   1.647   0.324   0.475
 3204SOL    HW221644   1.774   0.226   0.445
 3205SOL     OW21645   6.972   5.219   0.472
 3205SOL    HW121646   6.947   5.143   0.532
 3205SOL    HW221647   7.012   5.183   0.388
 3206SOL     OW21648   4.990   3.692   0.656
 3206SOL    HW121649   4.909   3.664   0.708
 3206SOL    HW221650   5.060   3.621   0.663
 3207SOL     OW21651   3.546   6.488   0.605
 3207SOL    HW121652   3.605   6.424   0.654
 3207SOL    HW221653   3.477   6.525   0.668
 3208SOL     OW21654   1.070   2.782   5.862
 3208SOL    HW121655   1.104   2.870   5.830
 3208SOL    HW221656   0.988   2.796   5.916
 3209SOL     OW21657   2.792   0.242   6.032
 3209SOL    HW121658   2.824   0.158   6.075
 3209SOL    HW221659   2.841   0.320   6.070
 3210SOL     OW21660   2.357   1.458   5.261
 3210SOL    HW121661   2.374   1.372   5.309
 3210SOL    HW221662   2.287   1.443   5.190
 3211SOL     OW21663   4.077   8.270   5.047
 3211SOL    HW121664   4.003   8.332   5.024
 3211SOL    HW221665   4.050   8.176   5.025
 3212SOL     OW21666   5.890   6.153   5.413
 3212SOL    HW121667   5.855   6.243   5.436
 3212SOL    HW221668   5.852   6.123   5.325
 3213SOL     OW21669   1.180   5.424   1.151
 3213SOL    HW121670   1.266   5.410   1.200
 3213SOL    HW221671   1.125   5.492   1.198
 3214SOL     OW21672   8.929   7.757   1.258
 3214SOL    HW121673   8.926   7.783   1.161
 3214SOL    HW221674   8.876   7.821   1.312
 3215SOL     OW21675   6.459   4.031   5.884
 3215SOL    HW121676   6.467   3.943   5.929
 3215SOL    HW221677   6.434   4.017   5.788
 3216SOL     OW21678   6.827   3.411   0.383
 3216SOL    HW121679   6.755   3.475   0.355
 3216SOL    HW221680   6.898   3.462   0.431
 3217SOL     OW21681   4.932   6.580   1.041
 3217SOL    HW121682   4.925   6.583   0.942
 3217SOL    HW221683   4.922   6.673   1.077
 3218SOL     OW21684   8.305   3.530   1.188
 3218SOL    HW121685   8.336   3.594   1.258
 3218SOL    HW221686   8.364   3.538   1.107
 3219SOL     OW21687   6.841   2.331   1.892
 3219SOL    HW121688   6.803   2.408   1.944
 3219SOL    HW221689   6.821   2.245   1.940
 3220SOL     OW21690   3.583   4.651   0.236
 3220SOL    HW121691   3.594   4.741   0.279
 3220SOL    HW221692   3.671   4.622   0.198
 3221SOL     OW21693   6.306   7.421   5.963
 3221SOL    HW121694   6.249   7.469   5.896
 3221SOL    HW221695   6.379   7.371   5.916
 3222SOL     OW21696   3.286   3.190   6.618
 3222SOL    HW121697   3.220   3.222   6.686
 3222SOL    HW221698   3.374   3.176   6.663
 3223SOL     OW21699   3.198   8.401   6.082
 3223SOL    HW121700   3.098   8.409   6.078
 3223SOL    HW221701   3.225   8.306   6.065
 3224SOL     OW21702   5.240   2.795   0.181
 3224SOL    HW121703   5.242   2.895   0.182
 3224SOL    HW221704   5.145   2.764   0.178
 3225SOL     OW21705   2.414   6.363   5.782
 3225SOL    HW121706   2.356   6.307   5.723
 3225SOL    HW221707   2.502   6.379   5.737
 3226SOL     OW21708   8.447   8.147   6.192
 3226SOL    HW121709   8.484   8.059   6.164
 3226SOL    HW221710   8.363   8.165   6.141
 3227SOL     OW21711   0.174   6.621   4.058
 3227SOL    HW121712   0.267   6.611   4.023
 3227SOL    HW221713   0.143   6.715   4.043
 3228SOL     OW21714   9.280   2.080   0.336
 3228SOL    HW121715   9.357   2.037   0.383
 3228SOL    HW221716   9.253   2.163   0.385
 3229SOL     OW21717   0.180   6.989   4.886
 3229SOL    HW121718   0.197   7.023   4.794
 3229SOL    HW221719   0.090   6.946   4.889
 3230SOL     OW21720   8.531   7.139   6.115
 3230SOL    HW121721   8.453   7.187   6.075
 3230SOL    HW221722   8.506   7.044   6.133
 3231SOL     OW21723   5.982   2.464   0.546
 3231SOL    HW121724   5.958   2.553   0.586
 3231SOL    HW221725   6.082   2.455   0.542
 3232SOL     OW21726   1.179   4.753   6.403
 3232SOL    HW121727   1.099   4.694   6.418
 3232SOL    HW221728   1.263   4.700   6.416
 3233SOL     OW21729   9.177   2.324   0.452
 3233SOL    HW121730   9.181   2.421   0.475
 3233SOL    HW221731   9.098   2.283   0.497
 3234SOL     OW21732   3.835   7.084   0.399
 3234SOL    HW121733   3.816   7.027   0.479
 3234SOL    HW221734   3.920   7.054   0.356
 3235SOL     OW21735   9.102   7.453   4.822
 3235SOL    HW121736   9.011   7.460   4.862
 3235SOL    HW221737   9.095   7.408   4.733
 3236SOL     OW21738   5.909   2.328   0.791
 3236SOL    HW121739   5.952   2.359   0.706
 3236SOL    HW221740   5.895   2.229   0.787
 3237SOL     OW21741   0.094   7.630   0.370
 3237SOL    HW121742   0.001   7.601   0.391
 3237SOL    HW221743   0.149   7.630   0.453
 3238SOL     OW21744   2.526   0.030   0.521
 3238SOL    HW121745   2.558   0.097   0.588
 3238SOL    HW221746   2.502  -0.055   0.568
 3239SOL     OW21747   0.336   1.972   1.406
 3239SOL    HW121748   0.370   1.905   1.473
 3239SOL    HW221749   0.395   2.052   1.406
 3240SOL     OW21750   5.238   1.962   5.369
 3240SOL    HW121751   5.202   2.053   5.350
 3240SOL    HW221752   5.323   1.948   5.318
 3241SOL     OW21753   6.775   1.731   0.246
 3241SOL    HW121754   6.715   1.655   0.220
 3241SOL    HW221755   6.869   1.696   0.259
 3242SOL     OW21756   5.162   4.247   6.687
 3242SOL    HW121757   5.227   4.310   6.645
 3242SOL    HW221758   5.210   4.182   6.746
 3243SOL     OW21759   6.669   7.544   1.212
 3243SOL    HW121760   6.588   7.545   1.154
 3243SOL    HW221761   6.747   7.510   1.160
 3244SOL     OW21762   2.471   2.363   5.957
 3244SOL    HW121763   2.458   2.272   5.994
 3244SOL    HW221764   2.420   2.429   6.011
 3245SOL     OW21765   6.214   7.839   1.323
 3245SOL    HW121766   6.251   7.807   1.410
 3245SOL    HW221767   6.287   7.842   1.255
 3246SOL     OW21768   7.985   3.140   0.990
 3246SOL    HW121769   8.042   3.158   0.910
 3246SOL    HW221770   8.024   3.063   1.041
 3247SOL     OW21771   0.959   0.948   1.587
 3247SOL    HW121772   1.038   0.888   1.593
 3247SOL    HW221773   0.965   1.018   1.659
 3248SOL     OW21774   6.239   2.834   0.136
 3248SOL    HW121775   6.289   2.907   0.181
 3248SOL    HW221776   6.283   2.812   0.049
 3249SOL     OW21777   7.985   1.864   5.877
 3249SOL    HW121778   7.974   1.798   5.803
 3249SOL    HW221779   7.899   1.872   5.927
 3250SOL     OW21780   2.193   0.751   6.065
 3250SOL    HW121781   2.214   0.758   5.968
 3250SOL    HW221782   2.274   0.776   6.118
 3251SOL     OW21783   7.388   0.282   0.008
 3251SOL    HW121784   7.338   0.220   0.068
 3251SOL    HW221785   7.380   0.376   0.042
 3252SOL     OW21786   2.377   2.824   6.716
 3252SOL    HW121787   2.459   2.839   6.770
 3252SOL    HW221788   2.301   2.797   6.777
 3253SOL     OW21789   2.712   0.565   1.261
 3253SOL    HW121790   2.686   0.482   1.310
 3253SOL    HW221791   2.655   0.641   1.292
 3254SOL     OW21792   4.186   6.346   6.729
 3254SOL    HW121793   4.252   6.301   6.670
 3254SOL    HW221794   4.233   6.407   6.793
 3255SOL     OW21795   0.151   7.591   5.703
 3255SOL    HW121796   0.199   7.572   5.789
 3255SOL    HW221797   0.197   7.665   5.654
 3256SOL     OW21798   8.382   3.230   0.425
 3256SOL    HW121799   8.315   3.304   0.424
 3256SOL    HW221800   8.470   3.263   0.390
 3257SOL     OW21801   2.935   7.356   6.204
 3257SOL    HW121802   2.924   7.432   6.267
 3257SOL    HW221803   2.855   7.350   6.144
 3258SOL     OW21804   7.457   0.658   0.667
 3258SOL    HW121805   7.412   0.599   0.734
 3258SOL    HW221806   7.443   0.754   0.692
 3259SOL     OW21807   6.345   2.969   1.165
 3259SOL    HW121808   6.331   2.977   1.263
 3259SOL    HW221809   6.337   3.059   1.122
 3260SOL     OW21810   1.506   6.984   0.231
 3260SOL    HW121811   1.565   6.979   0.151
 3260SOL    HW221812   1.468   7.077   0.239
 3261SOL     OW21813   2.762   8.329   5.442
 3261SOL    HW121814   2.819   8.249   5.422
 3261SOL    HW221815   2.750   8.336   5.541
 3262SOL     OW21816   7.666   1.010   0.248
 3262SOL    HW121817   7.619   0.955   0.317
 3262SOL    HW221818   7.671   0.959   0.162
 3263SOL     OW21819   4.019   2.233   0.781
 3263SOL    HW121820   4.056   2.290   0.708
 3263SOL    HW221821   4.014   2.286   0.866
 3264SOL     OW21822   2.571   0.424   5.241
 3264SOL    HW121823   2.651   0.375   5.276
 3264SOL    HW221824   2.588   0.454   5.147
 3265SOL     OW21825   5.686   8.015   5.723
 3265SOL    HW121826   5.756   7.956   5.765
 3265SOL    HW221827   5.726   8.062   5.644
 3266SOL     OW21828   0.038   7.976   6.056
 3266SOL    HW121829  -0.002   8.059   6.018
 3266SOL    HW221830   0.004   7.897   6.004
 3267SOL     OW21831   6.557   5.372   0.324
 3267SOL    HW121832   6.543   5.319   0.241
 3267SOL    HW221833   6.469   5.388   0.369
 3268SOL     OW21834   9.322   6.605   1.432
 3268SOL    HW121835   9.338   6.513   1.398
 3268SOL    HW221836   9.252   6.603   1.504
 3269SOL     OW21837   5.315   0.664   0.251
 3269SOL    HW121838   5.305   0.565   0.248
 3269SOL    HW221839   5.267   0.700   0.331
 3270SOL     OW21840   3.869   5.331   2.048
 3270SOL    HW121841   3.880   5.232   2.040
 3270SOL    HW221842   3.779   5.357   2.011
 3271SOL     OW21843   4.773   2.274   6.488
 3271SOL    HW121844   4.767   2.175   6.489
 3271SOL    HW221845   4.704   2.312   6.549
 3272SOL     OW21846   8.410   7.793   4.480
 3272SOL    HW121847   8.448   7.740   4.405
 3272SOL    HW221848   8.313   7.773   4.490
 3273SOL     OW21849   8.729   2.285   5.751
 3273SOL    HW121850   8.635   2.319   5.747
 3273SOL    HW221851   8.731   2.198   5.800
 3274SOL     OW21852   7.677   4.193   6.203
 3274SOL    HW121853   7.587   4.236   6.194
 3274SOL    HW221854   7.746   4.264   6.216
 3275SOL     OW21855   2.698   7.335   6.065
 3275SOL    HW121856   2.609   7.329   6.109
 3275SOL    HW221857   2.697   7.406   5.995
 3276SOL     OW21858   7.567   2.622   1.015
 3276SOL    HW121859   7.643   2.568   1.052
 3276SOL    HW221860   7.565   2.711   1.060
 3277SOL     OW21861   0.841   8.034   0.380
 3277SOL    HW121862   0.787   8.105   0.425
 3277SOL    HW221863   0.924   8.075   0.341
 3278SOL     OW21864   5.381   5.968   6.557
 3278SOL    HW121865   5.452   6.001   6.620
 3278SOL    HW221866   5.415   5.974   6.463
 3279SOL     OW21867   7.468   6.582   1.027
 3279SOL    HW121868   7.392   6.574   0.962
 3279SOL    HW221869   7.479   6.495   1.075
 3280SOL     OW21870   8.251   6.393   0.289
 3280SOL    HW121871   8.317   6.375   0.362
 3280SOL    HW221872   8.187   6.463   0.320
 3281SOL     OW21873   8.486   6.611   0.119
 3281SOL    HW121874   8.518   6.591   0.212
 3281SOL    HW221875   8.391   6.582   0.110
 3282SOL     OW21876   2.747   4.885   1.247
 3282SOL    HW121877   2.757   4.943   1.166
 3282SOL    HW221878   2.692   4.805   1.224
 3283SOL     OW21879   5.291   4.076   0.139
 3283SOL    HW121880   5.375   4.058   0.088
 3283SOL    HW221881   5.241   3.991   0.152
 3284SOL     OW21882   0.783   0.735   1.744
 3284SOL    HW121883   0.694   0.757   1.704
 3284SOL    HW221884   0.813   0.811   1.801
 3285SOL     OW21885   3.955   0.390   0.518
 3285SOL    HW121886   3.987   0.481   0.545
 3285SOL    HW221887   4.029   0.342   0.470
 3286SOL     OW21888   3.657   3.589   6.178
 3286SOL    HW121889   3.715   3.669   6.163
 3286SOL    HW221890   3.705   3.507   6.146
 3287SOL     OW21891   7.752   5.919   5.378
 3287SOL    HW121892   7.686   5.993   5.393
 3287SOL    HW221893   7.740   5.883   5.285
 3288SOL     OW21894   4.242   1.090   0.564
 3288SOL    HW121895   4.230   1.021   0.492
 3288SOL    HW221896   4.307   1.159   0.533
 3289SOL     OW21897   7.488   7.398   4.856
 3289SOL    HW121898   7.402   7.363   4.819
 3289SOL    HW221899   7.487   7.498   4.853
 3290SOL     OW21900   6.300   8.354   0.325
 3290SOL    HW121901   6.227   8.293   0.354
 3290SOL    HW221902   6.263   8.446   0.309
 3291SOL     OW21903   1.513   6.419   5.143
 3291SOL    HW121904   1.484   6.324   5.126
 3291SOL    HW221905   1.565   6.453   5.064
 3292SOL     OW21906   5.052   0.336   0.005
 3292SOL    HW121907   5.093   0.249   0.032
 3292SOL    HW221908   5.112   0.381  -0.061
 3293SOL     OW21909   6.880   1.679   6.351
 3293SOL    HW121910   6.905   1.654   6.258
 3293SOL    HW221911   6.957   1.661   6.412
 3294SOL     OW21912   2.124   2.663   0.109
 3294SOL    HW121913   2.096   2.725   0.183
 3294SOL    HW221914   2.044   2.615   0.074
 3295SOL     OW21915   5.736   0.591   4.641
 3295SOL    HW121916   5.649   0.573   4.595
 3295SOL    HW221917   5.767   0.684   4.620
 3296SOL     OW21918   1.660   7.668   5.883
 3296SOL    HW121919   1.603   7.636   5.808
 3296SOL    HW221920   1.615   7.744   5.929
 3297SOL     OW21921   5.721   0.932   0.332
 3297SOL    HW121922   5.731   0.839   0.297
 3297SOL    HW221923   5.625   0.960   0.328
 3298SOL     OW21924   1.564   8.264   1.263
 3298SOL    HW121925   1.470   8.257   1.294
 3298SOL    HW221926   1.580   8.198   1.189
 3299SOL     OW21927   9.172   6.849   0.408
 3299SOL    HW121928   9.085   6.800   0.420
 3299SOL    HW221929   9.157   6.947   0.422
 3300SOL     OW21930   9.330   4.372   0.644
 3300SOL    HW121931   9.248   4.397   0.593
 3300SOL    HW221932   9.337   4.430   0.725
 3301SOL     OW21933   6.909   2.138   6.458
 3301SOL    HW121934   6.916   2.219   6.399
 3301SOL    HW221935   6.816   2.103   6.454
 3302SOL     OW21936   5.134   5.916   6.052
 3302SOL    HW121937   5.040   5.885   6.071
 3302SOL    HW221938   5.183   5.928   6.138
 3303SOL     OW21939   6.701   6.348   0.984
 3303SOL    HW121940   6.692   6.327   0.886
 3303SOL    HW221941   6.610   6.366   1.022
 3304SOL     OW21942   0.358   1.727   0.408
 3304SOL    HW121943   0.264   1.753   0.388
 3304SOL    HW221944   0.387   1.769   0.494
 3305SOL     OW21945   5.690   5.899   0.506
 3305SOL    HW121946   5.746   5.865   0.430
 3305SOL    HW221947   5.681   5.827   0.575
 3306SOL     OW21948   6.763   1.483   0.538
 3306SOL    HW121949   6.767   1.385   0.522
 3306SOL    HW221950   6.845   1.526   0.501
 3307SOL     OW21951   5.978   1.596   6.659
 3307SOL    HW121952   5.968   1.687   6.619
 3307SOL    HW221953   5.928   1.592   6.746
 3308SOL     OW21954   8.374   6.929   6.197
 3308SOL    HW121955   8.421   6.849   6.160
 3308SOL    HW221956   8.342   6.909   6.290
 3309SOL     OW21957   1.964   5.745   6.303
 3309SOL    HW121958   1.998   5.799   6.380
 3309SOL    HW221959   2.005   5.654   6.305
 3310SOL     OW21960   1.605   5.280   1.457
 3310SOL    HW121961   1.540   5.209   1.429
 3310SOL    HW221962   1.698   5.245   1.448
 3311SOL     OW21963   8.748   6.163   6.626
 3311SOL    HW121964   8.697   6.237   6.671
 3311SOL    HW221965   8.839   6.156   6.667
 3312SOL     OW21966   1.595   5.060   0.151
 3312SOL    HW121967   1.497   5.054   0.136
 3312SOL    HW221968   1.643   5.044   0.064
 3313SOL     OW21969   6.855   0.094   5.376
 3313SOL    HW121970   6.875   0.007   5.420
 3313SOL    HW221971   6.827   0.079   5.281
 3314SOL     OW21972   1.962   7.529   5.361
 3314SOL    HW121973   1.999   7.491   5.276
 3314SOL    HW221974   1.862   7.530   5.355
 3315SOL     OW21975   4.331   2.624   0.385
 3315SOL    HW121976   4.402   2.684   0.421
 3315SOL    HW221977   4.253   2.623   0.447
 3316SOL     OW21978   2.783   6.490   6.005
 3316SOL    HW121979   2.738   6.547   6.073
 3316SOL    HW221980   2.832   6.548   5.940
 3317SOL     OW21981   6.391   3.689   5.821
 3317SOL    HW121982   6.307   3.697   5.766
 3317SOL    HW221983   6.467   3.661   5.762
 3318SOL     OW21984   5.755   1.336   6.284
 3318SOL    HW121985   5.684   1.381   6.229
 3318SOL    HW221986   5.815   1.405   6.325
 3319SOL     OW21987   0.811   0.308   5.810
 3319SOL    HW121988   0.750   0.254   5.752
 3319SOL    HW221989   0.757   0.364   5.873
 3320SOL     OW21990   3.069   1.430   0.999
 3320SOL    HW121991   3.028   1.521   0.994
 3320SOL    HW221992   3.107   1.416   1.090
 3321SOL     OW21993   3.464   4.984   0.107
 3321SOL    HW121994   3.442   5.082   0.108
 3321SOL    HW221995   3.532   4.965   0.178
 3322SOL     OW21996   6.531   3.724   6.304
 3322SOL    HW121997   6.457   3.789   6.287
 3322SOL    HW221998   6.598   3.766   6.366
 3323SOL     OW21999   0.392   2.625   6.487
 3323SOL    HW122000   0.315   2.663   6.539
 3323SOL    HW222001   0.372   2.633   6.389
 3324SOL     OW22002   8.166   2.526   0.935
 3324SOL    HW122003   8.236   2.593   0.962
 3324SOL    HW222004   8.189   2.488   0.845
 3325SOL     OW22005   1.894   1.220   6.432
 3325SOL    HW122006   1.899   1.320   6.439
 3325SOL    HW222007   1.967   1.179   6.487
 3326SOL     OW22008   9.094   3.561   6.011
 3326SOL    HW122009   9.108   3.466   6.037
 3326SOL    HW222010   8.999   3.573   5.981
 3327SOL     OW22011   4.188   5.855   6.614
 3327SOL    HW122012   4.234   5.840   6.702
 3327SOL    HW222013   4.254   5.889   6.547
 3328SOL     OW22014   3.695   3.897   0.933
 3328SOL    HW122015   3.706   3.813   0.987
 3328SOL    HW222016   3.784   3.928   0.900
 3329SOL     OW22017   4.224   3.002   1.853
 3329SOL    HW122018   4.292   2.966   1.916
 3329SOL    HW222019   4.266   3.071   1.793
 3330SOL     OW22020   1.060   0.351   5.624
 3330SOL    HW122021   0.974   0.353   5.675
 3330SOL    HW222022   1.137   0.348   5.688
 3331SOL     OW22023   6.483   6.285   5.467
 3331SOL    HW122024   6.399   6.340   5.474
 3331SOL    HW222025   6.479   6.228   5.385
 3332SOL     OW22026   1.802   6.229   1.137
 3332SOL    HW122027   1.754   6.141   1.132
 3332SOL    HW222028   1.847   6.247   1.050
 3333SOL     OW22029   1.159   5.380   1.488
 3333SOL    HW122030   1.184   5.284   1.477
 3333SOL    HW222031   1.242   5.435   1.496
 3334SOL     OW22032   2.679   2.074   6.017
 3334SOL    HW122033   2.737   2.115   5.947
 3334SOL    HW222034   2.647   1.984   5.987
 3335SOL     OW22035   7.115   6.452   5.398
 3335SOL    HW122036   7.048   6.419   5.464
 3335SOL    HW222037   7.189   6.500   5.445
 3336SOL     OW22038   2.252   2.004   6.011
 3336SOL    HW122039   2.196   1.921   6.011
 3336SOL    HW222040   2.203   2.078   5.966
 3337SOL     OW22041   4.150   4.246   6.425
 3337SOL    HW122042   4.068   4.240   6.368
 3337SOL    HW222043   4.231   4.242   6.366
 3338SOL     OW22044   0.323   5.646   6.185
 3338SOL    HW122045   0.240   5.703   6.184
 3338SOL    HW222046   0.298   5.550   6.171
 3339SOL     OW22047   2.394   6.134   5.449
 3339SOL    HW122048   2.353   6.124   5.358
 3339SOL    HW222049   2.478   6.187   5.442
 3340SOL     OW22050   3.989   1.577   5.221
 3340SOL    HW122051   3.949   1.489   5.197
 3340SOL    HW222052   4.051   1.607   5.148
 3341SOL     OW22053   0.546   2.916   6.171
 3341SOL    HW122054   0.482   2.842   6.152
 3341SOL    HW222055   0.593   2.899   6.258
 3342SOL     OW22056   8.733   2.096   6.458
 3342SOL    HW122057   8.736   1.998   6.477
 3342SOL    HW222058   8.819   2.124   6.415
 3343SOL     OW22059   4.845   7.031   1.196
 3343SOL    HW122060   4.753   7.005   1.225
 3343SOL    HW222061   4.847   7.037   1.096
 3344SOL     OW22062   9.113   7.003   0.886
 3344SOL    HW122063   9.110   7.074   0.956
 3344SOL    HW222064   9.191   7.020   0.825
 3345SOL     OW22065   7.597   2.103   6.155
 3345SOL    HW122066   7.504   2.138   6.162
 3345SOL    HW222067   7.610   2.027   6.219
 3346SOL     OW22068   2.755   4.935   6.652
 3346SOL    HW122069   2.776   4.982   6.737
 3346SOL    HW222070   2.746   4.837   6.669
 3347SOL     OW22071   5.685   2.702   0.400
 3347SOL    HW122072   5.613   2.641   0.433
 3347SOL    HW222073   5.749   2.722   0.474
 3348SOL     OW22074   3.228   0.029   0.431
 3348SOL    HW122075   3.193   0.064   0.518
 3348SOL    HW222076   3.315   0.073   0.410
 3349SOL     OW22077   1.692   1.455   5.513
 3349SOL    HW122078   1.682   1.551   5.541
 3349SOL    HW222079   1.641   1.396   5.576
 3350SOL     OW22080   4.654   7.970   1.085
 3350SOL    HW122081   4.586   8.038   1.058
 3350SOL    HW222082   4.628   7.881   1.049
 3351SOL     OW22083   2.317   3.464   0.536
 3351SOL    HW122084   2.416   3.464   0.522
 3351SOL    HW222085   2.293   3.525   0.611
 3352SOL     OW22086   0.028   5.266   6.151
 3352SOL    HW122087   0.068   5.177   6.173
 3352SOL    HW222088   0.062   5.296   6.062
 3353SOL     OW22089   9.114   2.127   5.560
 3353SOL    HW122090   9.134   2.034   5.593
 3353SOL    HW222091   9.199   2.175   5.543
 3354SOL     OW22092   4.034   7.663   5.255
 3354SOL    HW122093   4.048   7.744   5.199
 3354SOL    HW222094   3.983   7.595   5.203
 3355SOL     OW22095   3.297   5.384   5.564
 3355SOL    HW122096   3.254   5.309   5.613
 3355SOL    HW222097   3.254   5.471   5.590
 3356SOL     OW22098   9.467   6.873   6.683
 3356SOL    HW122099   9.449   6.820   6.600
 3356SOL    HW222100   9.389   6.933   6.701
 3357SOL     OW22101   4.444   0.761   0.217
 3357SOL    HW122102   4.352   0.730   0.194
 3357SOL    HW222103   4.484   0.807   0.138
 3358SOL     OW22104   0.371   1.929   5.630
 3358SOL    HW122105   0.277   1.946   5.598
 3358SOL    HW222106   0.419   1.872   5.563
 3359SOL     OW22107   8.892   2.368   1.060
 3359SOL    HW122108   8.928   2.316   0.982
 3359SOL    HW222109   8.840   2.306   1.119
 3360SOL     OW22110   4.512   1.555   5.936
 3360SOL    HW122111   4.498   1.653   5.951
 3360SOL    HW222112   4.427   1.506   5.950
 3361SOL     OW22113   5.962   2.084   0.729
 3361SOL    HW122114   6.013   2.065   0.645
 3361SOL    HW222115   5.921   1.999   0.763
 3362SOL     OW22116   5.881   1.086   0.160
 3362SOL    HW122117   5.921   1.152   0.223
 3362SOL    HW222118   5.825   1.021   0.211
 3363SOL     OW22119   1.785   0.020   0.745
 3363SOL    HW122120   1.833  -0.012   0.664
 3363SOL    HW222121   1.851   0.041   0.817
 3364SOL     OW22122   3.051   1.683   5.692
 3364SOL    HW122123   3.143   1.722   5.691
 3364SOL    HW222124   2.984   1.756   5.701
 3365SOL     OW22125   0.108   6.480   0.155
 3365SOL    HW122126   0.088   6.536   0.075
 3365SOL    HW222127   0.108   6.383   0.130
 3366SOL     OW22128   7.210   1.480   6.137
 3366SOL    HW122129   7.180   1.535   6.058
 3366SOL    HW222130   7.295   1.518   6.173
 3367SOL     OW22131   3.492   1.110   5.879
 3367SOL    HW122132   3.534   1.076   5.963
 3367SOL    HW222133   3.441   1.035   5.835
 3368SOL     OW22134   5.933   8.073   5.215
 3368SOL    HW122135   5.874   8.153   5.228
 3368SOL    HW222136   5.899   8.019   5.138
 3369SOL     OW22137   9.481   6.561   6.666
 3369SOL    HW122138   9.396   6.508   6.672
 3369SOL    HW222139   9.476   6.621   6.586
 3370SOL     OW22140   3.550   0.793   6.423
 3370SOL    HW122141   3.586   0.759   6.510
 3370SOL    HW222142   3.525   0.890   6.433
 3371SOL     OW22143   6.288   1.357   0.189
 3371SOL    HW122144   6.379   1.337   0.225
 3371SOL    HW222145   6.295   1.427   0.118
 3372SOL     OW22146   0.221   0.249   0.145
 3372SOL    HW122147   0.310   0.296   0.146
 3372SOL    HW222148   0.191   0.235   0.240
 3373SOL     OW22149   8.038   4.413   0.399
 3373SOL    HW122150   8.105   4.456   0.339
 3373SOL    HW222151   7.956   4.471   0.405
 3374SOL     OW22152   9.113   8.434   0.933
 3374SOL    HW122153   9.095   8.387   0.847
 3374SOL    HW222154   9.027   8.448   0.982
 3375SOL     OW22155   4.955   5.110   6.376
 3375SOL    HW122156   4.968   5.209   6.381
 3375SOL    HW222157   5.024   5.064   6.431
 3376SOL     OW22158   7.688   4.549   0.081
 3376SOL    HW122159   7.655   4.540   0.175
 3376SOL    HW222160   7.752   4.475   0.060
 3377SOL     OW22161   0.933   0.634   5.693
 3377SOL    HW122162   0.969   0.617   5.601
 3377SOL    HW222163   0.839   0.669   5.685
 3378SOL     OW22164   3.617   7.701   6.166
 3378SOL    HW122165   3.692   7.745   6.215
 3378SOL    HW222166   3.534   7.706   6.222
 3379SOL     OW22167   3.378   5.222   6.389
 3379SOL    HW122168   3.334   5.274   6.316
 3379SOL    HW222169   3.431   5.284   6.446
 3380SOL     OW22170   2.350   5.767   6.185
 3380SOL    HW122171   2.359   5.755   6.284
 3380SOL    HW222172   2.368   5.862   6.161
 3381SOL     OW22173   7.496   6.843   6.187
 3381SOL    HW122174   7.427   6.771   6.179
 3381SOL    HW222175   7.549   6.847   6.102
 3382SOL     OW22176   1.104   5.682   4.794
 3382SOL    HW122177   1.009   5.708   4.811
 3382SOL    HW222178   1.110   5.635   4.706
 3383SOL     OW22179   0.005   2.039   0.715
 3383SOL    HW122180   0.095   1.998   0.725
 3383SOL    HW222181  -0.063   1.967   0.701
 3384SOL     OW22182   7.478   4.678   5.760
 3384SOL    HW122183   7.414   4.688   5.836
 3384SOL    HW222184   7.428   4.680   5.674
 3385SOL     OW22185   3.841   4.529   6.471
 3385SOL    HW122186   3.753   4.524   6.517
 3385SOL    HW222187   3.833   4.583   6.387
 3386SOL     OW22188   6.167   6.972   0.523
 3386SOL    HW122189   6.115   7.045   0.567
 3386SOL    HW222190   6.249   7.010   0.480
 3387SOL     OW22191   3.822   2.408   6.171
 3387SOL    HW122192   3.885   2.421   6.094
 3387SOL    HW222193   3.831   2.316   6.208
 3388SOL     OW22194   2.076   1.343   5.783
 3388SOL    HW122195   2.151   1.290   5.821
 3388SOL    HW222196   1.990   1.292   5.794
 3389SOL     OW22197   5.040   4.278   6.291
 3389SOL    HW122198   4.958   4.318   6.331
 3389SOL    HW222199   5.071   4.334   6.214
 3390SOL     OW22200   2.996   7.399   0.578
 3390SOL    HW122201   2.974   7.320   0.521
 3390SOL    HW222202   3.014   7.368   0.672
 3391SOL     OW22203   6.768   4.375   6.289
 3391SOL    HW122204   6.720   4.288   6.272
 3391SOL    HW222205   6.701   4.446   6.309
 3392SOL     OW22206   4.191   0.971   2.067
 3392SOL    HW122207   4.170   0.876   2.090
 3392SOL    HW222208   4.116   1.010   2.013
 3393SOL     OW22209   5.765   0.730   1.898
 3393SOL    HW122210   5.714   0.756   1.816
 3393SOL    HW222211   5.730   0.780   1.976
 3394SOL     OW22212   1.772   4.203   5.297
 3394SOL    HW122213   1.768   4.129   5.230
 3394SOL    HW222214   1.856   4.256   5.282
 3395SOL     OW22215   0.132   6.343   4.071
 3395SOL    HW122216   0.051   6.292   4.042
 3395SOL    HW222217   0.123   6.439   4.043
 3396SOL     OW22218   7.963   3.223   1.473
 3396SOL    HW122219   8.023   3.286   1.523
 3396SOL    HW222220   7.986   3.129   1.496
 3397SOL     OW22221   3.151   7.828   5.639
 3397SOL    HW122222   3.226   7.889   5.615
 3397SOL    HW222223   3.071   7.882   5.664
 3398SOL     OW22224   5.177   0.519   1.475
 3398SOL    HW122225   5.125   0.567   1.545
 3398SOL    HW222226   5.274   0.542   1.484
 3399SOL     OW22227   7.000   1.392   0.257
 3399SOL    HW122228   7.098   1.384   0.240
 3399SOL    HW222229   6.950   1.371   0.173
 3400SOL     OW22230   1.165   5.107   4.576
 3400SOL    HW122231   1.210   5.183   4.623
 3400SOL    HW222232   1.234   5.047   4.536
 3401SOL     OW22233   0.033   1.888   5.335
 3401SOL    HW122234   0.069   1.807   5.289
 3401SOL    HW222235   0.086   1.969   5.307
 3402SOL     OW22236   1.355   0.876   0.797
 3402SOL    HW122237   1.275   0.821   0.774
 3402SOL    HW222238   1.374   0.867   0.895
 3403SOL     OW22239   3.815   2.263   5.270
 3403SOL    HW122240   3.779   2.193   5.209
 3403SOL    HW222241   3.765   2.348   5.255
 3404SOL     OW22242   1.252   3.606   5.705
 3404SOL    HW122243   1.328   3.601   5.640
 3404SOL    HW222244   1.206   3.694   5.696
 3405SOL     OW22245   7.059   4.022   6.052
 3405SOL    HW122246   7.157   4.020   6.028
 3405SOL    HW222247   7.048   4.003   6.149
 3406SOL     OW22248   5.233   7.063   5.668
 3406SOL    HW122249   5.253   6.966   5.655
 3406SOL    HW222250   5.140   7.082   5.635
 3407SOL     OW22251   7.051   2.577   0.621
 3407SOL    HW122252   7.123   2.585   0.552
 3407SOL    HW222253   7.073   2.634   0.700
 3408SOL     OW22254   5.069   8.290   0.626
 3408SOL    HW122255   4.979   8.308   0.666
 3408SOL    HW222256   5.083   8.349   0.547
 3409SOL     OW22257   6.197   5.817   1.082
 3409SOL    HW122258   6.169   5.721   1.077
 3409SOL    HW222259   6.180   5.852   1.174
 3410SOL     OW22260   5.292   6.704   1.187
 3410SOL    HW122261   5.251   6.617   1.215
 3410SOL    HW222262   5.219   6.772   1.176
 3411SOL     OW22263   3.570   3.500   1.748
 3411SOL    HW122264   3.613   3.582   1.787
 3411SOL    HW222265   3.493   3.472   1.804
 3412SOL     OW22266   5.329   6.226   1.206
 3412SOL    HW122267   5.299   6.182   1.290
 3412SOL    HW222268   5.254   6.228   1.140
 3413SOL     OW22269   3.839   0.415   5.461
 3413SOL    HW122270   3.865   0.473   5.384
 3413SOL    HW222271   3.843   0.467   5.546
 3414SOL     OW22272   8.077   1.770   0.920
 3414SOL    HW122273   8.105   1.804   1.009
 3414SOL    HW222274   8.010   1.697   0.931
 3415SOL     OW22275   8.813   5.458   5.776
 3415SOL    HW122276   8.723   5.500   5.784
 3415SOL    HW222277   8.813   5.389   5.704
 3416SOL     OW22278   5.744   5.297   5.684
 3416SOL    HW122279   5.797   5.248   5.754
 3416SOL    HW222280   5.726   5.390   5.715
 3417SOL     OW22281   8.012   5.084   5.947
 3417SOL    HW122282   7.989   5.003   5.893
 3417SOL    HW222283   8.111   5.090   5.957
 3418SOL     OW22284   7.462   3.107   1.042
 3418SOL    HW122285   7.404   3.047   1.097
 3418SOL    HW222286   7.545   3.128   1.093
 3419SOL     OW22287   6.743   4.783   0.525
 3419SOL    HW122288   6.759   4.691   0.562
 3419SOL    HW222289   6.686   4.776   0.443
 3420SOL     OW22290   1.503   8.482   5.159
 3420SOL    HW122291   1.409   8.514   5.143
 3420SOL    HW222292   1.546   8.459   5.072
 3421SOL     OW22293   2.474   5.690   0.316
 3421SOL    HW122294   2.420   5.750   0.375
 3421SOL    HW222295   2.418   5.611   0.291
 3422SOL     OW22296   3.986   2.260   1.625
 3422SOL    HW122297   4.013   2.311   1.544
 3422SOL    HW222298   3.954   2.323   1.695
 3423SOL     OW22299   8.027   6.579   0.978
 3423SOL    HW122300   7.974   6.592   1.062
 3423SOL    HW222301   8.041   6.481   0.961
 3424SOL     OW22302   2.419   7.653   4.625
 3424SOL    HW122303   2.409   7.651   4.525
 3424SOL    HW222304   2.485   7.724   4.650
 3425SOL     OW22305   2.648   7.130   0.071
 3425SOL    HW122306   2.631   7.103  -0.024
 3425SOL    HW222307   2.602   7.065   0.133
 3426SOL     OW22308   4.801   0.648   0.958
 3426SOL    HW122309   4.891   0.691   0.954
 3426SOL    HW222310   4.782   0.617   1.052
 3427SOL     OW22311   2.129   2.482   1.733
 3427SOL    HW122312   2.036   2.518   1.718
 3427SOL    HW222313   2.195   2.557   1.726
 3428SOL     OW22314   0.554   1.542   5.426
 3428SOL    HW122315   0.469   1.519   5.379
 3428SOL    HW222316   0.555   1.639   5.449
 3429SOL     OW22317   9.049   3.966   0.586
 3429SOL    HW122318   8.957   4.005   0.597
 3429SOL    HW222319   9.068   3.904   0.662
 3430SOL     OW22320   0.032   7.089   5.453
 3430SOL    HW122321   0.083   7.040   5.382
 3430SOL    HW222322  -0.032   7.153   5.410
 3431SOL     OW22323   7.082   4.680   6.118
 3431SOL    HW122324   7.057   4.587   6.146
 3431SOL    HW222325   7.006   4.722   6.069
 3432SOL     OW22326   8.296   1.986   6.294
 3432SOL    HW122327   8.242   1.911   6.333
 3432SOL    HW222328   8.374   1.948   6.244
 3433SOL     OW22329   1.516   6.442   0.442
 3433SOL    HW122330   1.587   6.384   0.403
 3433SOL    HW222331   1.557   6.525   0.479
 3434SOL     OW22332   0.739   1.274   6.709
 3434SOL    HW122333   0.642   1.300   6.719
 3434SOL    HW222334   0.776   1.317   6.628
 3435SOL     OW22335   3.063   8.260   1.010
 3435SOL    HW122336   3.053   8.162   0.992
 3435SOL    HW222337   3.084   8.275   1.107
 3436SOL     OW22338   6.581   3.545   0.946
 3436SOL    HW122339   6.541   3.631   0.914
 3436SOL    HW222340   6.572   3.475   0.875
 3437SOL     OW22341   1.080   0.665   6.554
 3437SOL    HW122342   1.084   0.569   6.584
 3437SOL    HW222343   1.045   0.668   6.460
 3438SOL     OW22344   7.359   7.021   0.167
 3438SOL    HW122345   7.408   7.053   0.249
 3438SOL    HW222346   7.403   6.937   0.134
 3439SOL     OW22347   8.024   4.118   5.613
 3439SOL    HW122348   8.003   4.087   5.706
 3439SOL    HW222349   7.999   4.046   5.548
 3440SOL     OW22350   8.867   5.926   5.813
 3440SOL    HW122351   8.818   5.960   5.733
 3440SOL    HW222352   8.962   5.907   5.788
 3441SOL     OW22353   3.260   7.529   1.807
 3441SOL    HW122354   3.293   7.480   1.888
 3441SOL    HW222355   3.260   7.627   1.826
 3442SOL     OW22356   3.312   6.860   6.090
 3442SOL    HW122357   3.407   6.845   6.060
 3442SOL    HW222358   3.297   6.814   6.177
 3443SOL     OW22359   6.749   6.867   5.260
 3443SOL    HW122360   6.822   6.936   5.257
 3443SOL    HW222361   6.734   6.831   5.168
 3444SOL     OW22362   1.182   5.890   1.085
 3444SOL    HW122363   1.149   5.800   1.113
 3444SOL    HW222364   1.270   5.908   1.130
 3445SOL     OW22365   7.162   7.233   0.246
 3445SOL    HW122366   7.246   7.199   0.204
 3445SOL    HW222367   7.185   7.300   0.316
 3446SOL     OW22368   3.973   0.603   1.405
 3446SOL    HW122369   4.054   0.544   1.407
 3446SOL    HW222370   4.002   0.699   1.397
 3447SOL     OW22371   7.937   3.036   6.333
 3447SOL    HW122372   7.898   3.117   6.378
 3447SOL    HW222373   7.868   2.996   6.272
 3448SOL     OW22374   1.730   7.836   5.478
 3448SOL    HW122375   1.775   7.854   5.391
 3448SOL    HW222376   1.793   7.855   5.553
 3449SOL     OW22377   8.543   6.029   0.729
 3449SOL    HW122378   8.498   5.968   0.664
 3449SOL    HW222379   8.637   6.047   0.698
 3450SOL     OW22380   5.170   8.144   2.057
 3450SOL    HW122381   5.255   8.179   2.095
 3450SOL    HW222382   5.169   8.044   2.064
 3451SOL     OW22383   7.771   1.007   5.730
 3451SOL    HW122384   7.812   0.971   5.647
 3451SOL    HW222385   7.673   1.021   5.716
 3452SOL     OW22386   1.717   2.454   6.247
 3452SOL    HW122387   1.618   2.454   6.233
 3452SOL    HW222388   1.741   2.523   6.315
 3453SOL     OW22389   8.762   0.000   5.859
 3453SOL    HW122390   8.749  -0.049   5.945
 3453SOL    HW222391   8.819   0.081   5.875
 3454SOL     OW22392   1.760   8.161   0.482
 3454SOL    HW122393   1.736   8.258   0.488
 3454SOL    HW222394   1.746   8.118   0.571
 3455SOL     OW22395   8.593   2.757   1.092
 3455SOL    HW122396   8.632   2.743   1.183
 3455SOL    HW222397   8.667   2.769   1.026
 3456SOL     OW22398   1.513   2.411   5.204
 3456SOL    HW122399   1.468   2.334   5.159
 3456SOL    HW222400   1.593   2.438   5.151
 3457SOL     OW22401   6.478   1.870   5.347
 3457SOL    HW122402   6.514   1.778   5.364
 3457SOL    HW222403   6.379   1.868   5.350
 3458SOL     OW22404   4.389   0.875   1.391
 3458SOL    HW122405   4.293   0.849   1.395
 3458SOL    HW222406   4.400   0.967   1.429
 3459SOL     OW22407   3.522   3.292   0.782
 3459SOL    HW122408   3.479   3.355   0.847
 3459SOL    HW222409   3.576   3.344   0.715
 3460SOL     OW22410   6.142   6.191   5.472
 3460SOL    HW122411   6.187   6.164   5.557
 3460SOL    HW222412   6.049   6.155   5.471
 3461SOL     OW22413   5.254   8.062   0.224
 3461SOL    HW122414   5.342   8.107   0.239
 3461SOL    HW222415   5.206   8.106   0.148
 3462SOL     OW22416   2.457   4.147   6.682
 3462SOL    HW122417   2.393   4.107   6.748
 3462SOL    HW222418   2.406   4.182   6.603
 3463SOL     OW22419   0.700   5.737   5.272
 3463SOL    HW122420   0.778   5.679   5.295
 3463SOL    HW222421   0.636   5.686   5.214
 3464SOL     OW22422   1.237   3.090   0.932
 3464SOL    HW122423   1.276   3.164   0.986
 3464SOL    HW222424   1.182   3.127   0.858
 3465SOL     OW22425   8.274   2.206   0.554
 3465SOL    HW122426   8.281   2.273   0.481
 3465SOL    HW222427   8.358   2.153   0.559
 3466SOL     OW22428   1.213   2.500   0.209
 3466SOL    HW122429   1.193   2.513   0.306
 3466SOL    HW222430   1.177   2.412   0.179
 3467SOL     OW22431   4.560   0.301   5.489
 3467SOL    HW122432   4.620   0.380   5.479
 3467SOL    HW222433   4.527   0.272   5.399
 3468SOL     OW22434   6.665   1.650   1.840
 3468SOL    HW122435   6.657   1.570   1.900
 3468SOL    HW222436   6.585   1.708   1.851
 3469SOL     OW22437   6.686   6.057   0.933
 3469SOL    HW122438   6.718   6.148   0.959
 3469SOL    HW222439   6.752   5.988   0.963
 3470SOL     OW22440   4.088   1.117   6.291
 3470SOL    HW122441   4.176   1.109   6.337
 3470SOL    HW222442   4.021   1.158   6.353
 3471SOL     OW22443   4.294   7.169   1.066
 3471SOL    HW122444   4.230   7.246   1.077
 3471SOL    HW222445   4.366   7.176   1.134
 3472SOL     OW22446   7.252   2.707   1.076
 3472SOL    HW122447   7.327   2.772   1.060
 3472SOL    HW222448   7.198   2.737   1.155
 3473SOL     OW22449   1.010   2.886   0.316
 3473SOL    HW122450   1.060   2.877   0.230
 3473SOL    HW222451   1.028   2.807   0.374
 3474SOL     OW22452   1.547   0.078   1.608
 3474SOL    HW122453   1.486  -0.000   1.621
 3474SOL    HW222454   1.642   0.049   1.620
 3475SOL     OW22455   5.807   5.730   1.152
 3475SOL    HW122456   5.854   5.648   1.183
 3475SOL    HW222457   5.792   5.725   1.053
 3476SOL     OW22458   3.130   4.828   1.161
 3476SOL    HW122459   3.141   4.784   1.073
 3476SOL    HW222460   3.077   4.769   1.222
 3477SOL     OW22461   5.376   4.854   5.708
 3477SOL    HW122462   5.363   4.862   5.807
 3477SOL    HW222463   5.288   4.866   5.662
 3478SOL     OW22464   5.194   6.867   6.296
 3478SOL    HW122465   5.250   6.817   6.362
 3478SOL    HW222466   5.175   6.809   6.218
 3479SOL     OW22467   6.687   2.293   1.258
 3479SOL    HW122468   6.632   2.209   1.261
 3479SOL    HW222469   6.628   2.371   1.238
 3480SOL     OW22470   2.125   6.412   5.799
 3480SOL    HW122471   2.210   6.377   5.839
 3480SOL    HW222472   2.100   6.355   5.720
 3481SOL     OW22473   2.829   1.061   0.439
 3481SOL    HW122474   2.747   1.004   0.435
 3481SOL    HW222475   2.909   1.002   0.454
 3482SOL     OW22476   8.573   6.741   6.476
 3482SOL    HW122477   8.604   6.829   6.439
 3482SOL    HW222478   8.493   6.756   6.534
 3483SOL     OW22479   7.263   1.344   0.170
 3483SOL    HW122480   7.307   1.394   0.095
 3483SOL    HW222481   7.320   1.349   0.252
 3484SOL     OW22482   3.925   6.971   6.138
 3484SOL    HW122483   3.972   6.991   6.052
 3484SOL    HW222484   3.835   7.015   6.137
 3485SOL     OW22485   8.813   5.555   6.274
 3485SOL    HW122486   8.821   5.650   6.305
 3485SOL    HW222487   8.845   5.549   6.179
 3486SOL     OW22488   4.396   6.974   6.640
 3486SOL    HW122489   4.373   6.907   6.569
 3486SOL    HW222490   4.388   7.066   6.603
 3487SOL     OW22491   2.617   8.125   0.439
 3487SOL    HW122492   2.561   8.058   0.391
 3487SOL    HW222493   2.714   8.104   0.426
 3488SOL     OW22494   4.884   6.223   6.342
 3488SOL    HW122495   4.834   6.152   6.292
 3488SOL    HW222496   4.822   6.273   6.402
 3489SOL     OW22497   5.466   0.535   4.563
 3489SOL    HW122498   5.446   0.469   4.635
 3489SOL    HW222499   5.418   0.508   4.479
 3490SOL     OW22500   0.569   5.811   0.956
 3490SOL    HW122501   0.614   5.900   0.950
 3490SOL    HW222502   0.540   5.794   1.050
 3491SOL     OW22503   6.958   5.715   1.580
 3491SOL    HW122504   6.862   5.730   1.606
 3491SOL    HW222505   7.018   5.746   1.653
 3492SOL     OW22506   0.238   8.093   5.507
 3492SOL    HW122507   0.221   8.174   5.450
 3492SOL    HW222508   0.237   8.118   5.603
 3493SOL     OW22509   2.590   2.271   6.650
 3493SOL    HW122510   2.527   2.262   6.573
 3493SOL    HW222511   2.548   2.230   6.731
 3494SOL     OW22512   2.149   6.309   6.722
 3494SOL    HW122513   2.236   6.292   6.677
 3494SOL    HW222514   2.155   6.282   6.818
 3495SOL     OW22515   7.928   6.943   5.755
 3495SOL    HW122516   7.959   6.850   5.774
 3495SOL    HW222517   8.008   7.001   5.737
 3496SOL     OW22518   3.986   7.571   6.033
 3496SOL    HW122519   4.070   7.520   6.049
 3496SOL    HW222520   4.005   7.669   6.037
 3497SOL     OW22521   6.175   5.245   6.083
 3497SOL    HW122522   6.247   5.190   6.041
 3497SOL    HW222523   6.088   5.228   6.035
 3498SOL     OW22524   4.387   4.177   2.055
 3498SOL    HW122525   4.462   4.114   2.074
 3498SOL    HW222526   4.410   4.235   1.978
 3499SOL     OW22527   4.782   1.412   5.372
 3499SOL    HW122528   4.689   1.377   5.383
 3499SOL    HW222529   4.781   1.491   5.311
 3500SOL     OW22530   4.234   3.262   5.682
 3500SOL    HW122531   4.221   3.287   5.586
 3500SOL    HW222532   4.243   3.345   5.737
 3501SOL     OW22533   8.539   4.311   0.143
 3501SOL    HW122534   8.556   4.409   0.131
 3501SOL    HW222535   8.623   4.267   0.177
 3502SOL     OW22536   4.270   6.148   6.144
 3502SOL    HW122537   4.224   6.169   6.231
 3502SOL    HW222538   4.213   6.086   6.090
 3503SOL     OW22539   6.557   7.133   5.047
 3503SOL    HW122540   6.642   7.119   4.996
 3503SOL    HW222541   6.502   7.049   5.043
 3504SOL     OW22542   1.407   3.777   1.314
 3504SOL    HW122543   1.344   3.740   1.246
 3504SOL    HW222544   1.464   3.703   1.351
 3505SOL     OW22545   5.679   7.381   5.124
 3505SOL    HW122546   5.723   7.471   5.117
 3505SOL    HW222547   5.601   7.377   5.062
 3506SOL     OW22548   8.254   4.485   1.241
 3506SOL    HW122549   8.181   4.419   1.222
 3506SOL    HW222550   8.214   4.576   1.253
 3507SOL     OW22551   0.359   4.942   0.597
 3507SOL    HW122552   0.451   4.924   0.562
 3507SOL    HW222553   0.291   4.921   0.527
 3508SOL     OW22554   2.571   3.970   0.699
 3508SOL    HW122555   2.643   3.952   0.632
 3508SOL    HW222556   2.482   3.955   0.657
 3509SOL     OW22557   5.570   6.596   6.374
 3509SOL    HW122558   5.529   6.517   6.328
 3509SOL    HW222559   5.585   6.669   6.307
 3510SOL     OW22560   1.994   4.768   6.485
 3510SOL    HW122561   2.052   4.849   6.481
 3510SOL    HW222562   1.993   4.723   6.396
 3511SOL     OW22563   7.454   6.341   5.995
 3511SOL    HW122564   7.490   6.415   5.937
 3511SOL    HW222565   7.454   6.255   5.944
 3512SOL     OW22566   0.947   0.589   5.976
 3512SOL    HW122567   0.977   0.594   5.881
 3512SOL    HW222568   0.991   0.512   6.021
 3513SOL     OW22569   4.906   1.392   6.424
 3513SOL    HW122570   4.988   1.367   6.477
 3513SOL    HW222571   4.855   1.463   6.472
 3514SOL     OW22572   6.552   2.513   2.048
 3514SOL    HW122573   6.514   2.555   2.130
 3514SOL    HW222574   6.636   2.561   2.022
 3515SOL     OW22575   2.582   2.852   1.318
 3515SOL    HW122576   2.659   2.915   1.322
 3515SOL    HW222577   2.611   2.766   1.274
 3516SOL     OW22578   8.746   3.622   0.378
 3516SOL    HW122579   8.807   3.544   0.395
 3516SOL    HW222580   8.686   3.599   0.301
 3517SOL     OW22581   6.787   4.706   6.639
 3517SOL    HW122582   6.803   4.746   6.549
 3517SOL    HW222583   6.783   4.606   6.630
 3518SOL     OW22584   0.919   2.705   1.507
 3518SOL    HW122585   0.826   2.698   1.543
 3518SOL    HW222586   0.985   2.678   1.578
 3519SOL     OW22587   4.716   4.111   5.308
 3519SOL    HW122588   4.638   4.051   5.291
 3519SOL    HW222589   4.787   4.062   5.358
 3520SOL     OW22590   4.727   2.403   6.222
 3520SOL    HW122591   4.635   2.380   6.190
 3520SOL    HW222592   4.738   2.373   6.317
 3521SOL     OW22593   8.624   7.330   0.193
 3521SOL    HW122594   8.665   7.347   0.103
 3521SOL    HW222595   8.576   7.242   0.192
 3522SOL     OW22596   7.871   7.275   0.983
 3522SOL    HW122597   7.876   7.350   1.048
 3522SOL    HW222598   7.962   7.258   0.945
 3523SOL     OW22599   7.645   7.511   6.613
 3523SOL    HW122600   7.614   7.602   6.641
 3523SOL    HW222601   7.569   7.462   6.570
 3524SOL     OW22602   5.728   3.354   1.255
 3524SOL    HW122603   5.809   3.383   1.306
 3524SOL    HW222604   5.688   3.274   1.300
 3525SOL     OW22605   2.739   0.316   1.402
 3525SOL    HW122606   2.697   0.292   1.315
 3525SOL    HW222607   2.711   0.250   1.472
 3526SOL     OW22608   8.285   7.746   4.985
 3526SOL    HW122609   8.233   7.820   4.943
 3526SOL    HW222610   8.353   7.783   5.047
 3527SOL     OW22611   1.604   0.447   5.900
 3527SOL    HW122612   1.555   0.491   5.825
 3527SOL    HW222613   1.573   0.485   5.987
 3528SOL     OW22614   4.736   5.478   1.611
 3528SOL    HW122615   4.690   5.418   1.676
 3528SOL    HW222616   4.690   5.567   1.608
 3529SOL     OW22617   9.139   2.737   0.969
 3529SOL    HW122618   9.194   2.764   1.048
 3529SOL    HW222619   9.163   2.644   0.942
 3530SOL     OW22620   5.093   6.893   1.143
 3530SOL    HW122621   5.015   6.933   1.190
 3530SOL    HW222622   5.123   6.954   1.071
 3531SOL     OW22623   4.144   4.804   1.189
 3531SOL    HW122624   4.076   4.736   1.161
 3531SOL    HW222625   4.227   4.793   1.135
 3532SOL     OW22626   6.298   1.577   1.355
 3532SOL    HW122627   6.217   1.544   1.307
 3532SOL    HW222628   6.354   1.631   1.292
 3533SOL     OW22629   3.350   6.172   1.261
 3533SOL    HW122630   3.252   6.184   1.281
 3533SOL    HW222631   3.389   6.104   1.323
 3534SOL     OW22632   8.631   6.143   5.295
 3534SOL    HW122633   8.597   6.118   5.386
 3534SOL    HW222634   8.654   6.060   5.244
 3535SOL     OW22635   4.423   6.056   1.136
 3535SOL    HW122636   4.396   6.140   1.181
 3535SOL    HW222637   4.353   5.986   1.148
 3536SOL     OW22638   4.718   5.225   0.515
 3536SOL    HW122639   4.684   5.274   0.435
 3536SOL    HW222640   4.649   5.158   0.545
 3537SOL     OW22641   6.838   0.306   0.770
 3537SOL    HW122642   6.840   0.230   0.836
 3537SOL    HW222643   6.874   0.274   0.682
 3538SOL     OW22644   7.404   6.000   1.130
 3538SOL    HW122645   7.419   6.062   1.053
 3538SOL    HW222646   7.469   6.021   1.203
 3539SOL     OW22647   8.167   4.315   6.330
 3539SOL    HW122648   8.238   4.287   6.266
 3539SOL    HW222649   8.081   4.329   6.281
 3540SOL     OW22650   0.836   6.781   5.323
 3540SOL    HW122651   0.761   6.820   5.270
 3540SOL    HW222652   0.892   6.855   5.361
 3541SOL     OW22653   7.534   5.663   1.157
 3541SOL    HW122654   7.517   5.614   1.242
 3541SOL    HW222655   7.624   5.706   1.160
 3542SOL     OW22656   5.385   4.913   0.929
 3542SOL    HW122657   5.425   4.824   0.903
 3542SOL    HW222658   5.455   4.984   0.920
 3543SOL     OW22659   4.037   6.719   5.332
 3543SOL    HW122660   3.970   6.764   5.390
 3543SOL    HW222661   4.029   6.620   5.342
 3544SOL     OW22662   4.226   0.259   0.518
 3544SOL    HW122663   4.254   0.244   0.613
 3544SOL    HW222664   4.182   0.177   0.483
 3545SOL     OW22665   4.934   8.209   6.158
 3545SOL    HW122666   5.019   8.259   6.176
 3545SOL    HW222667   4.898   8.172   6.244
 3546SOL     OW22668   0.229   5.504   0.235
 3546SOL    HW122669   0.133   5.475   0.233
 3546SOL    HW222670   0.284   5.432   0.278
 3547SOL     OW22671   0.496   8.481   6.423
 3547SOL    HW122672   0.430   8.409   6.402
 3547SOL    HW222673   0.587   8.441   6.429
 3548SOL     OW22674   2.252   2.554   5.671
 3548SOL    HW122675   2.316   2.613   5.719
 3548SOL    HW222676   2.171   2.540   5.727
 3549SOL     OW22677   5.023   0.031   0.502
 3549SOL    HW122678   5.012   0.073   0.592
 3549SOL    HW222679   4.933   0.021   0.460
 3550SOL     OW22680   0.362   5.256   6.420
 3550SOL    HW122681   0.391   5.351   6.434
 3550SOL    HW222682   0.280   5.254   6.364
 3551SOL     OW22683   1.486   4.318   5.774
 3551SOL    HW122684   1.454   4.381   5.845
 3551SOL    HW222685   1.515   4.370   5.694
 3552SOL     OW22686   2.419   4.867   6.418
 3552SOL    HW122687   2.403   4.853   6.516
 3552SOL    HW222688   2.517   4.870   6.400
 3553SOL     OW22689   0.189   4.875   0.788
 3553SOL    HW122690   0.212   4.889   0.884
 3553SOL    HW222691   0.257   4.920   0.730
 3554SOL     OW22692   0.232   1.012   6.253
 3554SOL    HW122693   0.261   0.919   6.276
 3554SOL    HW222694   0.283   1.076   6.311
 3555SOL     OW22695   7.169   7.965   6.262
 3555SOL    HW122696   7.155   8.061   6.239
 3555SOL    HW222697   7.224   7.921   6.191
 3556SOL     OW22698   0.880   2.099   5.697
 3556SOL    HW122699   0.964   2.063   5.739
 3556SOL    HW222700   0.905   2.165   5.626
 3557SOL     OW22701   6.491   4.419   6.315
 3557SOL    HW122702   6.427   4.398   6.389
 3557SOL    HW222703   6.462   4.373   6.232
 3558SOL     OW22704   1.086   5.685   1.231
 3558SOL    HW122705   1.186   5.687   1.229
 3558SOL    HW222706   1.054   5.713   1.322
 3559SOL     OW22707   3.550   4.293   0.671
 3559SOL    HW122708   3.555   4.225   0.745
 3559SOL    HW222709   3.640   4.300   0.627
 3560SOL     OW22710   8.554   0.838   5.557
 3560SOL    HW122711   8.460   0.872   5.557
 3560SOL    HW222712   8.577   0.804   5.465
 3561SOL     OW22713   0.050   5.460   5.058
 3561SOL    HW122714   0.130   5.417   5.016
 3561SOL    HW222715  -0.017   5.390   5.082
 3562SOL     OW22716   9.464   0.836   6.726
 3562SOL    HW122717   9.539   0.864   6.666
 3562SOL    HW222718   9.433   0.915   6.778
 3563SOL     OW22719   4.301   8.049   0.095
 3563SOL    HW122720   4.388   8.024   0.053
 3563SOL    HW222721   4.315   8.069   0.192
 3564SOL     OW22722   3.047   6.397   0.280
 3564SOL    HW122723   3.097   6.448   0.350
 3564SOL    HW222724   2.975   6.342   0.323
 3565SOL     OW22725   1.485   6.979   4.476
 3565SOL    HW122726   1.419   6.940   4.412
 3565SOL    HW222727   1.461   7.074   4.496
 3566SOL     OW22728   8.590   2.373   0.360
 3566SOL    HW122729   8.492   2.385   0.379
 3566SOL    HW222730   8.626   2.454   0.315
 3567SOL     OW22731   5.184   2.845   6.438
 3567SOL    HW122732   5.281   2.854   6.418
 3567SOL    HW222733   5.160   2.748   6.446
 3568SOL     OW22734   1.944   1.947   0.877
 3568SOL    HW122735   1.893   1.985   0.954
 3568SOL    HW222736   1.896   1.867   0.842
 3569SOL     OW22737   6.990   4.083   5.397
 3569SOL    HW122738   7.004   3.984   5.395
 3569SOL    HW222739   7.075   4.128   5.422
 3570SOL     OW22740   9.484   3.893   0.463
 3570SOL    HW122741   9.432   3.878   0.380
 3570SOL    HW222742   9.449   3.973   0.511
 3571SOL     OW22743   2.127   4.992   0.499
 3571SOL    HW122744   2.048   4.931   0.510
 3571SOL    HW222745   2.181   4.992   0.584
 3572SOL     OW22746   3.645   6.435   1.411
 3572SOL    HW122747   3.743   6.443   1.429
 3572SOL    HW222748   3.595   6.444   1.497
 3573SOL     OW22749   2.135   1.399   5.137
 3573SOL    HW122750   2.105   1.480   5.086
 3573SOL    HW222751   2.135   1.319   5.077
 3574SOL     OW22752   5.980   7.715   0.204
 3574SOL    HW122753   5.909   7.648   0.183
 3574SOL    HW222754   6.056   7.705   0.139
 3575SOL     OW22755   8.724   7.204   5.217
 3575SOL    HW122756   8.723   7.119   5.164
 3575SOL    HW222757   8.723   7.183   5.315
 3576SOL     OW22758   7.851   7.849   6.426
 3576SOL    HW122759   7.761   7.872   6.387
 3576SOL    HW222760   7.845   7.848   6.526
 3577SOL     OW22761   1.944   2.100   6.578
 3577SOL    HW122762   1.905   2.013   6.546
 3577SOL    HW222763   1.908   2.121   6.668
 3578SOL     OW22764   5.813   7.823   0.925
 3578SOL    HW122765   5.815   7.802   1.022
 3578SOL    HW222766   5.797   7.920   0.912
 3579SOL     OW22767   7.348   0.594   6.247
 3579SOL    HW122768   7.297   0.652   6.311
 3579SOL    HW222769   7.372   0.508   6.291
 3580SOL     OW22770   4.370   0.661   2.269
 3580SOL    HW122771   4.274   0.675   2.293
 3580SOL    HW222772   4.407   0.744   2.228
 3581SOL     OW22773   7.118   2.735   0.839
 3581SOL    HW122774   7.031   2.784   0.845
 3581SOL    HW222775   7.138   2.691   0.927
 3582SOL     OW22776   6.418   6.007   5.603
 3582SOL    HW122777   6.343   6.056   5.647
 3582SOL    HW222778   6.473   6.072   5.550
 3583SOL     OW22779   1.868   8.033   6.508
 3583SOL    HW122780   1.906   8.086   6.584
 3583SOL    HW222781   1.779   7.996   6.535
 3584SOL     OW22782   0.984   7.861   0.523
 3584SOL    HW122783   0.917   7.914   0.470
 3584SOL    HW222784   1.073   7.906   0.517
 3585SOL     OW22785   2.717   4.057   1.427
 3585SOL    HW122786   2.806   4.101   1.417
 3585SOL    HW222787   2.726   3.977   1.487
 3586SOL     OW22788   1.559   3.235   5.692
 3586SOL    HW122789   1.594   3.279   5.775
 3586SOL    HW222790   1.559   3.301   5.616
 3587SOL     OW22791   0.437   0.261   0.523
 3587SOL    HW122792   0.430   0.252   0.622
 3587SOL    HW222793   0.476   0.178   0.485
 3588SOL     OW22794   5.956   6.608   1.371
 3588SOL    HW122795   6.014   6.671   1.319
 3588SOL    HW222796   5.868   6.652   1.390
 3589SOL     OW22797   2.960   5.958   0.597
 3589SOL    HW122798   3.052   5.946   0.560
 3589SOL    HW222799   2.907   5.874   0.580
 3590SOL     OW22800   0.081   4.800   0.175
 3590SOL    HW122801   0.124   4.733   0.114
 3590SOL    HW222802   0.106   4.893   0.145
 3591SOL     OW22803   3.374   0.117   6.097
 3591SOL    HW122804   3.462   0.084   6.131
 3591SOL    HW222805   3.303   0.049   6.117
 3592SOL     OW22806   4.534   5.566   1.237
 3592SOL    HW122807   4.547   5.558   1.138
 3592SOL    HW222808   4.600   5.506   1.284
 3593SOL     OW22809   7.144   1.071   6.334
 3593SOL    HW122810   7.070   1.006   6.315
 3593SOL    HW222811   7.162   1.074   6.432
 3594SOL     OW22812   4.016   6.309   0.186
 3594SOL    HW122813   3.943   6.250   0.152
 3594SOL    HW222814   4.085   6.322   0.115
 3595SOL     OW22815   2.874   1.735   0.585
 3595SOL    HW122816   2.901   1.732   0.681
 3595SOL    HW222817   2.949   1.772   0.531
 3596SOL     OW22818   1.057   3.878   0.564
 3596SOL    HW122819   1.036   3.791   0.607
 3596SOL    HW222820   0.974   3.933   0.557
 3597SOL     OW22821   7.119   3.341   5.323
 3597SOL    HW122822   7.120   3.436   5.292
 3597SOL    HW222823   7.197   3.293   5.285
 3598SOL     OW22824   3.235   5.922   0.485
 3598SOL    HW122825   3.229   5.823   0.495
 3598SOL    HW222826   3.248   5.945   0.389
 3599SOL     OW22827   1.018   0.155   5.917
 3599SOL    HW122828   0.991   0.096   5.993
 3599SOL    HW222829   0.936   0.183   5.866
 3600SOL     OW22830   5.445   7.417   6.366
 3600SOL    HW122831   5.474   7.387   6.275
 3600SOL    HW222832   5.380   7.351   6.404
 3601SOL     OW22833   7.961   6.639   5.798
 3601SOL    HW122834   8.056   6.623   5.827
 3601SOL    HW222835   7.901   6.575   5.845
 3602SOL     OW22836   8.408   3.767   5.913
 3602SOL    HW122837   8.382   3.827   5.837
 3602SOL    HW222838   8.326   3.741   5.965
 3603SOL     OW22839   8.577   5.181   5.988
 3603SOL    HW122840   8.570   5.119   6.066
 3603SOL    HW222841   8.656   5.156   5.932
 3604SOL     OW22842   4.749   7.982   5.055
 3604SOL    HW122843   4.688   7.999   4.977
 3604SOL    HW222844   4.694   7.961   5.136
 3605SOL     OW22845   5.232   7.774   0.974
 3605SOL    HW122846   5.174   7.743   1.050
 3605SOL    HW222847   5.196   7.737   0.888
 3606SOL     OW22848   8.058   0.539   0.118
 3606SOL    HW122849   8.017   0.545   0.027
 3606SOL    HW222850   8.083   0.631   0.149
 3607SOL     OW22851   2.120   6.064   1.373
 3607SOL    HW122852   2.153   6.131   1.439
 3607SOL    HW222853   2.186   5.989   1.364
 3608SOL     OW22854   0.713   8.448   6.040
 3608SOL    HW122855   0.704   8.349   6.052
 3608SOL    HW222856   0.797   8.478   6.087
 3609SOL     OW22857   5.237   4.986   1.167
 3609SOL    HW122858   5.283   5.074   1.173
 3609SOL    HW222859   5.291   4.924   1.110
 3610SOL     OW22860   1.950   8.149   0.892
 3610SOL    HW122861   1.950   8.058   0.850
 3610SOL    HW222862   1.934   8.141   0.990
 3611SOL     OW22863   6.471   5.587   6.173
 3611SOL    HW122864   6.481   5.583   6.073
 3611SOL    HW222865   6.460   5.494   6.209
 3612SOL     OW22866   4.787   1.536   4.737
 3612SOL    HW122867   4.725   1.515   4.812
 3612SOL    HW222868   4.753   1.616   4.687
 3613SOL     OW22869   2.677   6.217   5.445
 3613SOL    HW122870   2.737   6.165   5.506
 3613SOL    HW222871   2.691   6.187   5.351
 3614SOL     OW22872   1.338   0.565   0.150
 3614SOL    HW122873   1.313   0.472   0.123
 3614SOL    HW222874   1.353   0.568   0.249
 3615SOL     OW22875   5.902   4.500   5.614
 3615SOL    HW122876   5.810   4.506   5.575
 3615SOL    HW222877   5.896   4.464   5.707
 3616SOL     OW22878   3.874   1.830   5.333
 3616SOL    HW122879   3.889   1.915   5.282
 3616SOL    HW222880   3.917   1.754   5.284
 3617SOL     OW22881   6.537   0.341   5.193
 3617SOL    HW122882   6.550   0.380   5.102
 3617SOL    HW222883   6.444   0.304   5.201
 3618SOL     OW22884   4.790   6.830   0.380
 3618SOL    HW122885   4.804   6.753   0.319
 3618SOL    HW222886   4.717   6.889   0.345
 3619SOL     OW22887   1.928   5.889   0.498
 3619SOL    HW122888   1.888   5.913   0.409
 3619SOL    HW222889   2.017   5.935   0.507
 3620SOL     OW22890   4.177   4.187   1.711
 3620SOL    HW122891   4.260   4.153   1.668
 3620SOL    HW222892   4.159   4.135   1.794
 3621SOL     OW22893   8.502   3.902   6.531
 3621SOL    HW122894   8.543   3.860   6.612
 3621SOL    HW222895   8.544   3.991   6.515
 3622SOL     OW22896   4.263   0.396   0.103
 3622SOL    HW122897   4.306   0.425   0.018
 3622SOL    HW222898   4.296   0.453   0.178
 3623SOL     OW22899   5.171   6.361   5.351
 3623SOL    HW122900   5.160   6.324   5.444
 3623SOL    HW222901   5.259   6.409   5.345
 3624SOL     OW22902   5.664   4.491   0.981
 3624SOL    HW122903   5.660   4.420   0.910
 3624SOL    HW222904   5.716   4.457   1.059
 3625SOL     OW22905   7.267   7.895   0.377
 3625SOL    HW122906   7.193   7.866   0.316
 3625SOL    HW222907   7.276   7.828   0.452
 3626SOL     OW22908   6.891   4.420   0.390
 3626SOL    HW122909   6.985   4.389   0.405
 3626SOL    HW222910   6.851   4.368   0.314
 3627SOL     OW22911   2.082   3.401   5.978
 3627SOL    HW122912   2.159   3.454   6.014
 3627SOL    HW222913   2.101   3.376   5.883
 3628SOL     OW22914   0.838   0.476   1.794
 3628SOL    HW122915   0.832   0.576   1.785
 3628SOL    HW222916   0.927   0.452   1.832
 3629SOL     OW22917   4.803   1.701   6.329
 3629SOL    HW122918   4.735   1.766   6.296
 3629SOL    HW222919   4.889   1.749   6.350
 3630SOL     OW22920   1.796   2.186   0.728
 3630SOL    HW122921   1.830   2.202   0.635
 3630SOL    HW222922   1.697   2.173   0.725
 3631SOL     OW22923   3.893   5.730   0.917
 3631SOL    HW122924   3.919   5.820   0.883
 3631SOL    HW222925   3.822   5.691   0.859
 3632SOL     OW22926   3.654   7.248   6.426
 3632SOL    HW122927   3.584   7.217   6.490
 3632SOL    HW222928   3.744   7.221   6.461
 3633SOL     OW22929   1.529   2.315   0.245
 3633SOL    HW122930   1.523   2.359   0.155
 3633SOL    HW222931   1.595   2.364   0.302
 3634SOL     OW22932   5.318   3.420   6.203
 3634SOL    HW122933   5.231   3.471   6.206
 3634SOL    HW222934   5.392   3.483   6.178
 3635SOL     OW22935   4.907   8.046   0.931
 3635SOL    HW122936   4.893   7.952   0.902
 3635SOL    HW222937   4.818   8.092   0.937
 3636SOL     OW22938   5.167   1.473   5.877
 3636SOL    HW122939   5.224   1.536   5.825
 3636SOL    HW222940   5.112   1.418   5.814
 3637SOL     OW22941   6.747   1.011   0.794
 3637SOL    HW122942   6.767   0.980   0.701
 3637SOL    HW222943   6.649   1.007   0.810
 3638SOL     OW22944   5.423   6.061   0.441
 3638SOL    HW122945   5.507   6.021   0.477
 3638SOL    HW222946   5.444   6.117   0.361
 3639SOL     OW22947   2.069   2.285   0.420
 3639SOL    HW122948   2.104   2.288   0.327
 3639SOL    HW222949   2.138   2.243   0.480
 3640SOL     OW22950   0.835   6.280   0.385
 3640SOL    HW122951   0.895   6.252   0.460
 3640SOL    HW222952   0.829   6.380   0.383
 3641SOL     OW22953   6.878   7.498   5.400
 3641SOL    HW122954   6.839   7.462   5.315
 3641SOL    HW222955   6.929   7.581   5.380
 3642SOL     OW22956   3.230   3.708   0.434
 3642SOL    HW122957   3.168   3.780   0.407
 3642SOL    HW222958   3.324   3.733   0.410
 3643SOL     OW22959   8.494   1.391   6.532
 3643SOL    HW122960   8.452   1.380   6.622
 3643SOL    HW222961   8.466   1.315   6.473
 3644SOL     OW22962   3.891   7.495   1.003
 3644SOL    HW122963   3.802   7.524   1.038
 3644SOL    HW222964   3.883   7.476   0.905
 3645SOL     OW22965   0.110   6.946   6.150
 3645SOL    HW122966   0.127   7.007   6.227
 3645SOL    HW222967   0.067   6.862   6.183
 3646SOL     OW22968   4.458   7.248   6.604
 3646SOL    HW122969   4.493   7.310   6.674
 3646SOL    HW222970   4.442   7.300   6.519
 3647SOL     OW22971   3.768   0.071   0.989
 3647SOL    HW122972   3.838   0.141   1.001
 3647SOL    HW222973   3.771   0.036   0.895
 3648SOL     OW22974   5.733   7.772   1.549
 3648SOL    HW122975   5.713   7.855   1.600
 3648SOL    HW222976   5.832   7.766   1.533
 3649SOL     OW22977   5.612   7.689   5.951
 3649SOL    HW122978   5.555   7.720   5.875
 3649SOL    HW222979   5.554   7.665   6.029
 3650SOL     OW22980   7.612   0.383   6.598
 3650SOL    HW122981   7.541   0.347   6.659
 3650SOL    HW222982   7.570   0.416   6.514
 3651SOL     OW22983   6.061   4.049   0.073
 3651SOL    HW122984   6.009   4.069  -0.010
 3651SOL    HW222985   6.066   4.131   0.130
 3652SOL     OW22986   6.029   8.409   4.829
 3652SOL    HW122987   5.999   8.368   4.743
 3652SOL    HW222988   6.033   8.509   4.818
 3653SOL     OW22989   4.418   2.288   6.070
 3653SOL    HW122990   4.437   2.375   6.026
 3653SOL    HW222991   4.324   2.259   6.049
 3654SOL     OW22992   7.095   5.870   0.755
 3654SOL    HW122993   7.086   5.925   0.672
 3654SOL    HW222994   7.094   5.930   0.835
 3655SOL     OW22995   3.185   6.652   6.643
 3655SOL    HW122996   3.255   6.581   6.630
 3655SOL    HW222997   3.145   6.643   6.735
 3656SOL     OW22998   7.330   1.865   0.116
 3656SOL    HW122999   7.295   1.890   0.025
 3656SOL    HW223000   7.430   1.855   0.112
 3657SOL     OW23001   0.754   3.071   5.558
 3657SOL    HW123002   0.711   3.072   5.467
 3657SOL    HW223003   0.853   3.080   5.548
 3658SOL     OW23004   4.084   2.856   6.103
 3658SOL    HW123005   4.183   2.847   6.108
 3658SOL    HW223006   4.059   2.901   6.017
 3659SOL     OW23007   4.972   4.052   6.613
 3659SOL    HW123008   5.047   4.116   6.626
 3659SOL    HW223009   4.891   4.101   6.580
 3660SOL     OW23010   2.729   7.934   5.402
 3660SOL    HW123011   2.662   7.955   5.331
 3660SOL    HW223012   2.765   7.842   5.387
 3661SOL     OW23013   8.802   7.776   5.949
 3661SOL    HW123014   8.855   7.851   5.910
 3661SOL    HW223015   8.719   7.812   5.991
 3662SOL     OW23016   6.637   2.009   6.681
 3662SOL    HW123017   6.593   2.093   6.650
 3662SOL    HW223018   6.681   1.964   6.603
 3663SOL     OW23019   2.776   0.693   6.705
 3663SOL    HW123020   2.738   0.757   6.638
 3663SOL    HW223021   2.846   0.740   6.760
 3664SOL     OW23022   8.372   5.898   5.249
 3664SOL    HW123023   8.388   5.813   5.198
 3664SOL    HW223024   8.301   5.951   5.203
 3665SOL     OW23025   5.918   3.276   2.176
 3665SOL    HW123026   5.971   3.230   2.247
 3665SOL    HW223027   5.836   3.223   2.155
 3666SOL     OW23028   8.294   3.991   6.186
 3666SOL    HW123029   8.259   4.043   6.108
 3666SOL    HW223030   8.224   3.987   6.257
 3667SOL     OW23031   9.229   4.323   5.945
 3667SOL    HW123032   9.201   4.335   5.850
 3667SOL    HW223033   9.275   4.235   5.956
 3668SOL     OW23034   6.849   8.349   5.485
 3668SOL    HW123035   6.892   8.261   5.506
 3668SOL    HW223036   6.761   8.355   5.532
 3669SOL     OW23037   3.713   4.920   0.875
 3669SOL    HW123038   3.681   4.896   0.783
 3669SOL    HW223039   3.798   4.869   0.895
 3670SOL     OW23040   6.815   2.673   0.194
 3670SOL    HW123041   6.828   2.747   0.128
 3670SOL    HW223042   6.795   2.588   0.146
 3671SOL     OW23043   2.527   6.024   5.839
 3671SOL    HW123044   2.590   6.034   5.762
 3671SOL    HW223045   2.434   6.049   5.809
 3672SOL     OW23046   6.051   1.562   1.190
 3672SOL    HW123047   5.990   1.606   1.256
 3672SOL    HW223048   6.047   1.611   1.103
 3673SOL     OW23049   5.017   6.679   1.763
 3673SOL    HW123050   5.026   6.655   1.666
 3673SOL    HW223051   4.939   6.630   1.802
 3674SOL     OW23052   3.133   5.675   6.311
 3674SOL    HW123053   3.147   5.662   6.409
 3674SOL    HW223054   3.059   5.614   6.280
 3675SOL     OW23055   0.533   1.797   5.430
 3675SOL    HW123056   0.558   1.879   5.482
 3675SOL    HW223057   0.507   1.823   5.337
 3676SOL     OW23058   0.924   5.616   6.573
 3676SOL    HW123059   0.908   5.679   6.496
 3676SOL    HW223060   0.845   5.618   6.634
 3677SOL     OW23061   7.141   4.716   5.283
 3677SOL    HW123062   7.093   4.771   5.214
 3677SOL    HW223063   7.236   4.702   5.254
 3678SOL     OW23064   2.417   5.151   5.785
 3678SOL    HW123065   2.443   5.244   5.813
 3678SOL    HW223066   2.475   5.085   5.831
 3679SOL     OW23067   0.688   8.409   5.245
 3679SOL    HW123068   0.766   8.453   5.291
 3679SOL    HW223069   0.721   8.358   5.165
 3680SOL     OW23070   9.230   6.417   5.199
 3680SOL    HW123071   9.220   6.393   5.102
 3680SOL    HW223072   9.261   6.512   5.207
 3681SOL     OW23073   0.309   3.529   6.642
 3681SOL    HW123074   0.241   3.512   6.713
 3681SOL    HW223075   0.266   3.574   6.564
 3682SOL     OW23076   3.020   8.262   5.658
 3682SOL    HW123077   3.015   8.211   5.572
 3682SOL    HW223078   3.012   8.198   5.735
 3683SOL     OW23079   6.682   6.013   0.455
 3683SOL    HW123080   6.760   5.960   0.486
 3683SOL    HW223081   6.713   6.091   0.401
 3684SOL     OW23082   3.701   3.749   0.203
 3684SOL    HW123083   3.766   3.753   0.279
 3684SOL    HW223084   3.733   3.808   0.129
 3685SOL     OW23085   4.292   0.180   1.702
 3685SOL    HW123086   4.384   0.147   1.722
 3685SOL    HW223087   4.275   0.264   1.754
 3686SOL     OW23088   3.169   2.373   0.421
 3686SOL    HW123089   3.143   2.468   0.404
 3686SOL    HW223090   3.092   2.314   0.398
 3687SOL     OW23091   9.277   5.112   0.869
 3687SOL    HW123092   9.251   5.203   0.900
 3687SOL    HW223093   9.347   5.075   0.931
 3688SOL     OW23094   7.275   3.317   0.227
 3688SOL    HW123095   7.344   3.258   0.270
 3688SOL    HW223096   7.184   3.278   0.241
 3689SOL     OW23097   1.451   6.406   0.913
 3689SOL    HW123098   1.486   6.372   1.001
 3689SOL    HW223099   1.401   6.333   0.867
 3690SOL     OW23100   8.786   0.363   0.808
 3690SOL    HW123101   8.723   0.360   0.885
 3690SOL    HW223102   8.827   0.273   0.795
 3691SOL     OW23103   4.165   4.056   6.624
 3691SOL    HW123104   4.150   4.138   6.568
 3691SOL    HW223105   4.191   3.980   6.565
 3692SOL     OW23106   3.069   3.453   5.508
 3692SOL    HW123107   2.976   3.417   5.504
 3692SOL    HW223108   3.134   3.381   5.485
 3693SOL     OW23109   5.569   3.423   6.415
 3693SOL    HW123110   5.659   3.379   6.410
 3693SOL    HW223111   5.497   3.354   6.420
 3694SOL     OW23112   4.256   8.324   5.369
 3694SOL    HW123113   4.313   8.390   5.319
 3694SOL    HW223114   4.269   8.233   5.330
 3695SOL     OW23115   2.878   4.563   0.277
 3695SOL    HW123116   2.927   4.553   0.191
 3695SOL    HW223117   2.810   4.491   0.285
 3696SOL     OW23118   8.335   7.061   5.868
 3696SOL    HW123119   8.398   6.998   5.912
 3696SOL    HW223120   8.374   7.091   5.781
 3697SOL     OW23121   0.713   8.064   1.532
 3697SOL    HW123122   0.623   8.064   1.488
 3697SOL    HW223123   0.702   8.072   1.631
 3698SOL     OW23124   7.375   8.461   5.032
 3698SOL    HW123125   7.396   8.384   5.093
 3698SOL    HW223126   7.339   8.426   4.945
 3699SOL     OW23127   1.250   0.312   0.101
 3699SOL    HW123128   1.302   0.253   0.039
 3699SOL    HW223129   1.266   0.283   0.196
 3700SOL     OW23130   2.120   7.162   1.008
 3700SOL    HW123131   2.021   7.164   0.998
 3700SOL    HW223132   2.149   7.070   1.035
 3701SOL     OW23133   4.669   3.262   6.298
 3701SOL    HW123134   4.762   3.290   6.323
 3701SOL    HW223135   4.625   3.335   6.246
 3702SOL     OW23136   3.967   2.725   6.298
 3702SOL    HW123137   3.870   2.701   6.291
 3702SOL    HW223138   3.995   2.777   6.217
 3703SOL     OW23139   3.312   6.846   0.860
 3703SOL    HW123140   3.344   6.908   0.931
 3703SOL    HW223141   3.362   6.863   0.775
 3704SOL     OW23142   5.265   8.008   6.194
 3704SOL    HW123143   5.267   8.058   6.280
 3704SOL    HW223144   5.352   7.960   6.182
 3705SOL     OW23145   2.049   4.568   0.461
 3705SOL    HW123146   1.971   4.565   0.523
 3705SOL    HW223147   2.022   4.533   0.371
 3706SOL     OW23148   6.977   2.416   0.880
 3706SOL    HW123149   7.046   2.436   0.810
 3706SOL    HW223150   6.897   2.375   0.836
 3707SOL     OW23151   6.087   4.366   6.276
 3707SOL    HW123152   6.115   4.320   6.192
 3707SOL    HW223153   6.093   4.465   6.264
 3708SOL     OW23154   4.782   4.487   6.341
 3708SOL    HW123155   4.782   4.413   6.273
 3708SOL    HW223156   4.811   4.572   6.297
 3709SOL     OW23157   7.160   3.241   1.349
 3709SOL    HW123158   7.248   3.218   1.391
 3709SOL    HW223159   7.101   3.285   1.417
 3710SOL     OW23160   0.050   0.306   5.413
 3710SOL    HW123161  -0.027   0.257   5.454
 3710SOL    HW223162   0.122   0.319   5.482
 3711SOL     OW23163   3.614   6.675   1.233
 3711SOL    HW123164   3.519   6.704   1.218
 3711SOL    HW223165   3.618   6.609   1.307
 3712SOL     OW23166   1.586   5.273   6.030
 3712SOL    HW123167   1.540   5.217   5.960
 3712SOL    HW223168   1.537   5.264   6.117
 3713SOL     OW23169   2.351   4.540   0.043
 3713SOL    HW123170   2.362   4.540   0.142
 3713SOL    HW223171   2.371   4.631   0.007
 3714SOL     OW23172   4.583   7.383   1.154
 3714SOL    HW123173   4.566   7.297   1.202
 3714SOL    HW223174   4.587   7.458   1.221
 3715SOL     OW23175   6.811   5.549   0.040
 3715SOL    HW123176   6.834   5.646   0.025
 3715SOL    HW223177   6.896   5.495   0.044
 3716SOL     OW23178   0.712   8.332   0.919
 3716SOL    HW123179   0.772   8.275   0.863
 3716SOL    HW223180   0.684   8.412   0.867
 3717SOL     OW23181   4.826   8.341   0.410
 3717SOL    HW123182   4.919   8.314   0.386
 3717SOL    HW223183   4.762   8.302   0.344
 3718SOL     OW23184   2.735   5.450   0.542
 3718SOL    HW123185   2.803   5.465   0.613
 3718SOL    HW223186   2.726   5.352   0.524
 3719SOL     OW23187   6.415   6.903   0.014
 3719SOL    HW123188   6.464   6.955   0.083
 3719SOL    HW223189   6.430   6.944  -0.076
 3720SOL     OW23190   8.536   6.515   6.250
 3720SOL    HW123191   8.556   6.433   6.304
 3720SOL    HW223192   8.525   6.593   6.311
 3721SOL     OW23193   8.235   8.296   0.736
 3721SOL    HW123194   8.334   8.309   0.731
 3721SOL    HW223195   8.216   8.202   0.764
 3722SOL     OW23196   7.504   8.471   5.587
 3722SOL    HW123197   7.415   8.461   5.543
 3722SOL    HW223198   7.492   8.505   5.681
 3723SOL     OW23199   0.685   3.046   5.881
 3723SOL    HW123200   0.586   3.039   5.870
 3723SOL    HW223201   0.729   3.046   5.791
 3724SOL     OW23202   3.468   8.049   0.414
 3724SOL    HW123203   3.461   7.981   0.340
 3724SOL    HW223204   3.411   8.128   0.391
 3725SOL     OW23205   8.787   8.263   5.461
 3725SOL    HW123206   8.712   8.265   5.394
 3725SOL    HW223207   8.757   8.216   5.543
 3726SOL     OW23208   2.207   3.569   0.097
 3726SOL    HW123209   2.187   3.471   0.103
 3726SOL    HW223210   2.183   3.602   0.005
 3727SOL     OW23211   5.282   7.689   6.601
 3727SOL    HW123212   5.294   7.686   6.700
 3727SOL    HW223213   5.354   7.745   6.561
 3728SOL     OW23214   5.306   0.051   1.878
 3728SOL    HW123215   5.327   0.055   1.975
 3728SOL    HW223216   5.216   0.091   1.861
 3729SOL     OW23217   4.977   1.901   5.244
 3729SOL    HW123218   4.975   1.944   5.334
 3729SOL    HW223219   5.036   1.953   5.183
 3730SOL     OW23220   4.129   0.672   0.560
 3730SOL    HW123221   4.189   0.641   0.486
 3730SOL    HW223222   4.135   0.608   0.637
 3731SOL     OW23223   2.423   4.602   0.307
 3731SOL    HW123224   2.505   4.656   0.292
 3731SOL    HW223225   2.442   4.531   0.375
 3732SOL     OW23226   1.514   0.762   6.051
 3732SOL    HW123227   1.487   0.746   5.956
 3732SOL    HW223228   1.502   0.859   6.073
 3733SOL     OW23229   1.552   2.905   4.631
 3733SOL    HW123230   1.622   2.955   4.579
 3733SOL    HW223231   1.568   2.919   4.729
 3734SOL     OW23232   2.718   4.539   1.065
 3734SOL    HW123233   2.667   4.621   1.090
 3734SOL    HW223234   2.708   4.522   0.967
 3735SOL     OW23235   4.362   7.785   5.344
 3735SOL    HW123236   4.418   7.719   5.393
 3735SOL    HW223237   4.340   7.749   5.253
 3736SOL     OW23238   4.786   1.954   0.739
 3736SOL    HW123239   4.874   1.978   0.699
 3736SOL    HW223240   4.734   1.898   0.674
 3737SOL     OW23241   8.309   8.036   1.112
 3737SOL    HW123242   8.288   7.940   1.092
 3737SOL    HW223243   8.279   8.057   1.205
 3738SOL     OW23244   8.561   6.542   0.375
 3738SOL    HW123245   8.634   6.516   0.437
 3738SOL    HW223246   8.489   6.589   0.427
 3739SOL     OW23247   0.961   7.016   5.428
 3739SOL    HW123248   1.003   7.087   5.484
 3739SOL    HW223249   0.920   7.057   5.346
 3740SOL     OW23250   9.103   2.195   0.062
 3740SOL    HW123251   9.129   2.116   0.118
 3740SOL    HW223252   9.173   2.266   0.070
 3741SOL     OW23253   6.752   4.071   5.120
 3741SOL    HW123254   6.679   4.064   5.051
 3741SOL    HW223255   6.837   4.034   5.081
 3742SOL     OW23256   6.293   7.512   1.800
 3742SOL    HW123257   6.347   7.562   1.867
 3742SOL    HW223258   6.286   7.416   1.828
 3743SOL     OW23259   6.951   5.872   1.345
 3743SOL    HW123260   7.020   5.878   1.273
 3743SOL    HW223261   6.985   5.817   1.421
 3744SOL     OW23262   6.911   6.455   5.581
 3744SOL    HW123263   6.883   6.538   5.533
 3744SOL    HW223264   6.972   6.480   5.657
 3745SOL     OW23265   0.713   0.834   1.177
 3745SOL    HW123266   0.812   0.826   1.170
 3745SOL    HW223267   0.684   0.819   1.272
 3746SOL     OW23268   6.011   6.809   5.912
 3746SOL    HW123269   6.002   6.804   5.812
 3746SOL    HW223270   6.072   6.736   5.943
 3747SOL     OW23271   2.183   5.334   1.180
 3747SOL    HW123272   2.261   5.396   1.170
 3747SOL    HW223273   2.215   5.244   1.209
 3748SOL     OW23274   5.419   5.856   6.287
 3748SOL    HW123275   5.471   5.776   6.318
 3748SOL    HW223276   5.325   5.850   6.319
 3749SOL     OW23277   1.293   2.613   5.590
 3749SOL    HW123278   1.199   2.640   5.612
 3749SOL    HW223279   1.308   2.624   5.492
 3750SOL     OW23280   7.054   7.712   5.371
 3750SOL    HW123281   7.057   7.704   5.271
 3750SOL    HW223282   7.095   7.799   5.398
 3751SOL     OW23283   5.376   6.446   6.246
 3751SOL    HW123284   5.347   6.442   6.150
 3751SOL    HW223285   5.405   6.356   6.276
 3752SOL     OW23286   4.207   0.199   0.787
 3752SOL    HW123287   4.265   0.153   0.855
 3752SOL    HW223288   4.113   0.205   0.822
 3753SOL     OW23289   8.614   0.970   0.055
 3753SOL    HW123290   8.635   1.067   0.064
 3753SOL    HW223291   8.690   0.924   0.008
 3754SOL     OW23292   8.226   7.147   6.103
 3754SOL    HW123293   8.219   7.124   6.006
 3754SOL    HW223294   8.244   7.064   6.156
 3755SOL     OW23295   1.244   7.120   0.156
 3755SOL    HW123296   1.311   7.183   0.195
 3755SOL    HW223297   1.243   7.035   0.208
 3756SOL     OW23298   5.754   3.048   6.265
 3756SOL    HW123299   5.684   3.053   6.194
 3756SOL    HW223300   5.757   2.955   6.303
 3757SOL     OW23301   5.730   5.215   0.321
 3757SOL    HW123302   5.797   5.288   0.332
 3757SOL    HW223303   5.671   5.211   0.402
 3758SOL     OW23304   3.001   0.877   0.620
 3758SOL    HW123305   3.087   0.900   0.575
 3758SOL    HW223306   3.007   0.785   0.658
 3759SOL     OW23307   1.618   1.969   0.914
 3759SOL    HW123308   1.712   2.003   0.909
 3759SOL    HW223309   1.555   2.043   0.893
 3760SOL     OW23310   4.377   5.346   6.094
 3760SOL    HW123311   4.381   5.399   6.179
 3760SOL    HW223312   4.369   5.409   6.016
 3761SOL     OW23313   4.894   1.478   4.996
 3761SOL    HW123314   4.804   1.449   5.027
 3761SOL    HW223315   4.887   1.515   4.903
 3762SOL     OW23316   8.994   0.166   0.178
 3762SOL    HW123317   8.913   0.172   0.119
 3762SOL    HW223318   8.992   0.240   0.245
 3763SOL     OW23319   3.170   3.656   6.594
 3763SOL    HW123320   3.136   3.741   6.554
 3763SOL    HW223321   3.111   3.580   6.564
 3764SOL     OW23322   7.469   3.186   6.148
 3764SOL    HW123323   7.556   3.229   6.121
 3764SOL    HW223324   7.447   3.212   6.242
 3765SOL     OW23325   2.087   1.990   5.673
 3765SOL    HW123326   2.116   2.078   5.711
 3765SOL    HW223327   2.096   1.992   5.573
 3766SOL     OW23328   3.178   3.860   1.339
 3766SOL    HW123329   3.187   3.761   1.349
 3766SOL    HW223330   3.085   3.881   1.306
 3767SOL     OW23331   4.364   1.477   1.299
 3767SOL    HW123332   4.462   1.477   1.316
 3767SOL    HW223333   4.323   1.559   1.339
 3768SOL     OW23334   4.754   7.263   6.089
 3768SOL    HW123335   4.751   7.350   6.139
 3768SOL    HW223336   4.822   7.270   6.015
 3769SOL     OW23337   3.527   4.465   1.562
 3769SOL    HW123338   3.545   4.462   1.661
 3769SOL    HW223339   3.495   4.557   1.537
 3770SOL     OW23340   0.202   5.702   5.113
 3770SOL    HW123341   0.164   5.791   5.139
 3770SOL    HW223342   0.153   5.630   5.162
 3771SOL     OW23343   1.372   0.950   6.657
 3771SOL    HW123344   1.343   1.042   6.629
 3771SOL    HW223345   1.375   0.890   6.577
 3772SOL     OW23346   3.235   6.580   1.381
 3772SOL    HW123347   3.201   6.573   1.475
 3772SOL    HW223348   3.171   6.535   1.319
 3773SOL     OW23349   3.805   1.412   5.853
 3773SOL    HW123350   3.825   1.315   5.840
 3773SOL    HW223351   3.729   1.422   5.917
 3774SOL     OW23352   4.243   0.411   2.155
 3774SOL    HW123353   4.243   0.317   2.190
 3774SOL    HW223354   4.267   0.474   2.229
 3775SOL     OW23355   3.135   5.819   6.071
 3775SOL    HW123356   3.107   5.781   6.159
 3775SOL    HW223357   3.116   5.917   6.068
 3776SOL     OW23358   6.870   4.432   6.563
 3776SOL    HW123359   6.949   4.491   6.548
 3776SOL    HW223360   6.839   4.394   6.476
 3777SOL     OW23361   6.962   4.735   0.745
 3777SOL    HW123362   6.994   4.731   0.651
 3777SOL    HW223363   7.041   4.745   0.806
 3778SOL     OW23364   4.486   0.061   5.659
 3778SOL    HW123365   4.536   0.071   5.745
 3778SOL    HW223366   4.511   0.137   5.598
 3779SOL     OW23367   2.000   4.608   6.263
 3779SOL    HW123368   1.993   4.519   6.308
 3779SOL    HW223369   1.908   4.639   6.238
 3780SOL     OW23370   4.424   3.287   6.713
 3780SOL    HW123371   4.454   3.214   6.652
 3780SOL    HW223372   4.502   3.344   6.738
 3781SOL     OW23373   6.046   2.364   1.043
 3781SOL    HW123374   6.011   2.368   0.949
 3781SOL    HW223375   6.051   2.268   1.072
 3782SOL     OW23376   7.202   5.824   6.530
 3782SOL    HW123377   7.182   5.759   6.603
 3782SOL    HW223378   7.239   5.909   6.570
 3783SOL     OW23379   4.503   6.017   0.164
 3783SOL    HW123380   4.461   6.045   0.250
 3783SOL    HW223381   4.491   6.090   0.096
 3784SOL     OW23382   2.422   6.207   0.641
 3784SOL    HW123383   2.462   6.158   0.564
 3784SOL    HW223384   2.414   6.146   0.720
 3785SOL     OW23385   1.236   7.445   0.021
 3785SOL    HW123386   1.323   7.444  -0.027
 3785SOL    HW223387   1.206   7.351   0.038
 3786SOL     OW23388   6.125   2.543   0.163
 3786SOL    HW123389   6.208   2.504   0.124
 3786SOL    HW223390   6.144   2.635   0.197
 3787SOL     OW23391   3.168   0.837   0.318
 3787SOL    HW123392   3.179   0.745   0.280
 3787SOL    HW223393   3.243   0.855   0.382
 3788SOL     OW23394   4.321   7.446   5.779
 3788SOL    HW123395   4.302   7.461   5.876
 3788SOL    HW223396   4.274   7.515   5.724
 3789SOL     OW23397   4.947   6.404   0.267
 3789SOL    HW123398   4.931   6.306   0.257
 3789SOL    HW223399   4.970   6.424   0.362
 3790SOL     OW23400   7.538   5.861   6.622
 3790SOL    HW123401   7.508   5.852   6.717
 3790SOL    HW223402   7.518   5.952   6.588
 3791SOL     OW23403   8.189   5.473   5.674
 3791SOL    HW123404   8.166   5.549   5.735
 3791SOL    HW223405   8.281   5.487   5.637
 3792SOL     OW23406   1.177   5.237   0.662
 3792SOL    HW123407   1.125   5.156   0.688
 3792SOL    HW223408   1.141   5.317   0.710
 3793SOL     OW23409   3.495   4.770   0.605
 3793SOL    HW123410   3.545   4.692   0.642
 3793SOL    HW223411   3.560   4.836   0.566
 3794SOL     OW23412   3.777   6.689   5.143
 3794SOL    HW123413   3.796   6.617   5.077
 3794SOL    HW223414   3.855   6.701   5.204
 3795SOL     OW23415   1.821   2.206   0.346
 3795SOL    HW123416   1.918   2.218   0.371
 3795SOL    HW223417   1.768   2.282   0.383
 3796SOL     OW23418   2.413   6.647   4.919
 3796SOL    HW123419   2.399   6.568   4.861
 3796SOL    HW223420   2.467   6.715   4.870
 3797SOL     OW23421   7.870   1.353   6.545
 3797SOL    HW123422   7.838   1.316   6.458
 3797SOL    HW223423   7.898   1.278   6.605
 3798SOL     OW23424   4.825   5.848   1.450
 3798SOL    HW123425   4.843   5.929   1.505
 3798SOL    HW223426   4.748   5.797   1.489
 3799SOL     OW23427   5.608   4.100   1.081
 3799SOL    HW123428   5.654   4.080   1.168
 3799SOL    HW223429   5.551   4.182   1.092
 3800SOL     OW23430   2.365   1.907   1.600
 3800SOL    HW123431   2.362   1.918   1.699
 3800SOL    HW223432   2.276   1.930   1.562
 3801SOL     OW23433   4.645   1.720   0.936
 3801SOL    HW123434   4.599   1.632   0.945
 3801SOL    HW223435   4.591   1.781   0.878
 3802SOL     OW23436   4.974   5.300   1.990
 3802SOL    HW123437   5.029   5.278   2.070
 3802SOL    HW223438   4.937   5.216   1.950
 3803SOL     OW23439   0.418   5.667   0.128
 3803SOL    HW123440   0.386   5.681   0.034
 3803SOL    HW223441   0.354   5.607   0.176
 3804SOL     OW23442   2.893   5.771   5.667
 3804SOL    HW123443   2.882   5.690   5.610
 3804SOL    HW223444   2.909   5.744   5.762
 3805SOL     OW23445   3.794   2.505   6.578
 3805SOL    HW123446   3.720   2.454   6.534
 3805SOL    HW223447   3.757   2.556   6.655
 3806SOL     OW23448   4.306   5.034   0.595
 3806SOL    HW123449   4.390   5.068   0.637
 3806SOL    HW223450   4.311   4.934   0.587
 3807SOL     OW23451   1.222   6.830   5.342
 3807SOL    HW123452   1.285   6.808   5.267
 3807SOL    HW223453   1.163   6.906   5.314
 3808SOL     OW23454   5.513   8.012   1.187
 3808SOL    HW123455   5.429   8.068   1.188
 3808SOL    HW223456   5.490   7.918   1.213
 3809SOL     OW23457   1.440   7.465   6.504
 3809SOL    HW123458   1.471   7.431   6.415
 3809SOL    HW223459   1.368   7.533   6.490
 3810SOL     OW23460   0.683   7.102   6.435
 3810SOL    HW123461   0.654   7.007   6.419
 3810SOL    HW223462   0.611   7.151   6.485
 3811SOL     OW23463   1.549   0.614   1.405
 3811SOL    HW123464   1.627   0.596   1.464
 3811SOL    HW223465   1.465   0.614   1.459
 3812SOL     OW23466   7.361   4.052   6.022
 3812SOL    HW123467   7.425   4.129   6.023
 3812SOL    HW223468   7.375   3.998   5.940
 3813SOL     OW23469   5.594   1.334   6.562
 3813SOL    HW123470   5.498   1.340   6.588
 3813SOL    HW223471   5.602   1.328   6.462
 3814SOL     OW23472   5.767   3.251   6.459
 3814SOL    HW123473   5.759   3.182   6.388
 3814SOL    HW223474   5.809   3.212   6.540
 3815SOL     OW23475   8.819   7.098   0.317
 3815SOL    HW123476   8.835   7.019   0.376
 3815SOL    HW223477   8.731   7.088   0.271
 3816SOL     OW23478   4.293   1.646   0.625
 3816SOL    HW123479   4.203   1.631   0.666
 3816SOL    HW223480   4.353   1.569   0.648
 3817SOL     OW23481   6.724   1.976   0.204
 3817SOL    HW123482   6.734   1.879   0.226
 3817SOL    HW223483   6.717   1.987   0.105
 3818SOL     OW23484   7.453   1.413   5.949
 3818SOL    HW123485   7.382   1.347   5.926
 3818SOL    HW223486   7.475   1.407   6.046
 3819SOL     OW23487   9.334   2.789   6.680
 3819SOL    HW123488   9.362   2.748   6.767
 3819SOL    HW223489   9.292   2.720   6.622
 3820SOL     OW23490   7.935   2.615   6.708
 3820SOL    HW123491   7.971   2.661   6.627
 3820SOL    HW223492   7.918   2.683   6.780
 3821SOL     OW23493   0.656   6.865   1.899
 3821SOL    HW123494   0.653   6.862   1.999
 3821SOL    HW223495   0.746   6.833   1.868
 3822SOL     OW23496   5.424   0.232   6.086
 3822SOL    HW123497   5.489   0.236   6.011
 3822SOL    HW223498   5.364   0.153   6.075
 3823SOL     OW23499   3.788   1.703   5.915
 3823SOL    HW123500   3.798   1.629   5.848
 3823SOL    HW223501   3.869   1.707   5.973
 3824SOL     OW23502   0.563   0.200   5.021
 3824SOL    HW123503   0.584   0.123   4.961
 3824SOL    HW223504   0.597   0.284   4.980
 3825SOL     OW23505   5.883   7.039   6.004
 3825SOL    HW123506   5.950   7.081   6.066
 3825SOL    HW223507   5.921   6.957   5.963
 3826SOL     OW23508   5.329   6.634   0.062
 3826SOL    HW123509   5.245   6.687   0.074
 3826SOL    HW223510   5.400   6.667   0.124
 3827SOL     OW23511   5.249   5.876   0.939
 3827SOL    HW123512   5.200   5.926   1.010
 3827SOL    HW223513   5.237   5.921   0.851
 3828SOL     OW23514   8.614   4.552   0.081
 3828SOL    HW123515   8.700   4.598   0.058
 3828SOL    HW223516   8.548   4.569   0.008
 3829SOL     OW23517   4.287   6.797   1.842
 3829SOL    HW123518   4.275   6.881   1.895
 3829SOL    HW223519   4.239   6.805   1.754
 3830SOL     OW23520   1.962   7.876   5.642
 3830SOL    HW123521   2.017   7.797   5.670
 3830SOL    HW223522   2.014   7.960   5.659
 3831SOL     OW23523   1.920   4.206   6.226
 3831SOL    HW123524   1.909   4.182   6.322
 3831SOL    HW223525   1.833   4.194   6.178
 3832SOL     OW23526   4.342   6.223   6.540
 3832SOL    HW123527   4.423   6.252   6.590
 3832SOL    HW223528   4.355   6.129   6.508
 3833SOL     OW23529   0.181   4.762   5.784
 3833SOL    HW123530   0.174   4.852   5.827
 3833SOL    HW223531   0.158   4.769   5.687
 3834SOL     OW23532   5.973   8.174   0.800
 3834SOL    HW123533   6.030   8.199   0.878
 3834SOL    HW223534   6.023   8.111   0.741
 3835SOL     OW23535   3.667   5.726   0.704
 3835SOL    HW123536   3.621   5.805   0.663
 3835SOL    HW223537   3.750   5.705   0.654
 3836SOL     OW23538   5.974   7.726   1.432
 3836SOL    HW123539   6.061   7.764   1.399
 3836SOL    HW223540   5.992   7.667   1.510
 3837SOL     OW23541   3.053   0.079   5.596
 3837SOL    HW123542   3.117   0.010   5.628
 3837SOL    HW223543   3.020   0.054   5.505
 3838SOL     OW23544   1.193   4.287   0.861
 3838SOL    HW123545   1.212   4.294   0.959
 3838SOL    HW223546   1.252   4.350   0.811
 3839SOL     OW23547   1.551   1.742   1.040
 3839SOL    HW123548   1.601   1.822   1.005
 3839SOL    HW223549   1.530   1.680   0.965
 3840SOL     OW23550   1.103   1.748   6.047
 3840SOL    HW123551   1.092   1.847   6.040
 3840SOL    HW223552   1.018   1.703   6.021
 3841SOL     OW23553   2.783   1.254   2.401
 3841SOL    HW123554   2.761   1.191   2.326
 3841SOL    HW223555   2.758   1.211   2.488
 3842SOL     OW23556   3.790   3.372   1.353
 3842SOL    HW123557   3.768   3.320   1.270
 3842SOL    HW223558   3.716   3.361   1.420
 3843SOL     OW23559   1.230   5.738   6.400
 3843SOL    HW123560   1.276   5.759   6.314
 3843SOL    HW223561   1.292   5.687   6.460
 3844SOL     OW23562   2.703   3.767   0.809
 3844SOL    HW123563   2.762   3.817   0.872
 3844SOL    HW223564   2.641   3.830   0.763
 3845SOL     OW23565   8.620   6.500   4.462
 3845SOL    HW123566   8.713   6.466   4.475
 3845SOL    HW223567   8.556   6.442   4.512
 3846SOL     OW23568   9.152   7.401   5.105
 3846SOL    HW123569   9.181   7.425   5.013
 3846SOL    HW223570   9.052   7.399   5.109
 3847SOL     OW23571   8.317   3.479   0.565
 3847SOL    HW123572   8.238   3.524   0.607
 3847SOL    HW223573   8.336   3.393   0.613
 3848SOL     OW23574   9.274   5.219   0.439
 3848SOL    HW123575   9.295   5.132   0.393
 3848SOL    HW223576   9.175   5.232   0.441
 3849SOL     OW23577   3.315   6.981   0.278
 3849SOL    HW123578   3.384   7.048   0.304
 3849SOL    HW223579   3.277   7.005   0.189
 3850SOL     OW23580   4.423   1.138   1.509
 3850SOL    HW123581   4.420   1.103   1.603
 3850SOL    HW223582   4.474   1.224   1.508
 3851SOL     OW23583   3.892   8.387   6.407
 3851SOL    HW123584   3.965   8.395   6.475
 3851SOL    HW223585   3.884   8.291   6.378
 3852SOL     OW23586   4.866   0.571   6.584
 3852SOL    HW123587   4.857   0.476   6.556
 3852SOL    HW223588   4.803   0.589   6.660
 3853SOL     OW23589   7.193   8.401   5.971
 3853SOL    HW123590   7.141   8.382   5.888
 3853SOL    HW223591   7.222   8.315   6.013
 3854SOL     OW23592   6.602   4.296   1.483
 3854SOL    HW123593   6.543   4.254   1.551
 3854SOL    HW223594   6.583   4.395   1.479
 3855SOL     OW23595   7.033   6.245   0.403
 3855SOL    HW123596   7.124   6.214   0.376
 3855SOL    HW223597   7.013   6.213   0.495
 3856SOL     OW23598   1.615   1.936   6.300
 3856SOL    HW123599   1.693   1.907   6.355
 3856SOL    HW223600   1.646   2.000   6.229
 3857SOL     OW23601   0.714   7.168   5.279
 3857SOL    HW123602   0.688   7.205   5.368
 3857SOL    HW223603   0.635   7.125   5.236
 3858SOL     OW23604   6.625   2.169   0.375
 3858SOL    HW123605   6.695   2.115   0.329
 3858SOL    HW223606   6.616   2.136   0.470
 3859SOL     OW23607   7.612   6.520   0.486
 3859SOL    HW123608   7.674   6.585   0.530
 3859SOL    HW223609   7.565   6.466   0.556
 3860SOL     OW23610   4.343   1.466   0.023
 3860SOL    HW123611   4.380   1.515   0.102
 3860SOL    HW223612   4.410   1.399  -0.008
 3861SOL     OW23613   2.861   6.539   5.639
 3861SOL    HW123614   2.779   6.483   5.652
 3861SOL    HW223615   2.848   6.628   5.682
 3862SOL     OW23616   6.991   4.912   5.140
 3862SOL    HW123617   7.047   4.895   5.058
 3862SOL    HW223618   6.906   4.957   5.112
 3863SOL     OW23619   6.623   4.036   5.376
 3863SOL    HW123620   6.675   4.057   5.293
 3863SOL    HW223621   6.561   4.111   5.397
 3864SOL     OW23622   7.048   3.075   6.169
 3864SOL    HW123623   7.080   3.159   6.214
 3864SOL    HW223624   7.123   3.009   6.164
 3865SOL     OW23625   6.053   7.794   5.271
 3865SOL    HW123626   6.119   7.868   5.282
 3865SOL    HW223627   6.002   7.808   5.186
 3866SOL     OW23628   6.320   3.367   6.016
 3866SOL    HW123629   6.369   3.305   5.954
 3866SOL    HW223630   6.367   3.455   6.020
 3867SOL     OW23631   4.995   0.368   4.622
 3867SOL    HW123632   4.967   0.281   4.664
 3867SOL    HW223633   5.046   0.350   4.538
 3868SOL     OW23634   1.228   4.536   0.152
 3868SOL    HW123635   1.191   4.534   0.059
 3868SOL    HW223636   1.327   4.523   0.148
 3869SOL     OW23637   9.031   5.052   6.500
 3869SOL    HW123638   8.980   5.104   6.568
 3869SOL    HW223639   9.116   5.101   6.478
 3870SOL     OW23640   6.157   4.234   6.047
 3870SOL    HW123641   6.241   4.288   6.041
 3870SOL    HW223642   6.145   4.182   5.962
 3871SOL     OW23643   7.954   3.798   1.622
 3871SOL    HW123644   7.932   3.761   1.712
 3871SOL    HW223645   7.873   3.792   1.563
 3872SOL     OW23646   3.814   8.372   5.921
 3872SOL    HW123647   3.849   8.454   5.875
 3872SOL    HW223648   3.821   8.294   5.858
 3873SOL     OW23649   0.545   6.022   5.573
 3873SOL    HW123650   0.504   6.082   5.504
 3873SOL    HW223651   0.478   6.003   5.645
 3874SOL     OW23652   1.208   2.665   6.062
 3874SOL    HW123653   1.212   2.743   6.125
 3874SOL    HW223654   1.146   2.686   5.987
 3875SOL     OW23655   7.639   0.410   5.047
 3875SOL    HW123656   7.646   0.474   4.970
 3875SOL    HW223657   7.630   0.462   5.132
 3876SOL     OW23658   8.133   1.483   0.319
 3876SOL    HW123659   8.195   1.546   0.273
 3876SOL    HW223660   8.064   1.450   0.255
 3877SOL     OW23661   8.009   4.523   1.081
 3877SOL    HW123662   8.064   4.476   1.012
 3877SOL    HW223663   7.971   4.456   1.145
 3878SOL     OW23664   1.018   7.382   4.237
 3878SOL    HW123665   1.086   7.385   4.310
 3878SOL    HW223666   1.041   7.452   4.169
 3879SOL     OW23667   4.766   5.555   5.166
 3879SOL    HW123668   4.818   5.491   5.222
 3879SOL    HW223669   4.816   5.573   5.081
 3880SOL     OW23670   6.789   8.227   6.475
 3880SOL    HW123671   6.855   8.168   6.429
 3880SOL    HW223672   6.727   8.172   6.531
 3881SOL     OW23673   6.379   6.701   1.053
 3881SOL    HW123674   6.333   6.717   0.965
 3881SOL    HW223675   6.434   6.780   1.077
 3882SOL     OW23676   1.575   2.131   0.557
 3882SOL    HW123677   1.616   2.168   0.474
 3882SOL    HW223678   1.481   2.102   0.537
 3883SOL     OW23679   6.088   4.128   5.805
 3883SOL    HW123680   6.165   4.095   5.751
 3883SOL    HW223681   6.005   4.080   5.776
 3884SOL     OW23682   1.941   5.087   0.251
 3884SOL    HW123683   1.969   4.997   0.215
 3884SOL    HW223684   2.006   5.115   0.322
 3885SOL     OW23685   6.287   0.395   6.710
 3885SOL    HW123686   6.315   0.373   6.804
 3885SOL    HW223687   6.192   0.366   6.696
 3886SOL     OW23688   7.022   7.645   5.641
 3886SOL    HW123689   7.030   7.690   5.552
 3886SOL    HW223690   6.926   7.619   5.656
 3887SOL     OW23691   2.281   6.805   0.117
 3887SOL    HW123692   2.214   6.819   0.190
 3887SOL    HW223693   2.237   6.815   0.028
 3888SOL     OW23694   8.346   8.384   0.995
 3888SOL    HW123695   8.305   8.337   0.916
 3888SOL    HW223696   8.287   8.372   1.075
 3889SOL     OW23697   8.792   1.008   5.071
 3889SOL    HW123698   8.834   1.014   4.981
 3889SOL    HW223699   8.692   1.012   5.061
 3890SOL     OW23700   6.702   7.110   0.457
 3890SOL    HW123701   6.783   7.118   0.399
 3890SOL    HW223702   6.682   7.198   0.499
 3891SOL     OW23703   9.467   8.431   5.268
 3891SOL    HW123704   9.407   8.399   5.195
 3891SOL    HW223705   9.420   8.501   5.322
 3892SOL     OW23706   8.406   2.794   0.018
 3892SOL    HW123707   8.440   2.701   0.004
 3892SOL    HW223708   8.464   2.841   0.084
 3893SOL     OW23709   4.421   6.749   1.074
 3893SOL    HW123710   4.515   6.750   1.107
 3893SOL    HW223711   4.380   6.659   1.090
 3894SOL     OW23712   4.683   7.270   5.015
 3894SOL    HW123713   4.753   7.235   5.077
 3894SOL    HW223714   4.712   7.357   4.977
 3895SOL     OW23715   8.417   7.727   0.831
 3895SOL    HW123716   8.348   7.771   0.889
 3895SOL    HW223717   8.381   7.715   0.739
 3896SOL     OW23718   2.728   7.791   5.985
 3896SOL    HW123719   2.714   7.825   6.079
 3896SOL    HW223720   2.761   7.696   5.989
 3897SOL     OW23721   6.807   7.664   0.164
 3897SOL    HW123722   6.771   7.572   0.181
 3897SOL    HW223723   6.756   7.731   0.219
 3898SOL     OW23724   5.682   2.544   6.481
 3898SOL    HW123725   5.753   2.606   6.516
 3898SOL    HW223726   5.725   2.465   6.437
 3899SOL     OW23727   6.533   4.545   1.501
 3899SOL    HW123728   6.589   4.595   1.567
 3899SOL    HW223729   6.437   4.565   1.518
 3900SOL     OW23730   9.474   6.281   5.568
 3900SOL    HW123731   9.521   6.194   5.578
 3900SOL    HW223732   9.375   6.267   5.572
 3901SOL     OW23733   0.891   4.768   6.643
 3901SOL    HW123734   0.972   4.826   6.653
 3901SOL    HW223735   0.861   4.769   6.548
 3902SOL     OW23736   7.742   6.676   6.245
 3902SOL    HW123737   7.673   6.736   6.204
 3902SOL    HW223738   7.821   6.669   6.183
 3903SOL     OW23739   6.533   4.320   0.989
 3903SOL    HW123740   6.456   4.353   1.043
 3903SOL    HW223741   6.513   4.333   0.891
 3904SOL     OW23742   6.904   1.903   0.584
 3904SOL    HW123743   6.829   1.837   0.593
 3904SOL    HW223744   6.941   1.898   0.491
 3905SOL     OW23745   8.167   6.313   0.973
 3905SOL    HW123746   8.262   6.316   1.004
 3905SOL    HW223747   8.125   6.228   1.003
 3906SOL     OW23748   9.029   2.341   6.568
 3906SOL    HW123749   9.040   2.295   6.656
 3906SOL    HW223750   8.992   2.433   6.583
 3907SOL     OW23751   2.946   8.103   5.429
 3907SOL    HW123752   3.023   8.054   5.388
 3907SOL    HW223753   2.864   8.044   5.427
 3908SOL     OW23754   5.840   8.442   1.429
 3908SOL    HW123755   5.897   8.368   1.394
 3908SOL    HW223756   5.861   8.456   1.526
 3909SOL     OW23757   7.293   6.070   6.624
 3909SOL    HW123758   7.272   6.128   6.703
 3909SOL    HW223759   7.309   6.128   6.544
 3910SOL     OW23760   6.921   1.289   1.254
 3910SOL    HW123761   6.979   1.258   1.329
 3910SOL    HW223762   6.885   1.380   1.275
 3911SOL     OW23763   6.806   0.131   0.990
 3911SOL    HW123764   6.903   0.148   1.009
 3911SOL    HW223765   6.790   0.033   0.979
 3912SOL     OW23766   0.768   0.827   6.264
 3912SOL    HW123767   0.768   0.811   6.166
 3912SOL    HW223768   0.841   0.892   6.287
 3913SOL     OW23769   4.675   4.378   5.755
 3913SOL    HW123770   4.609   4.453   5.749
 3913SOL    HW223771   4.636   4.303   5.808
 3914SOL     OW23772   3.213   7.967   0.835
 3914SOL    HW123773   3.133   7.915   0.867
 3914SOL    HW223774   3.182   8.047   0.784
 3915SOL     OW23775   2.094   5.936   5.772
 3915SOL    HW123776   2.007   5.980   5.797
 3915SOL    HW223777   2.112   5.861   5.835
 3916SOL     OW23778   4.659   0.543   0.025
 3916SOL    HW123779   4.688   0.485   0.101
 3916SOL    HW223780   4.610   0.623   0.060
 3917SOL     OW23781   1.414   4.352   1.284
 3917SOL    HW123782   1.437   4.447   1.305
 3917SOL    HW223783   1.494   4.294   1.302
 3918SOL     OW23784   6.710   5.585   6.431
 3918SOL    HW123785   6.628   5.635   6.400
 3918SOL    HW223786   6.786   5.649   6.441
 3919SOL     OW23787   3.560   0.561   1.062
 3919SOL    HW123788   3.477   0.587   1.013
 3919SOL    HW223789   3.629   0.531   0.996
 3920SOL     OW23790   1.427   6.999   5.860
 3920SOL    HW123791   1.376   6.948   5.791
 3920SOL    HW223792   1.372   7.006   5.943
 3921SOL     OW23793   4.616   0.144   6.670
 3921SOL    HW123794   4.544   0.213   6.680
 3921SOL    HW223795   4.577   0.059   6.636
 3922SOL     OW23796   4.454   0.392   6.649
 3922SOL    HW123797   4.525   0.456   6.679
 3922SOL    HW223798   4.469   0.369   6.552
 3923SOL     OW23799   6.123   8.326   5.082
 3923SOL    HW123800   6.131   8.229   5.057
 3923SOL    HW223801   6.088   8.377   5.003
 3924SOL     OW23802   8.578   0.062   5.671
 3924SOL    HW123803   8.514   0.130   5.706
 3924SOL    HW223804   8.649   0.045   5.739
 3925SOL     OW23805   2.394   2.753   5.802
 3925SOL    HW123806   2.419   2.833   5.748
 3925SOL    HW223807   2.358   2.783   5.891
 3926SOL     OW23808   4.385   6.292   1.729
 3926SOL    HW123809   4.396   6.195   1.709
 3926SOL    HW223810   4.358   6.304   1.825
 3927SOL     OW23811   8.739   2.040   5.915
 3927SOL    HW123812   8.706   1.951   5.886
 3927SOL    HW223813   8.750   2.042   6.015
 3928SOL     OW23814   6.174   0.658   1.198
 3928SOL    HW123815   6.270   0.644   1.174
 3928SOL    HW223816   6.168   0.681   1.295
 3929SOL     OW23817   8.821   7.722   6.271
 3929SOL    HW123818   8.741   7.747   6.216
 3929SOL    HW223819   8.799   7.642   6.327
 3930SOL     OW23820   5.012   3.262   5.771
 3930SOL    HW123821   4.942   3.285   5.703
 3930SOL    HW223822   5.075   3.338   5.782
 3931SOL     OW23823   5.437   6.343   0.608
 3931SOL    HW123824   5.473   6.343   0.515
 3931SOL    HW223825   5.380   6.262   0.622
 3932SOL     OW23826   2.459   4.387   6.299
 3932SOL    HW123827   2.378   4.393   6.241
 3932SOL    HW223828   2.528   4.453   6.268
 3933SOL     OW23829   0.723   3.357   6.506
 3933SOL    HW123830   0.753   3.367   6.601
 3933SOL    HW223831   0.626   3.336   6.503
 3934SOL     OW23832   0.388   2.561   0.762
 3934SOL    HW123833   0.483   2.531   0.763
 3934SOL    HW223834   0.384   2.661   0.755
 3935SOL     OW23835   7.198   6.442   1.066
 3935SOL    HW123836   7.209   6.508   0.991
 3935SOL    HW223837   7.105   6.448   1.101
 3936SOL     OW23838   3.178   5.673   0.222
 3936SOL    HW123839   3.198   5.770   0.233
 3936SOL    HW223840   3.130   5.659   0.135
 3937SOL     OW23841   6.100   6.976   6.409
 3937SOL    HW123842   6.038   6.902   6.381
 3937SOL    HW223843   6.115   6.971   6.507
 3938SOL     OW23844   0.693   3.613   0.721
 3938SOL    HW123845   0.667   3.583   0.813
 3938SOL    HW223846   0.727   3.535   0.669
 3939SOL     OW23847   1.890   7.295   0.642
 3939SOL    HW123848   1.805   7.243   0.633
 3939SOL    HW223849   1.872   7.381   0.689
 3940SOL     OW23850   3.640   5.450   6.222
 3940SOL    HW123851   3.559   5.508   6.234
 3940SOL    HW223852   3.616   5.371   6.165
 3941SOL     OW23853   2.330   0.327   5.306
 3941SOL    HW123854   2.274   0.314   5.224
 3941SOL    HW223855   2.416   0.371   5.280
 3942SOL     OW23856   1.978   7.998   6.004
 3942SOL    HW123857   2.052   8.054   6.039
 3942SOL    HW223858   1.890   8.042   6.025
 3943SOL     OW23859   8.304   3.474   0.035
 3943SOL    HW123860   8.303   3.542  -0.038
 3943SOL    HW223861   8.298   3.383  -0.005
 3944SOL     OW23862   6.002   3.191   6.616
 3944SOL    HW123863   6.008   3.137   6.532
 3944SOL    HW223864   6.088   3.240   6.631
 3945SOL     OW23865   1.463   2.754   5.813
 3945SOL    HW123866   1.485   2.852   5.817
 3945SOL    HW223867   1.391   2.739   5.745
 3946SOL     OW23868   4.001   2.412   0.987
 3946SOL    HW123869   3.903   2.433   0.987
 3946SOL    HW223870   4.040   2.435   1.077
 3947SOL     OW23871   2.030   1.423   1.689
 3947SOL    HW123872   2.088   1.465   1.619
 3947SOL    HW223873   2.015   1.488   1.764
 3948SOL     OW23874   6.008   0.067   6.459
 3948SOL    HW123875   6.106   0.074   6.438
 3948SOL    HW223876   5.967   0.158   6.455
 3949SOL     OW23877   5.570   6.268   5.475
 3949SOL    HW123878   5.661   6.298   5.447
 3949SOL    HW223879   5.543   6.190   5.419
 3950SOL     OW23880   4.842   0.960   6.651
 3950SOL    HW123881   4.870   0.961   6.555
 3950SOL    HW223882   4.897   0.893   6.701
 3951SOL     OW23883   6.674   6.290   5.657
 3951SOL    HW123884   6.600   6.284   5.589
 3951SOL    HW223885   6.737   6.363   5.630
 3952SOL     OW23886   1.082   0.421   4.914
 3952SOL    HW123887   1.008   0.455   4.856
 3952SOL    HW223888   1.158   0.391   4.857
 3953SOL     OW23889   2.483   0.385   0.219
 3953SOL    HW123890   2.491   0.484   0.207
 3953SOL    HW223891   2.428   0.366   0.301
 3954SOL     OW23892   2.097   4.347   6.397
 3954SOL    HW123893   2.145   4.365   6.311
 3954SOL    HW223894   2.006   4.311   6.376
 3955SOL     OW23895   7.924   6.461   0.106
 3955SOL    HW123896   7.998   6.521   0.074
 3955SOL    HW223897   7.952   6.366   0.094
 3956SOL     OW23898   3.248   6.537   1.056
 3956SOL    HW123899   3.163   6.530   1.109
 3956SOL    HW223900   3.321   6.488   1.103
 3957SOL     OW23901   1.973   3.481   1.297
 3957SOL    HW123902   1.993   3.443   1.388
 3957SOL    HW223903   1.908   3.422   1.250
 3958SOL     OW23904   2.827   3.877   5.208
 3958SOL    HW123905   2.787   3.789   5.183
 3958SOL    HW223906   2.907   3.861   5.266
 3959SOL     OW23907   8.028   6.872   1.026
 3959SOL    HW123908   8.044   6.787   0.976
 3959SOL    HW223909   8.048   6.949   0.965
 3960SOL     OW23910   2.899   1.231   1.503
 3960SOL    HW123911   2.936   1.247   1.412
 3960SOL    HW223912   2.955   1.163   1.551
 3961SOL     OW23913   0.538   1.674   5.947
 3961SOL    HW123914   0.585   1.725   6.019
 3961SOL    HW223915   0.471   1.734   5.902
 3962SOL     OW23916   1.322   2.167   5.633
 3962SOL    HW123917   1.365   2.238   5.577
 3962SOL    HW223918   1.368   2.164   5.722
 3963SOL     OW23919   3.875   2.106   0.185
 3963SOL    HW123920   3.861   2.062   0.274
 3963SOL    HW223921   3.807   2.178   0.173
 3964SOL     OW23922   5.757   6.603   6.617
 3964SOL    HW123923   5.683   6.596   6.550
 3964SOL    HW223924   5.733   6.551   6.698
 3965SOL     OW23925   1.174   3.992   6.591
 3965SOL    HW123926   1.243   3.961   6.525
 3965SOL    HW223927   1.101   4.040   6.542
 3966SOL     OW23928   0.318   0.716   1.126
 3966SOL    HW123929   0.319   0.796   1.186
 3966SOL    HW223930   0.244   0.655   1.154
 3967SOL     OW23931   3.930   3.226   0.590
 3967SOL    HW123932   4.017   3.261   0.554
 3967SOL    HW223933   3.865   3.301   0.597
 3968SOL     OW23934   6.389   4.993   0.489
 3968SOL    HW123935   6.351   5.082   0.465
 3968SOL    HW223936   6.317   4.923   0.485
 3969SOL     OW23937   9.253   6.155   5.830
 3969SOL    HW123938   9.203   6.132   5.913
 3969SOL    HW223939   9.229   6.247   5.801
 3970SOL     OW23940   7.227   5.777   1.429
 3970SOL    HW123941   7.174   5.703   1.470
 3970SOL    HW223942   7.205   5.784   1.331
 3971SOL     OW23943   8.454   8.377   5.266
 3971SOL    HW123944   8.529   8.312   5.250
 3971SOL    HW223945   8.469   8.459   5.212
 3972SOL     OW23946   2.809   2.168   6.528
 3972SOL    HW123947   2.751   2.226   6.584
 3972SOL    HW223948   2.783   2.072   6.542
 3973SOL     OW23949   7.119   8.454   6.368
 3973SOL    HW123950   7.123   8.431   6.465
 3973SOL    HW223951   7.191   8.521   6.347
 3974SOL     OW23952   0.473   8.064   0.192
 3974SOL    HW123953   0.396   8.005   0.218
 3974SOL    HW223954   0.466   8.087   0.095
 3975SOL     OW23955   3.354   6.181   0.547
 3975SOL    HW123956   3.434   6.199   0.490
 3975SOL    HW223957   3.278   6.151   0.490
 3976SOL     OW23958   3.798   0.994   0.725
 3976SOL    HW123959   3.736   0.923   0.759
 3976SOL    HW223960   3.883   0.952   0.695
 3977SOL     OW23961   8.837   0.105   6.406
 3977SOL    HW123962   8.777   0.030   6.433
 3977SOL    HW223963   8.826   0.123   6.309
 3978SOL     OW23964   6.441   4.823   5.750
 3978SOL    HW123965   6.463   4.920   5.744
 3978SOL    HW223966   6.489   4.773   5.678
 3979SOL     OW23967   3.780   3.346   0.933
 3979SOL    HW123968   3.739   3.277   0.991
 3979SOL    HW223969   3.710   3.387   0.874
 3980SOL     OW23970   1.372   2.362   0.628
 3980SOL    HW123971   1.433   2.396   0.700
 3980SOL    HW223972   1.365   2.262   0.634
 3981SOL     OW23973   5.800   4.015   0.229
 3981SOL    HW123974   5.740   3.970   0.163
 3981SOL    HW223975   5.864   4.074   0.180
 3982SOL     OW23976   9.374   1.541   5.659
 3982SOL    HW123977   9.423   1.537   5.572
 3982SOL    HW223978   9.355   1.448   5.690
 3983SOL     OW23979   0.397   3.906   0.012
 3983SOL    HW123980   0.459   3.858  -0.050
 3983SOL    HW223981   0.398   3.861   0.101
 3984SOL     OW23982   4.971   5.220   0.414
 3984SOL    HW123983   4.919   5.288   0.466
 3984SOL    HW223984   4.928   5.130   0.425
 3985SOL     OW23985   2.264   2.822   6.044
 3985SOL    HW123986   2.283   2.905   6.097
 3985SOL    HW223987   2.275   2.742   6.102
 3986SOL     OW23988   4.561   5.822   0.941
 3986SOL    HW123989   4.513   5.910   0.931
 3986SOL    HW223990   4.563   5.797   1.038
 3987SOL     OW23991   3.042   0.426   1.878
 3987SOL    HW123992   3.037   0.488   1.956
 3987SOL    HW223993   2.963   0.440   1.819
 3988SOL     OW23994   5.697   1.355   5.965
 3988SOL    HW123995   5.692   1.282   6.033
 3988SOL    HW223996   5.742   1.322   5.882
 3989SOL     OW23997   7.714   0.968   0.716
 3989SOL    HW123998   7.739   0.920   0.800
 3989SOL    HW223999   7.623   1.009   0.727
 3990SOL     OW24000   5.135   0.006   0.032
 3990SOL    HW124001   5.231  -0.012   0.055
 3990SOL    HW224002   5.125   0.009  -0.068
 3991SOL     OW24003   5.854   8.438   5.947
 3991SOL    HW124004   5.921   8.500   5.988
 3991SOL    HW224005   5.775   8.430   6.007
 3992SOL     OW24006   6.824   3.581   1.361
 3992SOL    HW124007   6.868   3.512   1.419
 3992SOL    HW224008   6.856   3.672   1.389
 3993SOL     OW24009   4.948   8.354   1.996
 3993SOL    HW124010   4.875   8.356   2.064
 3993SOL    HW224011   5.024   8.297   2.029
 3994SOL     OW24012   7.968   7.740   5.730
 3994SOL    HW124013   8.003   7.684   5.655
 3994SOL    HW224014   8.041   7.757   5.796
 3995SOL     OW24015   1.623   6.380   5.523
 3995SOL    HW124016   1.580   6.471   5.526
 3995SOL    HW224017   1.554   6.311   5.502
 3996SOL     OW24018   6.779   2.989   5.620
 3996SOL    HW124019   6.799   2.928   5.543
 3996SOL    HW224020   6.787   3.084   5.591
 3997SOL     OW24021   1.310   6.909   5.579
 3997SOL    HW124022   1.313   7.008   5.562
 3997SOL    HW224023   1.280   6.862   5.496
 3998SOL     OW24024   4.794   0.356   4.991
 3998SOL    HW124025   4.865   0.288   4.973
 3998SOL    HW224026   4.785   0.417   4.912
 3999SOL     OW24027   6.536   1.124   1.465
 3999SOL    HW124028   6.471   1.064   1.418
 3999SOL    HW224029   6.606   1.154   1.400
 4000SOL     OW24030   0.657   4.215   5.171
 4000SOL    HW124031   0.633   4.122   5.142
 4000SOL    HW224032   0.716   4.258   5.102
 4001SOL     OW24033   7.103   6.800   5.716
 4001SOL    HW124034   7.171   6.868   5.744
 4001SOL    HW224035   7.060   6.829   5.631
 4002SOL     OW24036   3.571   1.496   1.484
 4002SOL    HW124037   3.573   1.478   1.583
 4002SOL    HW224038   3.611   1.586   1.467
 4003SOL     OW24039   8.091   6.650   0.023
 4003SOL    HW124040   8.154   6.650  -0.055
 4003SOL    HW224041   8.012   6.707   0.003
 4004SOL     OW24042   1.955   2.013   6.026
 4004SOL    HW124043   1.885   1.945   6.049
 4004SOL    HW224044   1.985   2.060   6.109
 4005SOL     OW24045   3.844   6.773   6.572
 4005SOL    HW124046   3.748   6.767   6.597
 4005SOL    HW224047   3.896   6.703   6.621
 4006SOL     OW24048   6.456   5.241   0.827
 4006SOL    HW124049   6.417   5.327   0.794
 4006SOL    HW224050   6.433   5.229   0.923
 4007SOL     OW24051   3.732   3.248   6.270
 4007SOL    HW124052   3.815   3.199   6.292
 4007SOL    HW224053   3.711   3.237   6.173
 4008SOL     OW24054   3.691   7.637   5.193
 4008SOL    HW124055   3.606   7.586   5.180
 4008SOL    HW224056   3.768   7.584   5.158
 4009SOL     OW24057   3.476   5.880   5.411
 4009SOL    HW124058   3.546   5.951   5.417
 4009SOL    HW224059   3.421   5.894   5.328
 4010SOL     OW24060   8.139   1.364   5.981
 4010SOL    HW124061   8.235   1.359   6.006
 4010SOL    HW224062   8.097   1.273   5.991
 4011SOL     OW24063   2.285   7.952   6.641
 4011SOL    HW124064   2.219   7.975   6.569
 4011SOL    HW224065   2.293   8.029   6.704
 4012SOL     OW24066   2.997   8.177   1.568
 4012SOL    HW124067   3.043   8.199   1.654
 4012SOL    HW224068   2.949   8.258   1.534
 4013SOL     OW24069   2.772   8.493   1.140
 4013SOL    HW124070   2.740   8.587   1.130
 4013SOL    HW224071   2.820   8.484   1.228
 4014SOL     OW24072   3.113   3.907   6.495
 4014SOL    HW124073   3.054   3.984   6.519
 4014SOL    HW224074   3.101   3.885   6.398
 4015SOL     OW24075   1.903   3.702   6.710
 4015SOL    HW124076   1.830   3.677   6.647
 4015SOL    HW224077   1.868   3.765   6.779
 4016SOL     OW24078   6.367   0.507   6.486
 4016SOL    HW124079   6.346   0.456   6.570
 4016SOL    HW224080   6.400   0.443   6.416
 4017SOL     OW24081   5.472   5.089   5.888
 4017SOL    HW124082   5.457   5.115   5.793
 4017SOL    HW224083   5.530   5.008   5.892
 4018SOL     OW24084   1.159   4.461   6.633
 4018SOL    HW124085   1.062   4.486   6.633
 4018SOL    HW224086   1.168   4.362   6.642
 4019SOL     OW24087   5.895   5.864   5.886
 4019SOL    HW124088   5.847   5.843   5.971
 4019SOL    HW224089   5.994   5.851   5.899
 4020SOL     OW24090   8.682   1.437   0.155
 4020SOL    HW124091   8.754   1.506   0.166
 4020SOL    HW224092   8.596   1.472   0.192
 4021SOL     OW24093   5.702   6.141   5.884
 4021SOL    HW124094   5.623   6.170   5.829
 4021SOL    HW224095   5.673   6.070   5.948
 4022SOL     OW24096   0.950   1.617   0.744
 4022SOL    HW124097   0.981   1.526   0.774
 4022SOL    HW224098   0.900   1.608   0.658
 4023SOL     OW24099   8.909   1.151   5.753
 4023SOL    HW124100   8.913   1.246   5.784
 4023SOL    HW224101   9.001   1.112   5.754
 4024SOL     OW24102   9.210   2.008   0.647
 4024SOL    HW124103   9.235   2.096   0.686
 4024SOL    HW224104   9.155   1.957   0.713
 4025SOL     OW24105   7.792   3.609   0.066
 4025SOL    HW124106   7.860   3.681   0.076
 4025SOL    HW224107   7.720   3.621   0.134
 4026SOL     OW24108   2.196   0.488   5.893
 4026SOL    HW124109   2.191   0.562   5.827
 4026SOL    HW224110   2.149   0.514   5.978
 4027SOL     OW24111   1.055   7.843   6.718
 4027SOL    HW124112   1.106   7.766   6.680
 4027SOL    HW224113   1.051   7.834   6.817
 4028SOL     OW24114   8.729   6.998   0.857
 4028SOL    HW124115   8.741   7.042   0.947
 4028SOL    HW224116   8.648   7.037   0.813
 4029SOL     OW24117   1.685   8.163   6.321
 4029SOL    HW124118   1.716   8.240   6.377
 4029SOL    HW224119   1.699   8.078   6.373
 4030SOL     OW24120   2.992   0.112   6.345
 4030SOL    HW124121   3.071   0.173   6.339
 4030SOL    HW224122   2.908   0.166   6.335
 4031SOL     OW24123   1.429   7.278   5.850
 4031SOL    HW124124   1.442   7.179   5.856
 4031SOL    HW224125   1.398   7.302   5.758
 4032SOL     OW24126   0.353   2.834   0.756
 4032SOL    HW124127   0.317   2.850   0.848
 4032SOL    HW224128   0.350   2.919   0.703
 4033SOL     OW24129   1.673   1.491   1.343
 4033SOL    HW124130   1.575   1.477   1.355
 4033SOL    HW224131   1.718   1.489   1.433
 4034SOL     OW24132   6.599   4.770   0.097
 4034SOL    HW124133   6.662   4.742   0.024
 4034SOL    HW224134   6.622   4.863   0.127
 4035SOL     OW24135   6.452   2.206   5.830
 4035SOL    HW124136   6.422   2.169   5.742
 4035SOL    HW224137   6.464   2.305   5.822
 4036SOL     OW24138   1.733   2.670   5.697
 4036SOL    HW124139   1.655   2.654   5.758
 4036SOL    HW224140   1.700   2.702   5.609
 4037SOL     OW24141   7.476   3.258   0.052
 4037SOL    HW124142   7.398   3.294   0.104
 4037SOL    HW224143   7.444   3.221  -0.035
 4038SOL     OW24144   8.619   3.407   6.682
 4038SOL    HW124145   8.560   3.419   6.602
 4038SOL    HW224146   8.715   3.410   6.653
 4039SOL     OW24147   1.284   6.612   0.562
 4039SOL    HW124148   1.365   6.553   0.567
 4039SOL    HW224149   1.305   6.692   0.505
 4040SOL     OW24150   7.266   5.030   4.961
 4040SOL    HW124151   7.217   4.943   4.952
 4040SOL    HW224152   7.363   5.016   4.938
 4041SOL     OW24153   1.177   5.833   4.547
 4041SOL    HW124154   1.243   5.856   4.475
 4041SOL    HW224155   1.152   5.737   4.538
 4042SOL     OW24156   2.750   6.132   6.443
 4042SOL    HW124157   2.677   6.079   6.486
 4042SOL    HW224158   2.710   6.210   6.395
 4043SOL     OW24159   8.860   6.379   6.441
 4043SOL    HW124160   8.805   6.319   6.499
 4043SOL    HW224161   8.838   6.475   6.462
 4044SOL     OW24162   4.863   7.204   5.246
 4044SOL    HW124163   4.836   7.108   5.255
 4044SOL    HW224164   4.963   7.209   5.236
 4045SOL     OW24165   5.759   5.860   6.376
 4045SOL    HW124166   5.687   5.861   6.445
 4045SOL    HW224167   5.825   5.788   6.398
 4046SOL     OW24168   0.045   4.052   5.848
 4046SOL    HW124169   0.111   3.979   5.864
 4046SOL    HW224170   0.066   4.129   5.908
 4047SOL     OW24171   9.019   6.311   5.348
 4047SOL    HW124172   9.012   6.363   5.432
 4047SOL    HW224173   9.105   6.334   5.302
 4048SOL     OW24174   7.870   6.793   6.693
 4048SOL    HW124175   7.830   6.828   6.777
 4048SOL    HW224176   7.802   6.739   6.644
 4049SOL     OW24177   7.711   7.233   0.219
 4049SOL    HW124178   7.712   7.221   0.120
 4049SOL    HW224179   7.803   7.256   0.250
 4050SOL     OW24180   7.640   2.380   1.721
 4050SOL    HW124181   7.600   2.312   1.782
 4050SOL    HW224182   7.612   2.472   1.749
 4051SOL     OW24183   1.147   7.602   6.544
 4051SOL    HW124184   1.062   7.591   6.493
 4051SOL    HW224185   1.142   7.548   6.628
 4052SOL     OW24186   7.727   5.665   5.861
 4052SOL    HW124187   7.646   5.701   5.906
 4052SOL    HW224188   7.752   5.725   5.785
 4053SOL     OW24189   7.735   7.214   6.676
 4053SOL    HW124190   7.673   7.148   6.633
 4053SOL    HW224191   7.829   7.197   6.645
 4054SOL     OW24192   2.122   5.980   0.212
 4054SOL    HW124193   2.023   5.969   0.225
 4054SOL    HW224194   2.158   5.901   0.162
 4055SOL     OW24195   5.395   2.904   1.255
 4055SOL    HW124196   5.419   2.986   1.306
 4055SOL    HW224197   5.321   2.925   1.190
 4056SOL     OW24198   0.447   8.225   0.902
 4056SOL    HW124199   0.389   8.201   0.980
 4056SOL    HW224200   0.532   8.266   0.935
 4057SOL     OW24201   0.795   7.659   0.343
 4057SOL    HW124202   0.875   7.673   0.401
 4057SOL    HW224203   0.817   7.593   0.271
 4058SOL     OW24204   2.341   7.249   0.169
 4058SOL    HW124205   2.416   7.312   0.151
 4058SOL    HW224206   2.376   7.155   0.170
 4059SOL     OW24207   3.259   0.627   5.305
 4059SOL    HW124208   3.322   0.657   5.377
 4059SOL    HW224209   3.310   0.611   5.220
 4060SOL     OW24210   3.296   1.606   6.481
 4060SOL    HW124211   3.279   1.683   6.542
 4060SOL    HW224212   3.387   1.568   6.500
 4061SOL     OW24213   3.128   5.669   0.483
 4061SOL    HW124214   3.140   5.590   0.543
 4061SOL    HW224215   3.163   5.647   0.392
 4062SOL     OW24216   3.880   2.807   0.421
 4062SOL    HW124217   3.902   2.853   0.335
 4062SOL    HW224218   3.792   2.761   0.412
 4063SOL     OW24219   7.806   4.257   5.899
 4063SOL    HW124220   7.843   4.172   5.937
 4063SOL    HW224221   7.852   4.335   5.941
 4064SOL     OW24222   4.208   2.468   5.688
 4064SOL    HW124223   4.143   2.523   5.740
 4064SOL    HW224224   4.183   2.469   5.591
 4065SOL     OW24225   2.797   5.485   0.276
 4065SOL    HW124226   2.774   5.474   0.372
 4065SOL    HW224227   2.838   5.575   0.262
 4066SOL     OW24228   8.234   0.367   0.217
 4066SOL    HW124229   8.157   0.401   0.162
 4066SOL    HW224230   8.199   0.313   0.293
 4067SOL     OW24231   3.030   7.261   0.809
 4067SOL    HW124232   2.993   7.286   0.899
 4067SOL    HW224233   2.994   7.172   0.781
 4068SOL     OW24234   2.955   3.802   0.962
 4068SOL    HW124235   2.927   3.872   1.027
 4068SOL    HW224236   3.026   3.744   1.003
 4069SOL     OW24237   6.512   3.937   5.590
 4069SOL    HW124238   6.556   3.973   5.508
 4069SOL    HW224239   6.537   3.841   5.603
 4070SOL     OW24240   7.579   7.620   5.997
 4070SOL    HW124241   7.553   7.524   6.006
 4070SOL    HW224242   7.519   7.666   5.931
 4071SOL     OW24243   3.718   3.427   6.490
 4071SOL    HW124244   3.732   3.374   6.406
 4071SOL    HW224245   3.640   3.389   6.539
 4072SOL     OW24246   8.155   6.255   5.982
 4072SOL    HW124247   8.103   6.252   6.067
 4072SOL    HW224248   8.239   6.307   5.996
 4073SOL     OW24249   2.273   3.109   5.833
 4073SOL    HW124250   2.173   3.097   5.831
 4073SOL    HW224251   2.295   3.203   5.809
 4074SOL     OW24252   6.528   0.958   5.961
 4074SOL    HW124253   6.487   0.927   5.875
 4074SOL    HW224254   6.625   0.977   5.946
 4075SOL     OW24255   2.047   2.371   5.373
 4075SOL    HW124256   2.088   2.290   5.333
 4075SOL    HW224257   2.020   2.352   5.467
 4076SOL     OW24258   5.046   1.075   0.223
 4076SOL    HW124259   4.974   1.134   0.259
 4076SOL    HW224260   5.026   0.979   0.246
 4077SOL     OW24261   0.162   5.089   5.512
 4077SOL    HW124262   0.074   5.047   5.533
 4077SOL    HW224263   0.177   5.086   5.413
 4078SOL     OW24264   8.560   3.133   5.058
 4078SOL    HW124265   8.553   3.220   5.106
 4078SOL    HW224266   8.477   3.117   5.004
 4079SOL     OW24267   6.784   1.211   0.483
 4079SOL    HW124268   6.807   1.170   0.395
 4079SOL    HW224269   6.694   1.178   0.513
 4080SOL     OW24270   4.855   3.186   0.661
 4080SOL    HW124271   4.886   3.092   0.648
 4080SOL    HW224272   4.856   3.209   0.758
 4081SOL     OW24273   9.306   0.814   0.256
 4081SOL    HW124274   9.268   0.800   0.348
 4081SOL    HW224275   9.403   0.791   0.256
 4082SOL     OW24276   5.116   6.314   6.679
 4082SOL    HW124277   5.056   6.394   6.676
 4082SOL    HW224278   5.175   6.320   6.759
 4083SOL     OW24279   8.548   3.237   5.994
 4083SOL    HW124280   8.509   3.283   6.074
 4083SOL    HW224281   8.586   3.149   6.020
 4084SOL     OW24282   3.045   1.731   1.100
 4084SOL    HW124283   3.142   1.724   1.124
 4084SOL    HW224284   2.989   1.718   1.182
 4085SOL     OW24285   0.966   7.816   5.200
 4085SOL    HW124286   0.878   7.771   5.179
 4085SOL    HW224287   0.965   7.909   5.163
 4086SOL     OW24288   6.703   4.502   5.433
 4086SOL    HW124289   6.668   4.579   5.486
 4086SOL    HW224290   6.803   4.498   5.443
 4087SOL     OW24291   4.613   2.997   6.180
 4087SOL    HW124292   4.695   2.949   6.148
 4087SOL    HW224293   4.639   3.064   6.250
 4088SOL     OW24294   5.478   6.273   5.729
 4088SOL    HW124295   5.406   6.333   5.764
 4088SOL    HW224296   5.496   6.294   5.633
 4089SOL     OW24297   8.430   0.857   0.232
 4089SOL    HW124298   8.474   0.784   0.283
 4089SOL    HW224299   8.498   0.908   0.179
 4090SOL     OW24300   5.910   0.840   0.521
 4090SOL    HW124301   5.878   0.875   0.609
 4090SOL    HW224302   5.865   0.890   0.447
 4091SOL     OW24303   8.069   7.096   0.836
 4091SOL    HW124304   8.118   7.183   0.839
 4091SOL    HW224305   8.119   7.032   0.778
 4092SOL     OW24306   7.735   2.502   0.500
 4092SOL    HW124307   7.693   2.496   0.410
 4092SOL    HW224308   7.767   2.596   0.516
 4093SOL     OW24309   8.944   7.236   6.641
 4093SOL    HW124310   8.971   7.176   6.716
 4093SOL    HW224311   9.024   7.256   6.584
 4094SOL     OW24312   0.829   4.850   6.039
 4094SOL    HW124313   0.747   4.905   6.021
 4094SOL    HW224314   0.852   4.798   5.956
 4095SOL     OW24315   8.587   6.766   0.951
 4095SOL    HW124316   8.620   6.728   1.037
 4095SOL    HW224317   8.637   6.850   0.930
 4096SOL     OW24318   1.494   3.793   5.739
 4096SOL    HW124319   1.525   3.816   5.647
 4096SOL    HW224320   1.433   3.865   5.773
 4097SOL     OW24321   6.910   0.506   6.157
 4097SOL    HW124322   6.928   0.604   6.163
 4097SOL    HW224323   6.984   0.463   6.105
 4098SOL     OW24324   1.384   1.516   0.186
 4098SOL    HW124325   1.448   1.589   0.162
 4098SOL    HW224326   1.298   1.557   0.216
 4099SOL     OW24327   0.015   0.114   4.729
 4099SOL    HW124328   0.049   0.108   4.635
 4099SOL    HW224329  -0.032   0.201   4.742
 4100SOL     OW24330   1.680   8.093   1.068
 4100SOL    HW124331   1.779   8.094   1.081
 4100SOL    HW224332   1.659   8.129   0.978
 4101SOL     OW24333   0.973   2.519   0.965
 4101SOL    HW124334   0.888   2.571   0.977
 4101SOL    HW224335   0.981   2.490   0.869
 4102SOL     OW24336   6.142   3.824   0.214
 4102SOL    HW124337   6.099   3.914   0.201
 4102SOL    HW224338   6.120   3.765   0.137
 4103SOL     OW24339   8.900   1.633   0.192
 4103SOL    HW124340   8.870   1.697   0.121
 4103SOL    HW224341   8.923   1.684   0.274
 4104SOL     OW24342   5.536   4.903   6.730
 4104SOL    HW124343   5.499   4.991   6.762
 4104SOL    HW224344   5.553   4.844   6.809
 4105SOL     OW24345   8.047   6.953   6.560
 4105SOL    HW124346   8.011   7.046   6.553
 4105SOL    HW224347   7.983   6.896   6.611
 4106SOL     OW24348   3.999   4.803   0.599
 4106SOL    HW124349   3.986   4.899   0.575
 4106SOL    HW224350   3.944   4.782   0.681
 4107SOL     OW24351   0.485   0.484   5.223
 4107SOL    HW124352   0.460   0.490   5.126
 4107SOL    HW224353   0.433   0.551   5.276
 4108SOL     OW24354   7.030   6.760   6.447
 4108SOL    HW124355   7.001   6.854   6.465
 4108SOL    HW224356   7.117   6.761   6.396
 4109SOL     OW24357   8.976   4.236   0.174
 4109SOL    HW124358   8.943   4.309   0.114
 4109SOL    HW224359   9.075   4.246   0.187
 4110SOL     OW24360   6.018   2.546   6.591
 4110SOL    HW124361   6.011   2.451   6.563
 4110SOL    HW224362   5.987   2.555   6.686
 4111SOL     OW24363   3.020   2.872   1.128
 4111SOL    HW124364   3.044   2.919   1.213
 4111SOL    HW224365   2.943   2.918   1.084
 4112SOL     OW24366   3.567   4.073   0.506
 4112SOL    HW124367   3.545   4.139   0.577
 4112SOL    HW224368   3.613   4.119   0.430
 4113SOL     OW24369   6.051   1.923   1.109
 4113SOL    HW124370   6.024   1.856   1.178
 4113SOL    HW224371   6.030   2.015   1.143
 4114SOL     OW24372   7.505   5.664   5.362
 4114SOL    HW124373   7.501   5.679   5.263
 4114SOL    HW224374   7.452   5.735   5.408
 4115SOL     OW24375   8.307   4.355   0.021
 4115SOL    HW124376   8.396   4.323   0.054
 4115SOL    HW224377   8.274   4.293  -0.050
 4116SOL     OW24378   8.910   6.050   5.420
 4116SOL    HW124379   8.858   6.000   5.351
 4116SOL    HW224380   8.965   6.121   5.376
 4117SOL     OW24381   0.738   0.745   5.948
 4117SOL    HW124382   0.818   0.686   5.958
 4117SOL    HW224383   0.722   0.765   5.852
 4118SOL     OW24384   2.840   5.752   5.030
 4118SOL    HW124385   2.815   5.758   4.934
 4118SOL    HW224386   2.837   5.657   5.060
 4119SOL     OW24387   0.112   4.088   0.129
 4119SOL    HW124388   0.185   4.079   0.061
 4119SOL    HW224389   0.136   4.161   0.193
 4120SOL     OW24390   3.297   4.722   1.778
 4120SOL    HW124391   3.319   4.637   1.826
 4120SOL    HW224392   3.294   4.798   1.843
 4121SOL     OW24393   1.970   5.200   6.592
 4121SOL    HW124394   1.986   5.178   6.496
 4121SOL    HW224395   1.934   5.293   6.600
 4122SOL     OW24396   6.100   5.036   5.719
 4122SOL    HW124397   6.191   5.015   5.755
 4122SOL    HW224398   6.107   5.060   5.622
 4123SOL     OW24399   1.771   1.341   0.406
 4123SOL    HW124400   1.673   1.341   0.387
 4123SOL    HW224401   1.788   1.304   0.497
 4124SOL     OW24402   1.933   0.668   6.264
 4124SOL    HW124403   2.007   0.712   6.214
 4124SOL    HW224404   1.935   0.569   6.246
 4125SOL     OW24405   8.281   5.386   6.391
 4125SOL    HW124406   8.374   5.420   6.382
 4125SOL    HW224407   8.234   5.393   6.303
 4126SOL     OW24408   7.551   7.607   5.207
 4126SOL    HW124409   7.492   7.683   5.177
 4126SOL    HW224410   7.635   7.607   5.153
 4127SOL     OW24411   0.342   8.145   1.723
 4127SOL    HW124412   0.316   8.049   1.709
 4127SOL    HW224413   0.393   8.154   1.808
 4128SOL     OW24414   1.852   3.487   6.095
 4128SOL    HW124415   1.820   3.413   6.155
 4128SOL    HW224416   1.932   3.456   6.044
 4129SOL     OW24417   3.333   4.691   6.562
 4129SOL    HW124418   3.319   4.746   6.479
 4129SOL    HW224419   3.299   4.742   6.641
 4130SOL     OW24420   3.578   7.543   5.947
 4130SOL    HW124421   3.598   7.611   6.018
 4130SOL    HW224422   3.652   7.477   5.942
 4131SOL     OW24423   2.754   1.558   6.467
 4131SOL    HW124424   2.704   1.509   6.396
 4131SOL    HW224425   2.748   1.507   6.553
 4132SOL     OW24426   9.176   4.507   0.249
 4132SOL    HW124427   9.204   4.462   0.164
 4132SOL    HW224428   9.084   4.546   0.237
 4133SOL     OW24429   7.508   2.956   5.707
 4133SOL    HW124430   7.566   2.900   5.765
 4133SOL    HW224431   7.538   3.052   5.713
 4134SOL     OW24432   4.311   0.649   0.934
 4134SOL    HW124433   4.308   0.570   0.995
 4134SOL    HW224434   4.260   0.630   0.851
 4135SOL     OW24435   8.966   7.035   0.081
 4135SOL    HW124436   9.045   6.994   0.126
 4135SOL    HW224437   8.905   7.074   0.151
 4136SOL     OW24438   2.112   6.324   0.727
 4136SOL    HW124439   2.117   6.363   0.635
 4136SOL    HW224440   2.121   6.225   0.722
 4137SOL     OW24441   5.739   5.839   6.114
 4137SOL    HW124442   5.652   5.881   6.090
 4137SOL    HW224443   5.743   5.824   6.213
 4138SOL     OW24444   0.527   2.038   0.865
 4138SOL    HW124445   0.513   1.985   0.949
 4138SOL    HW224446   0.625   2.055   0.852
 4139SOL     OW24447   4.564   6.836   0.854
 4139SOL    HW124448   4.492   6.797   0.911
 4139SOL    HW224449   4.524   6.875   0.771
 4140SOL     OW24450   9.061   1.394   0.233
 4140SOL    HW124451   9.027   1.481   0.196
 4140SOL    HW224452   9.006   1.319   0.197
 4141SOL     OW24453   6.553   0.696   6.455
 4141SOL    HW124454   6.480   0.629   6.464
 4141SOL    HW224455   6.524   0.784   6.494
 4142SOL     OW24456   1.438   3.245   6.724
 4142SOL    HW124457   1.404   3.249   6.630
 4142SOL    HW224458   1.467   3.152   6.744
 4143SOL     OW24459   8.442   3.788   6.289
 4143SOL    HW124460   8.463   3.817   6.382
 4143SOL    HW224461   8.422   3.867   6.232
 4144SOL     OW24462   8.068   6.777   1.281
 4144SOL    HW124463   8.031   6.839   1.350
 4144SOL    HW224464   8.041   6.808   1.190
 4145SOL     OW24465   8.388   5.839   6.701
 4145SOL    HW124466   8.390   5.938   6.715
 4145SOL    HW224467   8.359   5.794   6.785
 4146SOL     OW24468   2.428   1.156   1.174
 4146SOL    HW124469   2.417   1.063   1.138
 4146SOL    HW224470   2.351   1.213   1.145
 4147SOL     OW24471   0.811   5.209   6.530
 4147SOL    HW124472   0.850   5.170   6.446
 4147SOL    HW224473   0.885   5.226   6.596
 4148SOL     OW24474   0.947   4.399   1.226
 4148SOL    HW124475   0.883   4.332   1.263
 4148SOL    HW224476   0.951   4.478   1.287
 4149SOL     OW24477   3.215   2.747   5.592
 4149SOL    HW124478   3.231   2.699   5.506
 4149SOL    HW224479   3.195   2.843   5.573
 4150SOL     OW24480   6.501   7.609   1.986
 4150SOL    HW124481   6.562   7.684   1.960
 4150SOL    HW224482   6.555   7.529   2.011
 4151SOL     OW24483   8.769   5.304   0.167
 4151SOL    HW124484   8.680   5.280   0.130
 4151SOL    HW224485   8.766   5.302   0.267
 4152SOL     OW24486   2.108   6.826   5.670
 4152SOL    HW124487   2.175   6.894   5.639
 4152SOL    HW224488   2.155   6.745   5.703
 4153SOL     OW24489   5.543   2.367   1.949
 4153SOL    HW124490   5.611   2.427   1.991
 4153SOL    HW224491   5.582   2.323   1.868
 4154SOL     OW24492   7.324   3.538   0.535
 4154SOL    HW124493   7.345   3.625   0.492
 4154SOL    HW224494   7.342   3.544   0.633
 4155SOL     OW24495   0.575   4.551   0.465
 4155SOL    HW124496   0.632   4.607   0.525
 4155SOL    HW224497   0.481   4.549   0.500
 4156SOL     OW24498   1.461   4.830   6.695
 4156SOL    HW124499   1.559   4.806   6.699
 4156SOL    HW224500   1.444   4.888   6.616
 4157SOL     OW24501   6.882   2.916   0.877
 4157SOL    HW124502   6.886   2.961   0.788
 4157SOL    HW224503   6.941   2.963   0.941
 4158SOL     OW24504   9.369   5.672   5.018
 4158SOL    HW124505   9.452   5.621   5.042
 4158SOL    HW224506   9.316   5.621   4.951
 4159SOL     OW24507   5.407   3.311   0.078
 4159SOL    HW124508   5.499   3.285   0.105
 4159SOL    HW224509   5.385   3.401   0.116
 4160SOL     OW24510   8.488   6.360   1.341
 4160SOL    HW124511   8.447   6.433   1.396
 4160SOL    HW224512   8.576   6.391   1.304
 4161SOL     OW24513   7.125   5.650   0.033
 4161SOL    HW124514   7.067   5.728   0.057
 4161SOL    HW224515   7.101   5.571   0.089
 4162SOL     OW24516   7.401   4.045   6.293
 4162SOL    HW124517   7.365   4.018   6.203
 4162SOL    HW224518   7.446   3.966   6.336
 4163SOL     OW24519   3.761   7.226   5.326
 4163SOL    HW124520   3.809   7.248   5.241
 4163SOL    HW224521   3.750   7.309   5.381
 4164SOL     OW24522   2.850   0.249   0.885
 4164SOL    HW124523   2.900   0.164   0.870
 4164SOL    HW224524   2.914   0.320   0.916
 4165SOL     OW24525   4.951   2.371   6.032
 4165SOL    HW124526   4.960   2.429   5.951
 4165SOL    HW224527   4.864   2.389   6.077
 4166SOL     OW24528   0.548   3.708   6.618
 4166SOL    HW124529   0.485   3.630   6.627
 4166SOL    HW224530   0.628   3.680   6.565
 4167SOL     OW24531   2.250   4.070   1.152
 4167SOL    HW124532   2.271   4.090   1.057
 4167SOL    HW224533   2.328   4.096   1.210
 4168SOL     OW24534   2.320   3.016   6.193
 4168SOL    HW124535   2.402   3.072   6.197
 4168SOL    HW224536   2.241   3.074   6.174
 4169SOL     OW24537   4.957   5.949   0.567
 4169SOL    HW124538   5.056   5.946   0.580
 4169SOL    HW224539   4.911   5.945   0.656
 4170SOL     OW24540   1.585   0.078   0.950
 4170SOL    HW124541   1.680   0.094   0.977
 4170SOL    HW224542   1.532   0.049   1.030
 4171SOL     OW24543   6.948   1.516   5.458
 4171SOL    HW124544   6.879   1.448   5.481
 4171SOL    HW224545   7.039   1.475   5.464
 4172SOL     OW24546   0.991   2.395   1.482
 4172SOL    HW124547   1.020   2.483   1.520
 4172SOL    HW224548   0.941   2.343   1.552
 4173SOL     OW24549   5.829   1.577   0.933
 4173SOL    HW124550   5.763   1.522   0.985
 4173SOL    HW224551   5.883   1.517   0.874
 4174SOL     OW24552   7.943   8.088   6.196
 4174SOL    HW124553   7.958   8.085   6.295
 4174SOL    HW224554   7.856   8.133   6.177
 4175SOL     OW24555   7.732   7.570   0.402
 4175SOL    HW124556   7.652   7.583   0.461
 4175SOL    HW224557   7.800   7.514   0.449
 4176SOL     OW24558   6.696   6.434   4.680
 4176SOL    HW124559   6.613   6.445   4.625
 4176SOL    HW224560   6.724   6.338   4.679
 4177SOL     OW24561   7.543   4.214   5.848
 4177SOL    HW124562   7.632   4.224   5.894
 4177SOL    HW224563   7.529   4.118   5.825
 4178SOL     OW24564   1.075   0.497   5.202
 4178SOL    HW124565   1.037   0.429   5.266
 4178SOL    HW224566   1.082   0.456   5.111
 4179SOL     OW24567   3.810   1.410   6.251
 4179SOL    HW124568   3.741   1.373   6.189
 4179SOL    HW224569   3.894   1.430   6.200
 4180SOL     OW24570   3.793   6.620   1.040
 4180SOL    HW124571   3.718   6.655   1.096
 4180SOL    HW224572   3.808   6.523   1.061
 4181SOL     OW24573   8.471   7.062   0.721
 4181SOL    HW124574   8.531   7.033   0.646
 4181SOL    HW224575   8.402   6.992   0.737
 4182SOL     OW24576   6.118   5.748   5.614
 4182SOL    HW124577   6.070   5.669   5.654
 4182SOL    HW224578   6.162   5.800   5.687
 4183SOL     OW24579   1.788   0.332   0.773
 4183SOL    HW124580   1.773   0.257   0.837
 4183SOL    HW224581   1.763   0.303   0.681
 4184SOL     OW24582   6.300   8.087   0.101
 4184SOL    HW124583   6.362   8.015   0.131
 4184SOL    HW224584   6.318   8.171   0.152
 4185SOL     OW24585   8.914   1.251   6.523
 4185SOL    HW124586   8.847   1.242   6.597
 4185SOL    HW224587   8.983   1.179   6.532
 4186SOL     OW24588   1.811   7.753   0.131
 4186SOL    HW124589   1.735   7.725   0.072
 4186SOL    HW224590   1.786   7.836   0.181
 4187SOL     OW24591   2.578   3.728   1.263
 4187SOL    HW124592   2.483   3.759   1.278
 4187SOL    HW224593   2.618   3.701   1.350
 4188SOL     OW24594   2.956   5.494   4.818
 4188SOL    HW124595   2.915   5.433   4.886
 4188SOL    HW224596   2.885   5.552   4.778
 4189SOL     OW24597   6.509   0.036   0.408
 4189SOL    HW124598   6.423   0.051   0.359
 4189SOL    HW224599   6.502   0.070   0.501
 4190SOL     OW24600   7.412   4.883   0.077
 4190SOL    HW124601   7.508   4.909   0.080
 4190SOL    HW224602   7.380   4.863   0.170
 4191SOL     OW24603   8.108   6.997   5.187
 4191SOL    HW124604   8.171   7.068   5.155
 4191SOL    HW224605   8.060   6.957   5.109
 4192SOL     OW24606   0.815   7.433   4.073
 4192SOL    HW124607   0.862   7.520   4.059
 4192SOL    HW224608   0.872   7.372   4.128
 4193SOL     OW24609   6.206   6.381   6.587
 4193SOL    HW124610   6.289   6.417   6.632
 4193SOL    HW224611   6.199   6.283   6.604
 4194SOL     OW24612   2.060   3.402   0.836
 4194SOL    HW124613   2.110   3.484   0.808
 4194SOL    HW224614   2.103   3.321   0.795
 4195SOL     OW24615   5.271   4.829   6.307
 4195SOL    HW124616   5.368   4.828   6.282
 4195SOL    HW224617   5.239   4.735   6.319
 4196SOL     OW24618   4.919   1.762   1.743
 4196SOL    HW124619   4.978   1.713   1.806
 4196SOL    HW224620   4.853   1.816   1.794
 4197SOL     OW24621   8.838   1.829   6.524
 4197SOL    HW124622   8.778   1.749   6.516
 4197SOL    HW224623   8.915   1.820   6.461
 4198SOL     OW24624   4.641   7.759   0.122
 4198SOL    HW124625   4.701   7.679   0.122
 4198SOL    HW224626   4.559   7.740   0.067
 4199SOL     OW24627   7.516   1.428   6.222
 4199SOL    HW124628   7.609   1.392   6.227
 4199SOL    HW224629   7.504   1.498   6.292
 4200SOL     OW24630   8.735   5.287   5.172
 4200SOL    HW124631   8.783   5.237   5.100
 4200SOL    HW224632   8.693   5.369   5.134
 4201SOL     OW24633   7.578   2.772   6.343
 4201SOL    HW124634   7.578   2.727   6.433
 4201SOL    HW224635   7.486   2.767   6.304
 4202SOL     OW24636   1.321   6.642   0.865
 4202SOL    HW124637   1.297   6.623   0.770
 4202SOL    HW224638   1.388   6.575   0.896
 4203SOL     OW24639   3.134   3.005   0.468
 4203SOL    HW124640   3.138   2.991   0.567
 4203SOL    HW224641   3.213   3.059   0.439
 4204SOL     OW24642   3.938   1.730   6.579
 4204SOL    HW124643   3.985   1.758   6.496
 4204SOL    HW224644   3.949   1.799   6.650
 4205SOL     OW24645   0.423   6.899   6.182
 4205SOL    HW124646   0.477   6.983   6.188
 4205SOL    HW224647   0.336   6.912   6.229
 4206SOL     OW24648   4.169   3.293   1.702
 4206SOL    HW124649   4.151   3.359   1.628
 4206SOL    HW224650   4.236   3.226   1.671
 4207SOL     OW24651   9.157   2.903   1.720
 4207SOL    HW124652   9.201   2.991   1.735
 4207SOL    HW224653   9.061   2.908   1.749
 4208SOL     OW24654   1.581   8.073   4.152
 4208SOL    HW124655   1.518   8.151   4.146
 4208SOL    HW224656   1.585   8.041   4.247
 4209SOL     OW24657   1.566   2.989   5.495
 4209SOL    HW124658   1.581   3.076   5.541
 4209SOL    HW224659   1.519   3.004   5.408
 4210SOL     OW24660   2.696   6.611   6.235
 4210SOL    HW124661   2.746   6.692   6.206
 4210SOL    HW224662   2.671   6.620   6.331
 4211SOL     OW24663   8.195   8.331   0.051
 4211SOL    HW124664   8.176   8.245   0.003
 4211SOL    HW224665   8.159   8.326   0.144
 4212SOL     OW24666   1.564   3.815   5.451
 4212SOL    HW124667   1.615   3.796   5.367
 4212SOL    HW224668   1.492   3.747   5.463
 4213SOL     OW24669   3.714   0.141   6.653
 4213SOL    HW124670   3.642   0.171   6.716
 4213SOL    HW224671   3.794   0.110   6.706
 4214SOL     OW24672   2.388   1.701   1.371
 4214SOL    HW124673   2.296   1.739   1.379
 4214SOL    HW224674   2.451   1.756   1.426
 4215SOL     OW24675   7.215   7.860   6.549
 4215SOL    HW124676   7.207   7.886   6.453
 4215SOL    HW224677   7.124   7.842   6.587
 4216SOL     OW24678   3.009   8.157   6.475
 4216SOL    HW124679   3.020   8.132   6.379
 4216SOL    HW224680   2.949   8.237   6.481
 4217SOL     OW24681   1.464   3.466   6.383
 4217SOL    HW124682   1.440   3.521   6.303
 4217SOL    HW224683   1.409   3.383   6.384
 4218SOL     OW24684   6.330   4.469   5.728
 4218SOL    HW124685   6.412   4.451   5.782
 4218SOL    HW224686   6.301   4.564   5.741
 4219SOL     OW24687   0.683   1.900   4.985
 4219SOL    HW124688   0.698   1.815   4.935
 4219SOL    HW224689   0.739   1.973   4.944
 4220SOL     OW24690   4.452   0.201   5.245
 4220SOL    HW124691   4.520   0.154   5.190
 4220SOL    HW224692   4.364   0.154   5.237
 4221SOL     OW24693   0.297   4.693   5.301
 4221SOL    HW124694   0.281   4.673   5.205
 4221SOL    HW224695   0.390   4.726   5.314
 4222SOL     OW24696   7.626   2.762   0.754
 4222SOL    HW124697   7.625   2.738   0.851
 4222SOL    HW224698   7.719   2.753   0.718
 4223SOL     OW24699   7.339   5.469   0.268
 4223SOL    HW124700   7.364   5.550   0.322
 4223SOL    HW224701   7.392   5.469   0.183
 4224SOL     OW24702   1.026   6.146   5.787
 4224SOL    HW124703   0.979   6.234   5.795
 4224SOL    HW224704   0.975   6.077   5.838
 4225SOL     OW24705   2.960   8.494   5.337
 4225SOL    HW124706   3.014   8.425   5.289
 4225SOL    HW224707   2.888   8.449   5.390
 4226SOL     OW24708   0.628   5.878   5.054
 4226SOL    HW124709   0.665   5.842   5.139
 4226SOL    HW224710   0.703   5.913   4.997
 4227SOL     OW24711   2.185   0.152   5.526
 4227SOL    HW124712   2.165   0.089   5.451
 4227SOL    HW224713   2.282   0.173   5.528
 4228SOL     OW24714   5.185   6.412   5.662
 4228SOL    HW124715   5.193   6.418   5.762
 4228SOL    HW224716   5.093   6.440   5.635
 4229SOL     OW24717   5.431   0.580   1.499
 4229SOL    HW124718   5.441   0.645   1.574
 4229SOL    HW224719   5.517   0.573   1.449
 4230SOL     OW24720   5.044   3.975   0.704
 4230SOL    HW124721   5.037   3.878   0.680
 4230SOL    HW224722   5.080   3.984   0.797
 4231SOL     OW24723   2.387   0.232   0.798
 4231SOL    HW124724   2.308   0.191   0.843
 4231SOL    HW224725   2.360   0.318   0.754
 4232SOL     OW24726   5.162   5.733   5.346
 4232SOL    HW124727   5.204   5.823   5.361
 4232SOL    HW224728   5.110   5.734   5.261
 4233SOL     OW24729   4.707   7.809   6.513
 4233SOL    HW124730   4.744   7.773   6.427
 4233SOL    HW224731   4.758   7.892   6.538
 4234SOL     OW24732   0.935   4.954   4.659
 4234SOL    HW124733   0.984   4.890   4.720
 4234SOL    HW224734   1.001   5.016   4.616
 4235SOL     OW24735   1.860   3.307   5.798
 4235SOL    HW124736   1.921   3.381   5.768
 4235SOL    HW224737   1.800   3.341   5.870
 4236SOL     OW24738   0.015   0.276   5.704
 4236SOL    HW124739   0.095   0.228   5.739
 4236SOL    HW224740  -0.057   0.209   5.684
 4237SOL     OW24741   7.664   8.495   0.486
 4237SOL    HW124742   7.637   8.468   0.393
 4237SOL    HW224743   7.667   8.594   0.492
 4238SOL     OW24744   0.520   1.024   1.159
 4238SOL    HW124745   0.586   0.951   1.141
 4238SOL    HW224746   0.440   0.985   1.205
 4239SOL     OW24747   1.151   1.963   5.701
 4239SOL    HW124748   1.188   1.870   5.702
 4239SOL    HW224749   1.222   2.027   5.670
 4240SOL     OW24750   6.224   5.807   6.488
 4240SOL    HW124751   6.178   5.872   6.428
 4240SOL    HW224752   6.157   5.764   6.548
 4241SOL     OW24753   3.057   6.668   0.138
 4241SOL    HW124754   2.964   6.703   0.151
 4241SOL    HW224755   3.067   6.580   0.186
 4242SOL     OW24756   0.018   5.494   1.364
 4242SOL    HW124757   0.035   5.545   1.280
 4242SOL    HW224758   0.029   5.555   1.443
 4243SOL     OW24759   6.649   0.462   6.273
 4243SOL    HW124760   6.709   0.471   6.194
 4243SOL    HW224761   6.648   0.547   6.325
 4244SOL     OW24762   0.721   6.766   0.247
 4244SOL    HW124763   0.756   6.805   0.161
 4244SOL    HW224764   0.739   6.830   0.322
 4245SOL     OW24765   6.697   2.763   0.984
 4245SOL    HW124766   6.719   2.666   1.001
 4245SOL    HW224767   6.778   2.809   0.947
 4246SOL     OW24768   2.744   0.887   0.728
 4246SOL    HW124769   2.667   0.922   0.673
 4246SOL    HW224770   2.824   0.876   0.670
 4247SOL     OW24771   7.619   1.870   6.326
 4247SOL    HW124772   7.547   1.801   6.319
 4247SOL    HW224773   7.689   1.840   6.390
 4248SOL     OW24774   5.007   2.020   0.603
 4248SOL    HW124775   5.084   2.067   0.649
 4248SOL    HW224776   4.972   2.078   0.530
 4249SOL     OW24777   0.508   6.344   1.214
 4249SOL    HW124778   0.536   6.440   1.211
 4249SOL    HW224779   0.500   6.314   1.309
 4250SOL     OW24780   6.105   6.423   6.016
 4250SOL    HW124781   6.147   6.504   6.056
 4250SOL    HW224782   6.104   6.431   5.917
 4251SOL     OW24783   6.356   0.890   0.560
 4251SOL    HW124784   6.284   0.926   0.619
 4251SOL    HW224785   6.326   0.893   0.464
 4252SOL     OW24786   9.034   5.812   0.570
 4252SOL    HW124787   9.037   5.912   0.571
 4252SOL    HW224788   8.939   5.781   0.581
 4253SOL     OW24789   9.063   7.116   4.981
 4253SOL    HW124790   9.052   7.201   5.033
 4253SOL    HW224791   9.156   7.112   4.944
 4254SOL     OW24792   2.417   4.974   6.109
 4254SOL    HW124793   2.482   4.931   6.046
 4254SOL    HW224794   2.395   4.910   6.182
 4255SOL     OW24795   9.257   8.207   6.441
 4255SOL    HW124796   9.182   8.266   6.471
 4255SOL    HW224797   9.246   8.185   6.344
 4256SOL     OW24798   2.737   0.602   6.018
 4256SOL    HW124799   2.830   0.569   6.001
 4256SOL    HW224800   2.688   0.611   5.932
 4257SOL     OW24801   5.438   1.220   5.677
 4257SOL    HW124802   5.440   1.262   5.767
 4257SOL    HW224803   5.445   1.121   5.686
 4258SOL     OW24804   2.569   8.187   5.846
 4258SOL    HW124805   2.596   8.118   5.778
 4258SOL    HW224806   2.642   8.254   5.857
 4259SOL     OW24807   0.838   3.309   4.916
 4259SOL    HW124808   0.796   3.400   4.910
 4259SOL    HW224809   0.911   3.311   4.985
 4260SOL     OW24810   8.025   6.573   5.517
 4260SOL    HW124811   8.123   6.553   5.521
 4260SOL    HW224812   7.980   6.539   5.599
 4261SOL     OW24813   8.363   0.717   6.331
 4261SOL    HW124814   8.351   0.658   6.412
 4261SOL    HW224815   8.315   0.803   6.346
 4262SOL     OW24816   1.265   7.276   6.146
 4262SOL    HW124817   1.330   7.240   6.214
 4262SOL    HW224818   1.309   7.279   6.056
 4263SOL     OW24819   1.230   7.027   0.521
 4263SOL    HW124820   1.235   7.079   0.606
 4263SOL    HW224821   1.313   6.973   0.510
 4264SOL     OW24822   8.376   3.173   0.936
 4264SOL    HW124823   8.342   3.261   0.902
 4264SOL    HW224824   8.475   3.176   0.942
 4265SOL     OW24825   6.899   4.607   5.142
 4265SOL    HW124826   6.951   4.576   5.222
 4265SOL    HW224827   6.929   4.556   5.061
 4266SOL     OW24828   0.499   1.422   5.722
 4266SOL    HW124829   0.526   1.518   5.715
 4266SOL    HW224830   0.422   1.405   5.660
 4267SOL     OW24831   2.008   3.342   5.414
 4267SOL    HW124832   1.939   3.291   5.362
 4267SOL    HW224833   2.085   3.281   5.436
 4268SOL     OW24834   7.734   4.740   5.874
 4268SOL    HW124835   7.654   4.692   5.838
 4268SOL    HW224836   7.784   4.783   5.799
 4269SOL     OW24837   0.101   4.709   6.357
 4269SOL    HW124838   0.179   4.772   6.353
 4269SOL    HW224839   0.022   4.756   6.397
 4270SOL     OW24840   7.305   4.046   0.057
 4270SOL    HW124841   7.348   4.107  -0.010
 4270SOL    HW224842   7.208   4.068   0.064
 4271SOL     OW24843   3.620   2.342   5.752
 4271SOL    HW124844   3.635   2.300   5.662
 4271SOL    HW224845   3.675   2.296   5.821
 4272SOL     OW24846   3.898   0.863   6.537
 4272SOL    HW124847   3.980   0.903   6.577
 4272SOL    HW224848   3.883   0.904   6.446
 4273SOL     OW24849   2.027   4.331   5.210
 4273SOL    HW124850   2.108   4.390   5.208
 4273SOL    HW224851   1.989   4.323   5.118
 4274SOL     OW24852   8.370   0.987   1.169
 4274SOL    HW124853   8.411   0.919   1.109
 4274SOL    HW224854   8.419   1.073   1.161
 4275SOL     OW24855   5.818   8.174   0.410
 4275SOL    HW124856   5.798   8.240   0.338
 4275SOL    HW224857   5.742   8.172   0.475
 4276SOL     OW24858   3.403   6.188   1.828
 4276SOL    HW124859   3.465   6.110   1.837
 4276SOL    HW224860   3.324   6.174   1.888
 4277SOL     OW24861   6.612   7.470   5.897
 4277SOL    HW124862   6.619   7.372   5.880
 4277SOL    HW224863   6.616   7.488   5.995
 4278SOL     OW24864   5.364   8.297   5.780
 4278SOL    HW124865   5.377   8.349   5.696
 4278SOL    HW224866   5.452   8.271   5.817
 4279SOL     OW24867   4.317   0.499   0.388
 4279SOL    HW124868   4.410   0.529   0.409
 4279SOL    HW224869   4.297   0.415   0.439
 4280SOL     OW24870   2.501   0.741   1.375
 4280SOL    HW124871   2.423   0.799   1.353
 4280SOL    HW224872   2.476   0.676   1.446
 4281SOL     OW24873   3.474   0.141   0.414
 4281SOL    HW124874   3.480   0.089   0.499
 4281SOL    HW224875   3.565   0.155   0.377
 4282SOL     OW24876   6.648   1.320   6.086
 4282SOL    HW124877   6.733   1.343   6.039
 4282SOL    HW224878   6.656   1.229   6.127
 4283SOL     OW24879   6.337   5.541   0.374
 4283SOL    HW124880   6.403   5.550   0.449
 4283SOL    HW224881   6.277   5.622   0.373
 4284SOL     OW24882   7.359   3.579   0.197
 4284SOL    HW124883   7.329   3.643   0.268
 4284SOL    HW224884   7.305   3.495   0.203
 4285SOL     OW24885   4.759   5.839   5.806
 4285SOL    HW124886   4.805   5.784   5.737
 4285SOL    HW224887   4.784   5.935   5.794
 4286SOL     OW24888   9.030   4.260   6.329
 4286SOL    HW124889   9.045   4.338   6.268
 4286SOL    HW224890   8.937   4.262   6.365
 4287SOL     OW24891   3.538   1.835   0.495
 4287SOL    HW124892   3.596   1.757   0.519
 4287SOL    HW224893   3.508   1.827   0.401
 4288SOL     OW24894   3.480   0.754   6.023
 4288SOL    HW124895   3.480   0.820   6.098
 4288SOL    HW224896   3.560   0.695   6.030
 4289SOL     OW24897   5.181   5.457   1.157
 4289SOL    HW124898   5.233   5.374   1.178
 4289SOL    HW224899   5.237   5.537   1.178
 4290SOL     OW24900   2.750   4.125   5.262
 4290SOL    HW124901   2.773   4.028   5.252
 4290SOL    HW224902   2.663   4.134   5.309
 4291SOL     OW24903   0.829   5.196   5.881
 4291SOL    HW124904   0.784   5.157   5.961
 4291SOL    HW224905   0.769   5.267   5.841
 4292SOL     OW24906   0.816   0.356   6.695
 4292SOL    HW124907   0.743   0.324   6.635
 4292SOL    HW224908   0.784   0.353   6.790
 4293SOL     OW24909   8.053   3.630   1.085
 4293SOL    HW124910   8.123   3.616   1.155
 4293SOL    HW224911   7.999   3.546   1.075
 4294SOL     OW24912   8.330   7.650   6.468
 4294SOL    HW124913   8.234   7.670   6.451
 4294SOL    HW224914   8.339   7.591   6.548
 4295SOL     OW24915   6.560   6.911   1.147
 4295SOL    HW124916   6.594   6.906   1.241
 4295SOL    HW224917   6.484   6.975   1.142
 4296SOL     OW24918   9.435   7.414   0.719
 4296SOL    HW124919   9.400   7.329   0.759
 4296SOL    HW224920   9.534   7.420   0.735
 4297SOL     OW24921   1.811   2.604   0.083
 4297SOL    HW124922   1.837   2.529   0.021
 4297SOL    HW224923   1.721   2.638   0.057
 4298SOL     OW24924   4.951   6.491   5.552
 4298SOL    HW124925   4.871   6.456   5.600
 4298SOL    HW224926   4.934   6.490   5.454
 4299SOL     OW24927   5.236   6.159   5.894
 4299SOL    HW124928   5.240   6.116   5.804
 4299SOL    HW224929   5.227   6.089   5.965
 4300SOL     OW24930   0.570   0.050   1.749
 4300SOL    HW124931   0.656   0.007   1.778
 4300SOL    HW224932   0.577   0.149   1.762
 4301SOL     OW24933   6.011   0.786   6.650
 4301SOL    HW124934   6.011   0.691   6.680
 4301SOL    HW224935   6.010   0.790   6.551
 4302SOL     OW24936   6.028   3.954   0.739
 4302SOL    HW124937   6.069   3.877   0.689
 4302SOL    HW224938   5.979   4.013   0.675
 4303SOL     OW24939   3.830   7.842   6.283
 4303SOL    HW124940   3.911   7.807   6.237
 4303SOL    HW224941   3.830   7.811   6.378
 4304SOL     OW24942   6.160   8.012   0.667
 4304SOL    HW124943   6.207   7.947   0.726
 4304SOL    HW224944   6.155   7.976   0.574
 4305SOL     OW24945   8.597   6.399   6.674
 4305SOL    HW124946   8.513   6.346   6.680
 4305SOL    HW224947   8.595   6.474   6.739
 4306SOL     OW24948   5.672   4.873   0.756
 4306SOL    HW124949   5.614   4.798   0.786
 4306SOL    HW224950   5.680   4.870   0.656
 4307SOL     OW24951   4.052   1.760   6.319
 4307SOL    HW124952   4.123   1.830   6.326
 4307SOL    HW224953   4.081   1.688   6.257
 4308SOL     OW24954   1.835   1.601   0.453
 4308SOL    HW124955   1.802   1.510   0.431
 4308SOL    HW224956   1.765   1.649   0.507
 4309SOL     OW24957   8.612   5.143   6.487
 4309SOL    HW124958   8.673   5.217   6.462
 4309SOL    HW224959   8.603   5.138   6.586
 4310SOL     OW24960   9.054   3.551   5.293
 4310SOL    HW124961   8.970   3.516   5.251
 4310SOL    HW224962   9.127   3.553   5.225
 4311SOL     OW24963   4.391   6.373   5.353
 4311SOL    HW124964   4.315   6.316   5.325
 4311SOL    HW224965   4.473   6.348   5.301
 4312SOL     OW24966   7.258   3.939   1.305
 4312SOL    HW124967   7.251   3.956   1.403
 4312SOL    HW224968   7.234   4.022   1.255
 4313SOL     OW24969   6.527   0.091   6.247
 4313SOL    HW124970   6.598   0.149   6.207
 4313SOL    HW224971   6.564  -0.002   6.258
 4314SOL     OW24972   2.121   7.150   6.608
 4314SOL    HW124973   2.067   7.115   6.685
 4314SOL    HW224974   2.159   7.239   6.631
 4315SOL     OW24975   8.082   5.498   6.690
 4315SOL    HW124976   8.076   5.484   6.591
 4315SOL    HW224977   8.058   5.592   6.712
 4316SOL     OW24978   5.615   0.725   5.650
 4316SOL    HW124979   5.604   0.679   5.738
 4316SOL    HW224980   5.645   0.658   5.581
 4317SOL     OW24981   8.558   2.989   0.572
 4317SOL    HW124982   8.473   3.041   0.583
 4317SOL    HW224983   8.608   3.023   0.493
 4318SOL     OW24984   6.033   0.750   0.266
 4318SOL    HW124985   6.039   0.850   0.257
 4318SOL    HW224986   6.116   0.708   0.231
 4319SOL     OW24987   8.688   0.882   0.439
 4319SOL    HW124988   8.610   0.908   0.495
 4319SOL    HW224989   8.657   0.863   0.345
 4320SOL     OW24990   6.454   6.919   6.110
 4320SOL    HW124991   6.410   6.886   6.194
 4320SOL    HW224992   6.540   6.871   6.096
 4321SOL     OW24993   0.075   0.663   0.904
 4321SOL    HW124994   0.173   0.683   0.907
 4321SOL    HW224995   0.049   0.615   0.988
 4322SOL     OW24996   3.397   1.136   1.953
 4322SOL    HW124997   3.418   1.074   2.029
 4322SOL    HW224998   3.482   1.161   1.907
 4323SOL     OW24999   7.343   1.255   6.379
 4323SOL    HW125000   7.377   1.304   6.300
 4323SOL    HW225001   7.267   1.195   6.351
 4324SOL     OW25002   6.480   2.379   6.112
 4324SOL    HW125003   6.558   2.441   6.117
 4324SOL    HW225004   6.456   2.363   6.016
 4325SOL     OW25005   5.342   0.969   6.025
 4325SOL    HW125006   5.282   1.029   5.973
 4325SOL    HW225007   5.427   1.016   6.046
 4326SOL     OW25008   2.322   7.495   1.577
 4326SOL    HW125009   2.394   7.515   1.643
 4326SOL    HW225010   2.251   7.440   1.620
 4327SOL     OW25011   9.122   2.514   5.610
 4327SOL    HW125012   9.216   2.545   5.598
 4327SOL    HW225013   9.074   2.520   5.522
 4328SOL     OW25014   3.675   2.597   0.068
 4328SOL    HW125015   3.647   2.502   0.083
 4328SOL    HW225016   3.617   2.658   0.122
 4329SOL     OW25017   8.041   3.926   0.868
 4329SOL    HW125018   7.984   3.845   0.858
 4329SOL    HW225019   8.071   3.934   0.963
 4330SOL     OW25020   8.797   3.813   6.314
 4330SOL    HW125021   8.855   3.830   6.393
 4330SOL    HW225022   8.807   3.888   6.249
 4331SOL     OW25023   8.743   7.213   4.800
 4331SOL    HW125024   8.783   7.170   4.720
 4331SOL    HW225025   8.782   7.304   4.813
 4332SOL     OW25026   3.029   3.473   0.091
 4332SOL    HW125027   3.121   3.508   0.109
 4332SOL    HW225028   3.009   3.483  -0.007
 4333SOL     OW25029   5.769   6.012   5.214
 4333SOL    HW125030   5.683   5.986   5.259
 4333SOL    HW225031   5.749   6.062   5.130
 4334SOL     OW25032   8.376   4.455   0.706
 4334SOL    HW125033   8.382   4.379   0.641
 4334SOL    HW225034   8.467   4.490   0.725
 4335SOL     OW25035   0.416   3.075   5.638
 4335SOL    HW125036   0.364   3.135   5.577
 4335SOL    HW225037   0.403   3.104   5.732
 4336SOL     OW25038   1.024   0.942   6.615
 4336SOL    HW125039   1.050   0.846   6.601
 4336SOL    HW225040   0.947   0.946   6.678
 4337SOL     OW25041   1.925   6.446   5.982
 4337SOL    HW125042   1.869   6.527   5.962
 4337SOL    HW225043   1.981   6.424   5.902
 4338SOL     OW25044   4.777   0.491   4.745
 4338SOL    HW125045   4.844   0.450   4.683
 4338SOL    HW225046   4.788   0.591   4.743
 4339SOL     OW25047   5.705   4.786   1.078
 4339SOL    HW125048   5.632   4.790   1.146
 4339SOL    HW225049   5.665   4.778   0.987
 4340SOL     OW25050   8.775   1.983   0.673
 4340SOL    HW125051   8.794   1.997   0.576
 4340SOL    HW225052   8.730   2.065   0.710
 4341SOL     OW25053   3.748   7.724   0.711
 4341SOL    HW125054   3.682   7.654   0.680
 4341SOL    HW225055   3.706   7.778   0.784
 4342SOL     OW25056   8.656   4.480   0.673
 4342SOL    HW125057   8.737   4.465   0.616
 4342SOL    HW225058   8.637   4.398   0.727
 4343SOL     OW25059   7.351   2.527   0.409
 4343SOL    HW125060   7.405   2.566   0.334
 4343SOL    HW225061   7.353   2.589   0.487
 4344SOL     OW25062   6.605   4.782   0.792
 4344SOL    HW125063   6.635   4.704   0.847
 4344SOL    HW225064   6.658   4.785   0.707
 4345SOL     OW25065   6.137   0.791   0.793
 4345SOL    HW125066   6.087   0.770   0.709
 4345SOL    HW225067   6.161   0.888   0.795
 4346SOL     OW25068   8.441   6.672   4.731
 4346SOL    HW125069   8.531   6.707   4.705
 4346SOL    HW225070   8.374   6.745   4.725
 4347SOL     OW25071   0.846   1.724   0.991
 4347SOL    HW125072   0.750   1.752   0.993
 4347SOL    HW225073   0.872   1.699   0.898
 4348SOL     OW25074   1.966   2.326   5.654
 4348SOL    HW125075   1.925   2.268   5.724
 4348SOL    HW225076   1.980   2.418   5.691
 4349SOL     OW25077   1.634   3.312   5.950
 4349SOL    HW125078   1.644   3.311   6.049
 4349SOL    HW225079   1.565   3.380   5.924
 4350SOL     OW25080   5.432   6.529   5.234
 4350SOL    HW125081   5.504   6.469   5.199
 4350SOL    HW225082   5.360   6.539   5.165
 4351SOL     OW25083   5.031   0.191   4.980
 4351SOL    HW125084   5.122   0.179   4.939
 4351SOL    HW225085   4.964   0.138   4.929
 4352SOL     OW25086   1.558   0.155   5.799
 4352SOL    HW125087   1.604   0.204   5.725
 4352SOL    HW225088   1.618   0.148   5.878
 4353SOL     OW25089   1.677   7.543   5.363
 4353SOL    HW125090   1.695   7.640   5.379
 4353SOL    HW225091   1.598   7.533   5.303
 4354SOL     OW25092   3.447   3.022   5.308
 4354SOL    HW125093   3.489   3.065   5.387
 4354SOL    HW225094   3.347   3.029   5.315
 4355SOL     OW25095   2.813   2.327   6.062
 4355SOL    HW125096   2.790   2.230   6.073
 4355SOL    HW225097   2.744   2.383   6.107
 4356SOL     OW25098   0.656   8.185   6.055
 4356SOL    HW125099   0.740   8.146   6.095
 4356SOL    HW225100   0.646   8.152   5.961
 4357SOL     OW25101   3.742   5.201   0.843
 4357SOL    HW125102   3.753   5.105   0.818
 4357SOL    HW225103   3.646   5.226   0.841
 4358SOL     OW25104   7.293   6.767   1.156
 4358SOL    HW125105   7.281   6.788   1.253
 4358SOL    HW225106   7.362   6.696   1.145
 4359SOL     OW25107   7.424   1.361   5.570
 4359SOL    HW125108   7.332   1.333   5.543
 4359SOL    HW225109   7.425   1.459   5.588
 4360SOL     OW25110   5.521   4.881   6.213
 4360SOL    HW125111   5.608   4.924   6.236
 4360SOL    HW225112   5.494   4.908   6.121
 4361SOL     OW25113   2.982   0.103   5.862
 4361SOL    HW125114   3.014   0.093   5.767
 4361SOL    HW225115   2.907   0.168   5.865
 4362SOL     OW25116   3.130   5.278   0.523
 4362SOL    HW125117   3.155   5.356   0.580
 4362SOL    HW225118   3.130   5.194   0.577
 4363SOL     OW25119   8.252   6.944   4.650
 4363SOL    HW125120   8.186   7.018   4.641
 4363SOL    HW225121   8.214   6.860   4.612
 4364SOL     OW25122   0.686   8.201   4.567
 4364SOL    HW125123   0.630   8.119   4.557
 4364SOL    HW225124   0.641   8.277   4.520
 4365SOL     OW25125   0.560   5.101   6.458
 4365SOL    HW125126   0.477   5.155   6.451
 4365SOL    HW225127   0.637   5.160   6.484
 4366SOL     OW25128   4.485   6.940   5.770
 4366SOL    HW125129   4.410   6.897   5.720
 4366SOL    HW225130   4.453   7.027   5.809
 4367SOL     OW25131   1.834   6.059   5.844
 4367SOL    HW125132   1.821   6.144   5.793
 4367SOL    HW225133   1.744   6.024   5.874
 4368SOL     OW25134   2.947   4.031   5.523
 4368SOL    HW125135   2.942   4.045   5.622
 4368SOL    HW225136   2.992   4.109   5.481
 4369SOL     OW25137   8.592   6.899   5.127
 4369SOL    HW125138   8.684   6.862   5.113
 4369SOL    HW225139   8.567   6.957   5.050
 4370SOL     OW25140   3.998   0.223   4.781
 4370SOL    HW125141   3.918   0.237   4.723
 4370SOL    HW225142   4.077   0.200   4.724
 4371SOL     OW25143   5.224   6.192   0.761
 4371SOL    HW125144   5.145   6.249   0.783
 4371SOL    HW225145   5.303   6.222   0.815
 4372SOL     OW25146   6.155   5.752   1.609
 4372SOL    HW125147   6.175   5.850   1.610
 4372SOL    HW225148   6.113   5.725   1.695
 4373SOL     OW25149   2.639   5.250   6.528
 4373SOL    HW125150   2.598   5.306   6.456
 4373SOL    HW225151   2.730   5.287   6.550
 4374SOL     OW25152   7.163   4.891   5.833
 4374SOL    HW125153   7.182   4.981   5.874
 4374SOL    HW225154   7.206   4.820   5.888
 4375SOL     OW25155   3.515   5.243   1.583
 4375SOL    HW125156   3.421   5.245   1.618
 4375SOL    HW225157   3.573   5.190   1.644
 4376SOL     OW25158   0.930   2.920   6.423
 4376SOL    HW125159   0.831   2.907   6.432
 4376SOL    HW225160   0.971   2.835   6.390
 4377SOL     OW25161   2.379   0.641   6.664
 4377SOL    HW125162   2.289   0.675   6.690
 4377SOL    HW225163   2.438   0.639   6.745
 4378SOL     OW25164   4.237   4.489   0.273
 4378SOL    HW125165   4.213   4.566   0.213
 4378SOL    HW225166   4.259   4.409   0.217
 4379SOL     OW25167   2.899   2.636   1.061
 4379SOL    HW125168   2.814   2.639   1.114
 4379SOL    HW225169   2.955   2.716   1.084
 4380SOL     OW25170   8.172   8.070   0.863
 4380SOL    HW125171   8.217   8.086   0.951
 4380SOL    HW225172   8.085   8.022   0.877
 4381SOL     OW25173   6.576   2.121   5.390
 4381SOL    HW125174   6.656   2.150   5.337
 4381SOL    HW225175   6.548   2.030   5.360
 4382SOL     OW25176   8.149   7.248   0.018
 4382SOL    HW125177   8.207   7.329   0.008
 4382SOL    HW225178   8.171   7.202   0.104
 4383SOL     OW25179   5.683   0.433   6.185
 4383SOL    HW125180   5.680   0.498   6.260
 4383SOL    HW225181   5.641   0.347   6.214
 4384SOL     OW25182   1.530   6.639   5.818
 4384SOL    HW125183   1.597   6.567   5.836
 4384SOL    HW225184   1.469   6.648   5.896
 4385SOL     OW25185   5.976   8.157   6.150
 4385SOL    HW125186   5.927   8.209   6.080
 4385SOL    HW225187   5.983   8.213   6.233
 4386SOL     OW25188   7.647   2.781   0.446
 4386SOL    HW125189   7.691   2.870   0.431
 4386SOL    HW225190   7.638   2.765   0.544
 4387SOL     OW25191   1.322   8.045   0.821
 4387SOL    HW125192   1.272   7.965   0.855
 4387SOL    HW225193   1.372   8.088   0.896
 4388SOL     OW25194   7.280   6.533   5.607
 4388SOL    HW125195   7.319   6.625   5.621
 4388SOL    HW225196   7.214   6.514   5.679
 4389SOL     OW25197   4.041   6.455   5.306
 4389SOL    HW125198   4.020   6.468   5.209
 4389SOL    HW225199   4.099   6.374   5.316
 4390SOL     OW25200   6.358   7.125   0.365
 4390SOL    HW125201   6.406   7.181   0.433
 4390SOL    HW225202   6.424   7.093   0.297
 4391SOL     OW25203   1.352   5.432   5.421
 4391SOL    HW125204   1.331   5.452   5.517
 4391SOL    HW225205   1.353   5.518   5.369
 4392SOL     OW25206   2.550   7.393   0.132
 4392SOL    HW125207   2.586   7.424   0.219
 4392SOL    HW225208   2.587   7.303   0.111
 4393SOL     OW25209   2.756   7.221   2.052
 4393SOL    HW125210   2.738   7.269   2.138
 4393SOL    HW225211   2.727   7.278   1.975
 4394SOL     OW25212   5.095   7.115   0.119
 4394SOL    HW125213   5.085   7.213   0.104
 4394SOL    HW225214   5.172   7.080   0.065
 4395SOL     OW25215   5.852   0.855   6.181
 4395SOL    HW125216   5.869   0.949   6.212
 4395SOL    HW225217   5.894   0.841   6.092
 4396SOL     OW25218   5.079   0.072   5.244
 4396SOL    HW125219   5.167   0.118   5.235
 4396SOL    HW225220   5.010   0.121   5.190
 4397SOL     OW25221   1.306   4.794   5.508
 4397SOL    HW125222   1.368   4.801   5.586
 4397SOL    HW225223   1.314   4.703   5.467
 4398SOL     OW25224   1.651   5.949   4.921
 4398SOL    HW125225   1.637   5.851   4.912
 4398SOL    HW225226   1.701   5.983   4.842
 4399SOL     OW25227   8.360   8.289   5.501
 4399SOL    HW125228   8.414   8.291   5.585
 4399SOL    HW225229   8.405   8.346   5.432
 4400SOL     OW25230   4.329   8.348   5.713
 4400SOL    HW125231   4.255   8.335   5.646
 4400SOL    HW225232   4.384   8.428   5.687
 4401SOL     OW25233   7.141   4.788   4.958
 4401SOL    HW125234   7.211   4.731   5.000
 4401SOL    HW225235   7.084   4.732   4.897
 4402SOL     OW25236   8.160   4.595   6.357
 4402SOL    HW125237   8.182   4.501   6.333
 4402SOL    HW225238   8.097   4.596   6.435
 4403SOL     OW25239   4.450   5.428   6.578
 4403SOL    HW125240   4.481   5.362   6.647
 4403SOL    HW225241   4.519   5.434   6.505
 4404SOL     OW25242   2.314   2.245   0.599
 4404SOL    HW125243   2.380   2.171   0.607
 4404SOL    HW225244   2.225   2.213   0.632
 4405SOL     OW25245   1.925   1.566   5.771
 4405SOL    HW125246   1.858   1.494   5.789
 4405SOL    HW225247   2.015   1.525   5.761
 4406SOL     OW25248   5.549   6.311   6.051
 4406SOL    HW125249   5.513   6.394   6.008
 4406SOL    HW225250   5.642   6.294   6.020
 4407SOL     OW25251   7.274   8.255   4.848
 4407SOL    HW125252   7.323   8.168   4.858
 4407SOL    HW225253   7.183   8.247   4.889
 4408SOL     OW25254   2.306   8.461   0.077
 4408SOL    HW125255   2.233   8.467   0.009
 4408SOL    HW225256   2.268   8.477   0.168
 4409SOL     OW25257   8.165   1.239   6.375
 4409SOL    HW125258   8.162   1.196   6.466
 4409SOL    HW225259   8.086   1.208   6.322
 4410SOL     OW25260   0.762   0.513   5.263
 4410SOL    HW125261   0.668   0.497   5.235
 4410SOL    HW225262   0.769   0.604   5.306
 4411SOL     OW25263   3.726   4.289   5.954
 4411SOL    HW125264   3.814   4.291   6.002
 4411SOL    HW225265   3.718   4.202   5.905
 4412SOL     OW25266   4.321   4.518   6.207
 4412SOL    HW125267   4.266   4.509   6.124
 4412SOL    HW225268   4.264   4.556   6.280
 4413SOL     OW25269   2.550   3.088   5.868
 4413SOL    HW125270   2.574   3.001   5.912
 4413SOL    HW225271   2.455   3.085   5.837
 4414SOL     OW25272   3.578   3.122   1.618
 4414SOL    HW125273   3.637   3.057   1.571
 4414SOL    HW225274   3.556   3.088   1.709
 4415SOL     OW25275   2.954   4.832   0.809
 4415SOL    HW125276   2.977   4.779   0.727
 4415SOL    HW225277   3.002   4.794   0.888
 4416SOL     OW25278   2.069   6.306   5.525
 4416SOL    HW125279   2.158   6.265   5.505
 4416SOL    HW225280   2.070   6.403   5.500
 4417SOL     OW25281   4.834   2.145   5.929
 4417SOL    HW125282   4.888   2.226   5.952
 4417SOL    HW225283   4.814   2.093   6.013
 4418SOL     OW25284   8.660   4.003   5.983
 4418SOL    HW125285   8.670   3.935   5.910
 4418SOL    HW225286   8.571   3.993   6.026
 4419SOL     OW25287   1.831   6.269   5.656
 4419SOL    HW125288   1.783   6.329   5.592
 4419SOL    HW225289   1.923   6.251   5.621
 4420SOL     OW25290   6.090   6.360   0.822
 4420SOL    HW125291   6.021   6.404   0.765
 4420SOL    HW225292   6.063   6.266   0.841
 4421SOL     OW25293   2.821   2.065   0.768
 4421SOL    HW125294   2.919   2.048   0.758
 4421SOL    HW225295   2.806   2.158   0.801
 4422SOL     OW25296   7.894   2.467   1.994
 4422SOL    HW125297   7.829   2.476   2.069
 4422SOL    HW225298   7.987   2.476   2.029
 4423SOL     OW25299   3.095   2.933   0.761
 4423SOL    HW125300   3.016   2.994   0.757
 4423SOL    HW225301   3.092   2.879   0.845
 4424SOL     OW25302   6.109   6.422   5.728
 4424SOL    HW125303   6.169   6.437   5.649
 4424SOL    HW225304   6.053   6.340   5.713
 4425SOL     OW25305   2.221   4.400   6.155
 4425SOL    HW125306   2.174   4.475   6.108
 4425SOL    HW225307   2.198   4.313   6.110
 4426SOL     OW25308   4.300   5.473   0.738
 4426SOL    HW125309   4.210   5.478   0.781
 4426SOL    HW225310   4.293   5.425   0.650
 4427SOL     OW25311   1.860   5.268   5.584
 4427SOL    HW125312   1.817   5.292   5.498
 4427SOL    HW225313   1.890   5.172   5.582
 4428SOL     OW25314   0.748   5.739   0.708
 4428SOL    HW125315   0.821   5.692   0.758
 4428SOL    HW225316   0.673   5.760   0.770
 4429SOL     OW25317   4.385   1.128   5.958
 4429SOL    HW125318   4.404   1.167   6.048
 4429SOL    HW225319   4.397   1.028   5.961
 4430SOL     OW25320   7.304   3.426   6.491
 4430SOL    HW125321   7.211   3.398   6.512
 4430SOL    HW225322   7.305   3.482   6.408
 4431SOL     OW25323   8.461   5.999   5.478
 4431SOL    HW125324   8.365   5.997   5.504
 4431SOL    HW225325   8.481   5.922   5.417
 4432SOL     OW25326   2.585   1.256   0.272
 4432SOL    HW125327   2.506   1.308   0.303
 4432SOL    HW225328   2.664   1.278   0.329
 4433SOL     OW25329   8.802   2.759   5.073
 4433SOL    HW125330   8.897   2.746   5.100
 4433SOL    HW225331   8.766   2.675   5.034
 4434SOL     OW25332   5.392   8.440   5.542
 4434SOL    HW125333   5.293   8.446   5.530
 4434SOL    HW225334   5.437   8.513   5.491
 4435SOL     OW25335   0.198   3.710   0.453
 4435SOL    HW125336   0.113   3.763   0.455
 4435SOL    HW225337   0.212   3.667   0.542
 4436SOL     OW25338   1.475   6.775   5.207
 4436SOL    HW125339   1.505   6.686   5.241
 4436SOL    HW225340   1.531   6.801   5.128
 4437SOL     OW25341   2.313   4.444   1.503
 4437SOL    HW125342   2.334   4.524   1.447
 4437SOL    HW225343   2.384   4.374   1.490
 4438SOL     OW25344   5.379   3.248   6.383
 4438SOL    HW125345   5.356   3.314   6.312
 4438SOL    HW225346   5.295   3.205   6.416
 4439SOL     OW25347   0.932   4.707   5.812
 4439SOL    HW125348   0.941   4.649   5.731
 4439SOL    HW225349   1.016   4.761   5.824
 4440SOL     OW25350   4.258   2.182   5.242
 4440SOL    HW125351   4.343   2.196   5.191
 4440SOL    HW225352   4.278   2.175   5.339
 4441SOL     OW25353   4.898   3.059   6.231
 4441SOL    HW125354   4.971   3.016   6.179
 4441SOL    HW225355   4.927   3.150   6.261
 4442SOL     OW25356   2.325   2.111   0.930
 4442SOL    HW125357   2.411   2.113   0.980
 4442SOL    HW225358   2.307   2.201   0.890
 4443SOL     OW25359   4.196   7.676   0.509
 4443SOL    HW125360   4.210   7.600   0.573
 4443SOL    HW225361   4.273   7.739   0.516
 4444SOL     OW25362   7.464   0.777   5.570
 4444SOL    HW125363   7.401   0.824   5.508
 4444SOL    HW225364   7.557   0.811   5.554
 4445SOL     OW25365   8.391   0.297   6.510
 4445SOL    HW125366   8.292   0.312   6.500
 4445SOL    HW225367   8.407   0.210   6.556
 4446SOL     OW25368   3.023   4.853   5.905
 4446SOL    HW125369   2.972   4.920   5.960
 4446SOL    HW225370   2.964   4.821   5.830
 4447SOL     OW25371   4.827   2.220   5.657
 4447SOL    HW125372   4.843   2.174   5.745
 4447SOL    HW225373   4.871   2.310   5.659
 4448SOL     OW25374   2.067   5.932   1.008
 4448SOL    HW125375   2.007   5.855   0.985
 4448SOL    HW225376   2.148   5.898   1.055
 4449SOL     OW25377   2.228   0.502   1.131
 4449SOL    HW125378   2.210   0.529   1.226
 4449SOL    HW225379   2.233   0.584   1.074
 4450SOL     OW25380   3.396   3.310   1.245
 4450SOL    HW125381   3.438   3.304   1.336
 4450SOL    HW225382   3.414   3.226   1.195
 4451SOL     OW25383   4.828   7.693   5.950
 4451SOL    HW125384   4.865   7.777   5.991
 4451SOL    HW225385   4.881   7.615   5.982
 4452SOL     OW25386   5.503   8.423   1.724
 4452SOL    HW125387   5.479   8.433   1.628
 4452SOL    HW225388   5.423   8.442   1.781
 4453SOL     OW25389   3.181   6.784   4.836
 4453SOL    HW125390   3.228   6.780   4.924
 4453SOL    HW225391   3.208   6.867   4.788
 4454SOL     OW25392   3.775   0.948   0.206
 4454SOL    HW125393   3.728   0.917   0.124
 4454SOL    HW225394   3.775   1.048   0.208
 4455SOL     OW25395   2.127   8.104   5.702
 4455SOL    HW125396   2.196   8.175   5.717
 4455SOL    HW225397   2.036   8.146   5.702
 4456SOL     OW25398   1.602   2.718   0.276
 4456SOL    HW125399   1.638   2.808   0.300
 4456SOL    HW225400   1.665   2.648   0.308
 4457SOL     OW25401   2.198   7.538   1.003
 4457SOL    HW125402   2.126   7.472   0.982
 4457SOL    HW225403   2.226   7.586   0.920
 4458SOL     OW25404   4.574   3.821   1.093
 4458SOL    HW125405   4.533   3.771   1.169
 4458SOL    HW225406   4.581   3.761   1.014
 4459SOL     OW25407   5.770   4.672   6.254
 4459SOL    HW125408   5.868   4.656   6.241
 4459SOL    HW225409   5.756   4.749   6.315
 4460SOL     OW25410   3.733   5.576   1.521
 4460SOL    HW125411   3.664   5.638   1.482
 4460SOL    HW225412   3.706   5.550   1.613
 4461SOL     OW25413   1.767   8.400   6.432
 4461SOL    HW125414   1.823   8.435   6.357
 4461SOL    HW225415   1.774   8.461   6.510
 4462SOL     OW25416   3.673   0.057   1.621
 4462SOL    HW125417   3.691   0.069   1.523
 4462SOL    HW225418   3.678  -0.040   1.644
 4463SOL     OW25419   4.643   5.617   6.695
 4463SOL    HW125420   4.732   5.572   6.705
 4463SOL    HW225421   4.577   5.551   6.658
 4464SOL     OW25422   6.830   0.898   6.413
 4464SOL    HW125423   6.738   0.933   6.396
 4464SOL    HW225424   6.825   0.820   6.475
 4465SOL     OW25425   8.446   7.133   5.617
 4465SOL    HW125426   8.397   7.206   5.569
 4465SOL    HW225427   8.482   7.068   5.551
 4466SOL     OW25428   7.084   3.990   0.337
 4466SOL    HW125429   7.057   3.900   0.372
 4466SOL    HW225430   7.069   3.994   0.239
 4467SOL     OW25431   4.204   4.913   6.607
 4467SOL    HW125432   4.161   4.874   6.689
 4467SOL    HW225433   4.152   4.886   6.526
 4468SOL     OW25434   0.262   3.319   5.866
 4468SOL    HW125435   0.237   3.379   5.942
 4468SOL    HW225436   0.342   3.355   5.819
 4469SOL     OW25437   2.426   0.332   5.687
 4469SOL    HW125438   2.524   0.338   5.708
 4469SOL    HW225439   2.379   0.283   5.761
 4470SOL     OW25440   7.421   6.676   0.347
 4470SOL    HW125441   7.358   6.718   0.411
 4470SOL    HW225442   7.494   6.629   0.397
 4471SOL     OW25443   5.373   5.329   0.632
 4471SOL    HW125444   5.353   5.385   0.552
 4471SOL    HW225445   5.309   5.252   0.637
 4472SOL     OW25446   8.280   0.900   5.078
 4472SOL    HW125447   8.297   0.935   4.986
 4472SOL    HW225448   8.189   0.859   5.082
 4473SOL     OW25449   3.297   4.837   0.812
 4473SOL    HW125450   3.357   4.829   0.733
 4473SOL    HW225451   3.351   4.854   0.894
 4474SOL     OW25452   8.617   5.806   0.524
 4474SOL    HW125453   8.658   5.746   0.593
 4474SOL    HW225454   8.518   5.808   0.535
 4475SOL     OW25455   0.874   4.496   6.690
 4475SOL    HW125456   0.846   4.427   6.757
 4475SOL    HW225457   0.865   4.587   6.730
 4476SOL     OW25458   8.339   7.535   5.150
 4476SOL    HW125459   8.436   7.519   5.137
 4476SOL    HW225460   8.308   7.605   5.086
 4477SOL     OW25461   3.270   1.790   0.660
 4477SOL    HW125462   3.366   1.798   0.634
 4477SOL    HW225463   3.240   1.696   0.647
 4478SOL     OW25464   1.492   1.757   5.771
 4478SOL    HW125465   1.392   1.748   5.767
 4478SOL    HW225466   1.530   1.685   5.828
 4479SOL     OW25467   8.555   6.716   5.467
 4479SOL    HW125468   8.544   6.809   5.430
 4479SOL    HW225469   8.646   6.707   5.507
 4480SOL     OW25470   7.914   0.799   0.199
 4480SOL    HW125471   7.859   0.831   0.276
 4480SOL    HW225472   7.874   0.832   0.114
 4481SOL     OW25473   2.264   1.201   5.923
 4481SOL    HW125474   2.350   1.212   5.874
 4481SOL    HW225475   2.282   1.162   6.013
 4482SOL     OW25476   5.219   5.938   0.654
 4482SOL    HW125477   5.270   5.894   0.580
 4482SOL    HW225478   5.224   6.037   0.643
 4483SOL     OW25479   7.529   2.833   1.184
 4483SOL    HW125480   7.580   2.917   1.202
 4483SOL    HW225481   7.499   2.792   1.270
 4484SOL     OW25482   5.231   5.126   6.564
 4484SOL    HW125483   5.321   5.108   6.523
 4484SOL    HW225484   5.185   5.039   6.582
 4485SOL     OW25485   0.478   4.396   6.186
 4485SOL    HW125486   0.572   4.423   6.209
 4485SOL    HW225487   0.448   4.323   6.248
 4486SOL     OW25488   5.753   1.081   6.555
 4486SOL    HW125489   5.851   1.065   6.570
 4486SOL    HW225490   5.734   1.179   6.560
 4487SOL     OW25491   3.134   1.520   5.177
 4487SOL    HW125492   3.188   1.485   5.101
 4487SOL    HW225493   3.151   1.618   5.188
 4488SOL     OW25494   2.649   2.869   0.318
 4488SOL    HW125495   2.637   2.894   0.222
 4488SOL    HW225496   2.746   2.879   0.343
 4489SOL     OW25497   2.498   2.444   1.706
 4489SOL    HW125498   2.588   2.461   1.746
 4489SOL    HW225499   2.439   2.524   1.721
 4490SOL     OW25500   6.797   5.200   6.075
 4490SOL    HW125501   6.782   5.293   6.042
 4490SOL    HW225502   6.889   5.191   6.112
 4491SOL     OW25503   1.214   8.250   6.260
 4491SOL    HW125504   1.136   8.278   6.315
 4491SOL    HW225505   1.228   8.151   6.268
 4492SOL     OW25506   4.793   4.886   6.412
 4492SOL    HW125507   4.797   4.868   6.511
 4492SOL    HW225508   4.830   4.977   6.394
 4493SOL     OW25509   2.341   1.689   0.404
 4493SOL    HW125510   2.321   1.780   0.369
 4493SOL    HW225511   2.271   1.662   0.469
 4494SOL     OW25512   7.284   2.045   6.384
 4494SOL    HW125513   7.195   2.078   6.413
 4494SOL    HW225514   7.319   2.104   6.311
 4495SOL     OW25515   9.470   2.486   0.430
 4495SOL    HW125516   9.388   2.530   0.394
 4495SOL    HW225517   9.452   2.451   0.522
 4496SOL     OW25518   1.186   1.528   5.359
 4496SOL    HW125519   1.127   1.483   5.293
 4496SOL    HW225520   1.155   1.506   5.452
 4497SOL     OW25521   3.809   0.322   1.272
 4497SOL    HW125522   3.774   0.388   1.338
 4497SOL    HW225523   3.754   0.238   1.275
 4498SOL     OW25524   9.002   5.226   0.482
 4498SOL    HW125525   8.907   5.203   0.465
 4498SOL    HW225526   9.037   5.168   0.556
 4499SOL     OW25527   7.838   1.624   0.947
 4499SOL    HW125528   7.840   1.611   0.848
 4499SOL    HW225529   7.796   1.543   0.990
 4500SOL     OW25530   3.165   5.912   0.793
 4500SOL    HW125531   3.194   6.001   0.757
 4500SOL    HW225532   3.070   5.895   0.766
 4501SOL     OW25533   8.538   7.471   5.824
 4501SOL    HW125534   8.576   7.428   5.742
 4501SOL    HW225535   8.601   7.458   5.901
 4502SOL     OW25536   4.378   1.198   2.036
 4502SOL    HW125537   4.427   1.195   2.124
 4502SOL    HW225538   4.310   1.125   2.034
 4503SOL     OW25539   3.699   2.915   5.902
 4503SOL    HW125540   3.740   2.934   5.813
 4503SOL    HW225541   3.622   2.977   5.917
 4504SOL     OW25542   5.188   3.266   6.682
 4504SOL    HW125543   5.196   3.207   6.602
 4504SOL    HW225544   5.279   3.292   6.714
 4505SOL     OW25545   4.409   5.690   6.214
 4505SOL    HW125546   4.321   5.660   6.177
 4505SOL    HW225547   4.473   5.706   6.138
 4506SOL     OW25548   1.787   2.277   1.602
 4506SOL    HW125549   1.690   2.269   1.580
 4506SOL    HW225550   1.798   2.279   1.701
 4507SOL     OW25551   8.050   7.619   5.496
 4507SOL    HW125552   8.071   7.524   5.521
 4507SOL    HW225553   8.099   7.643   5.411
 4508SOL     OW25554   4.538   0.326   0.696
 4508SOL    HW125555   4.450   0.283   0.714
 4508SOL    HW225556   4.593   0.268   0.637
 4509SOL     OW25557   1.360   0.731   6.423
 4509SOL    HW125558   1.378   0.651   6.365
 4509SOL    HW225559   1.263   0.734   6.446
 4510SOL     OW25560   0.610   4.908   5.847
 4510SOL    HW125561   0.679   4.943   5.784
 4510SOL    HW225562   0.535   4.867   5.795
 4511SOL     OW25563   8.535   1.126   4.992
 4511SOL    HW125564   8.514   1.060   4.920
 4511SOL    HW225565   8.564   1.212   4.950
 4512SOL     OW25566   4.787   8.492   6.378
 4512SOL    HW125567   4.845   8.572   6.362
 4512SOL    HW225568   4.739   8.469   6.293
 4513SOL     OW25569   0.612   4.425   1.393
 4513SOL    HW125570   0.653   4.368   1.464
 4513SOL    HW225571   0.519   4.450   1.419
 4514SOL     OW25572   6.482   3.585   6.063
 4514SOL    HW125573   6.511   3.630   6.148
 4514SOL    HW225574   6.441   3.653   6.002
 4515SOL     OW25575   3.852   4.636   6.241
 4515SOL    HW125576   3.911   4.714   6.221
 4515SOL    HW225577   3.777   4.633   6.175
 4516SOL     OW25578   0.627   6.858   5.178
 4516SOL    HW125579   0.576   6.772   5.164
 4516SOL    HW225580   0.566   6.935   5.160
 4517SOL     OW25581   2.831   0.260   4.710
 4517SOL    HW125582   2.766   0.211   4.652
 4517SOL    HW225583   2.907   0.200   4.734
 4518SOL     OW25584   0.531   2.350   0.606
 4518SOL    HW125585   0.534   2.250   0.596
 4518SOL    HW225586   0.594   2.378   0.679
 4519SOL     OW25587   2.419   5.473   1.160
 4519SOL    HW125588   2.385   5.548   1.218
 4519SOL    HW225589   2.511   5.494   1.129
 4520SOL     OW25590   4.228   3.491   1.128
 4520SOL    HW125591   4.181   3.433   1.194
 4520SOL    HW225592   4.202   3.463   1.035
 4521SOL     OW25593   1.429   5.348   0.773
 4521SOL    HW125594   1.460   5.402   0.695
 4521SOL    HW225595   1.391   5.261   0.741
 4522SOL     OW25596   5.084   4.485   1.644
 4522SOL    HW125597   5.139   4.457   1.723
 4522SOL    HW225598   5.050   4.404   1.597
 4523SOL     OW25599   3.061   0.305   0.076
 4523SOL    HW125600   3.025   0.211   0.071
 4523SOL    HW225601   3.043   0.342   0.167
 4524SOL     OW25602   6.089   3.243   1.280
 4524SOL    HW125603   6.058   3.338   1.290
 4524SOL    HW225604   6.030   3.183   1.333
 4525SOL     OW25605   0.800   6.784   5.899
 4525SOL    HW125606   0.831   6.800   5.805
 4525SOL    HW225607   0.773   6.688   5.909
 4526SOL     OW25608   2.334   8.153   1.593
 4526SOL    HW125609   2.396   8.091   1.642
 4526SOL    HW225610   2.292   8.216   1.659
 4527SOL     OW25611   3.181   5.064   1.287
 4527SOL    HW125612   3.178   4.982   1.230
 4527SOL    HW225613   3.265   5.116   1.267
 4528SOL     OW25614   2.521   6.640   5.552
 4528SOL    HW125615   2.516   6.712   5.621
 4528SOL    HW225616   2.432   6.594   5.545
 4529SOL     OW25617   8.945   0.235   5.841
 4529SOL    HW125618   8.976   0.233   5.936
 4529SOL    HW225619   8.987   0.313   5.795
 4530SOL     OW25620   5.701   4.841   6.469
 4530SOL    HW125621   5.628   4.800   6.524
 4530SOL    HW225622   5.789   4.826   6.513
 4531SOL     OW25623   8.698   7.564   5.492
 4531SOL    HW125624   8.602   7.593   5.496
 4531SOL    HW225625   8.705   7.468   5.519
 4532SOL     OW25626   1.998   3.821   6.304
 4532SOL    HW125627   2.024   3.904   6.253
 4532SOL    HW225628   2.073   3.795   6.365
 4533SOL     OW25629   1.654   1.183   5.123
 4533SOL    HW125630   1.703   1.178   5.036
 4533SOL    HW225631   1.562   1.146   5.112
 4534SOL     OW25632   5.836   0.476   0.680
 4534SOL    HW125633   5.781   0.397   0.653
 4534SOL    HW225634   5.800   0.558   0.635
 4535SOL     OW25635   8.014   6.107   1.082
 4535SOL    HW125636   7.926   6.130   1.042
 4535SOL    HW225637   8.004   6.027   1.142
 4536SOL     OW25638   3.141   6.318   1.691
 4536SOL    HW125639   3.144   6.278   1.783
 4536SOL    HW225640   3.162   6.416   1.697
 4537SOL     OW25641   0.344   4.368   6.667
 4537SOL    HW125642   0.276   4.313   6.618
 4537SOL    HW225643   0.427   4.314   6.680
 4538SOL     OW25644   3.652   5.733   0.235
 4538SOL    HW125645   3.589   5.656   0.244
 4538SOL    HW225646   3.615   5.798   0.168
 4539SOL     OW25647   4.984   3.433   6.594
 4539SOL    HW125648   5.049   3.362   6.620
 4539SOL    HW225649   4.957   3.486   6.675
 4540SOL     OW25650   3.452   7.959   1.425
 4540SOL    HW125651   3.505   8.040   1.451
 4540SOL    HW225652   3.384   7.939   1.495
 4541SOL     OW25653   6.737   2.297   6.697
 4541SOL    HW125654   6.771   2.311   6.790
 4541SOL    HW225655   6.812   2.271   6.637
 4542SOL     OW25656   8.740   6.796   6.127
 4542SOL    HW125657   8.768   6.827   6.036
 4542SOL    HW225658   8.640   6.799   6.134
 4543SOL     OW25659   9.110   4.152   6.572
 4543SOL    HW125660   9.104   4.201   6.485
 4543SOL    HW225661   9.206   4.145   6.600
 4544SOL     OW25662   5.088   1.172   0.908
 4544SOL    HW125663   5.089   1.077   0.940
 4544SOL    HW225664   5.025   1.180   0.830
 4545SOL     OW25665   1.612   7.645   1.027
 4545SOL    HW125666   1.701   7.602   1.016
 4545SOL    HW225667   1.622   7.734   1.070
 4546SOL     OW25668   8.712   5.640   0.715
 4546SOL    HW125669   8.785   5.606   0.656
 4546SOL    HW225670   8.747   5.654   0.807
 4547SOL     OW25671   4.743   0.815   0.622
 4547SOL    HW125672   4.681   0.875   0.572
 4547SOL    HW225673   4.696   0.778   0.703
 4548SOL     OW25674   7.482   4.452   0.424
 4548SOL    HW125675   7.499   4.356   0.402
 4548SOL    HW225676   7.565   4.505   0.410
 4549SOL     OW25677   8.294   5.188   0.575
 4549SOL    HW125678   8.382   5.170   0.619
 4549SOL    HW225679   8.307   5.250   0.498
 4550SOL     OW25680   4.073   8.193   0.043
 4550SOL    HW125681   4.149   8.133   0.069
 4550SOL    HW225682   4.103   8.251  -0.033
 4551SOL     OW25683   0.257   3.312   0.438
 4551SOL    HW125684   0.202   3.237   0.401
 4551SOL    HW225685   0.232   3.328   0.534
 4552SOL     OW25686   7.129   6.444   6.412
 4552SOL    HW125687   7.063   6.371   6.395
 4552SOL    HW225688   7.199   6.443   6.340
 4553SOL     OW25689   4.597   5.828   1.805
 4553SOL    HW125690   4.694   5.851   1.806
 4553SOL    HW225691   4.578   5.760   1.876
 4554SOL     OW25692   0.899   6.749   1.883
 4554SOL    HW125693   0.984   6.778   1.838
 4554SOL    HW225694   0.869   6.662   1.844
 4555SOL     OW25695   6.138   3.425   6.239
 4555SOL    HW125696   6.192   3.387   6.164
 4555SOL    HW225697   6.198   3.456   6.312
 4556SOL     OW25698   7.969   8.388   5.313
 4556SOL    HW125699   8.044   8.368   5.250
 4556SOL    HW225700   7.888   8.416   5.261
 4557SOL     OW25701   3.655   4.679   6.060
 4557SOL    HW125702   3.624   4.774   6.061
 4557SOL    HW225703   3.694   4.656   5.971
 4558SOL     OW25704   7.314   0.305   0.380
 4558SOL    HW125705   7.317   0.403   0.401
 4558SOL    HW225706   7.331   0.253   0.463
 4559SOL     OW25707   5.866   6.257   0.420
 4559SOL    HW125708   5.887   6.205   0.503
 4559SOL    HW225709   5.930   6.333   0.411
 4560SOL     OW25710   8.831   5.189   0.831
 4560SOL    HW125711   8.843   5.274   0.881
 4560SOL    HW225712   8.759   5.135   0.874
 4561SOL     OW25713   7.129   3.792   5.479
 4561SOL    HW125714   7.058   3.756   5.540
 4561SOL    HW225715   7.132   3.737   5.396
 4562SOL     OW25716   8.093   3.941   1.136
 4562SOL    HW125717   8.154   3.866   1.161
 4562SOL    HW225718   8.000   3.921   1.168
 4563SOL     OW25719   5.369   5.565   0.084
 4563SOL    HW125720   5.358   5.496   0.154
 4563SOL    HW225721   5.349   5.655   0.122
 4564SOL     OW25722   3.957   5.524   0.320
 4564SOL    HW125723   4.024   5.451   0.300
 4564SOL    HW225724   3.907   5.547   0.237
 4565SOL     OW25725   5.869   8.344   6.692
 4565SOL    HW125726   5.879   8.412   6.619
 4565SOL    HW225727   5.950   8.285   6.693
 4566SOL     OW25728   7.439   1.170   6.624
 4566SOL    HW125729   7.405   1.221   6.545
 4566SOL    HW225730   7.387   1.086   6.635
 4567SOL     OW25731   3.177   2.604   0.152
 4567SOL    HW125732   3.166   2.701   0.129
 4567SOL    HW225733   3.098   2.553   0.119
 4568SOL     OW25734   6.688   1.670   6.026
 4568SOL    HW125735   6.612   1.684   6.089
 4568SOL    HW225736   6.663   1.602   5.957
 4569SOL     OW25737   1.473   6.679   6.430
 4569SOL    HW125738   1.415   6.616   6.378
 4569SOL    HW225739   1.554   6.701   6.376
 4570SOL     OW25740   0.073   1.972   5.962
 4570SOL    HW125741  -0.005   2.035   5.970
 4570SOL    HW225742   0.066   1.922   5.875
 4571SOL     OW25743   2.461   1.294   0.597
 4571SOL    HW125744   2.536   1.325   0.539
 4571SOL    HW225745   2.493   1.288   0.692
 4572SOL     OW25746   6.841   6.690   5.440
 4572SOL    HW125747   6.798   6.755   5.378
 4572SOL    HW225748   6.940   6.704   5.441
 4573SOL     OW25749   5.396   4.689   1.889
 4573SOL    HW125750   5.353   4.779   1.881
 4573SOL    HW225751   5.331   4.618   1.859
 4574SOL     OW25752   4.109   6.588   6.569
 4574SOL    HW125753   4.134   6.603   6.473
 4574SOL    HW225754   4.164   6.513   6.606
 4575SOL     OW25755   3.485   6.620   0.183
 4575SOL    HW125756   3.534   6.703   0.211
 4575SOL    HW225757   3.415   6.643   0.115
 4576SOL     OW25758   2.989   3.459   6.536
 4576SOL    HW125759   3.001   3.368   6.497
 4576SOL    HW225760   2.893   3.484   6.534
 4577SOL     OW25761   6.636   4.348   6.669
 4577SOL    HW125762   6.726   4.390   6.662
 4577SOL    HW225763   6.566   4.419   6.669
 4578SOL     OW25764   7.186   0.000   5.280
 4578SOL    HW125765   7.091  -0.018   5.256
 4578SOL    HW225766   7.242   0.002   5.197
 4579SOL     OW25767   0.902   6.127   6.499
 4579SOL    HW125768   0.928   6.032   6.513
 4579SOL    HW225769   0.825   6.132   6.435
 4580SOL     OW25770   3.417   0.869   1.159
 4580SOL    HW125771   3.385   0.933   1.089
 4580SOL    HW225772   3.346   0.802   1.178
 4581SOL     OW25773   1.491   6.123   0.173
 4581SOL    HW125774   1.560   6.121   0.245
 4581SOL    HW225775   1.535   6.121   0.083
 4582SOL     OW25776   6.022   7.351   5.697
 4582SOL    HW125777   6.068   7.278   5.645
 4582SOL    HW225778   5.924   7.347   5.678
 4583SOL     OW25779   7.803   2.188   6.467
 4583SOL    HW125780   7.814   2.275   6.417
 4583SOL    HW225781   7.882   2.175   6.527
 4584SOL     OW25782   4.310   1.075   5.535
 4584SOL    HW125783   4.251   1.069   5.616
 4584SOL    HW225784   4.295   0.996   5.476
 4585SOL     OW25785   1.088   5.279   5.883
 4585SOL    HW125786   1.101   5.360   5.826
 4585SOL    HW225787   0.991   5.253   5.882
 4586SOL     OW25788   7.547   5.345   6.311
 4586SOL    HW125789   7.473   5.278   6.311
 4586SOL    HW225790   7.617   5.317   6.376
 4587SOL     OW25791   1.809   6.704   5.440
 4587SOL    HW125792   1.748   6.703   5.520
 4587SOL    HW225793   1.765   6.654   5.365
 4588SOL     OW25794   5.732   4.400   0.410
 4588SOL    HW125795   5.729   4.476   0.474
 4588SOL    HW225796   5.743   4.314   0.460
 4589SOL     OW25797   5.309   8.052   5.636
 4589SOL    HW125798   5.339   8.142   5.669
 4589SOL    HW225799   5.263   8.063   5.549
 4590SOL     OW25800   3.588   6.984   5.948
 4590SOL    HW125801   3.655   6.912   5.963
 4590SOL    HW225802   3.519   6.951   5.883
 4591SOL     OW25803   1.216   1.961   0.330
 4591SOL    HW125804   1.304   2.009   0.320
 4591SOL    HW225805   1.141   2.026   0.319
 4592SOL     OW25806   8.801   6.093   5.006
 4592SOL    HW125807   8.737   6.047   5.068
 4592SOL    HW225808   8.855   6.025   4.957
 4593SOL     OW25809   3.056   4.394   0.442
 4593SOL    HW125810   2.978   4.448   0.410
 4593SOL    HW225811   3.116   4.373   0.365
 4594SOL     OW25812   3.082   4.955   6.610
 4594SOL    HW125813   2.993   4.971   6.654
 4594SOL    HW225814   3.135   4.890   6.664
 4595SOL     OW25815   6.149   2.460   5.969
 4595SOL    HW125816   6.096   2.398   5.913
 4595SOL    HW225817   6.116   2.458   6.063
 4596SOL     OW25818   1.114   3.958   0.247
 4596SOL    HW125819   1.214   3.956   0.238
 4596SOL    HW225820   1.088   3.929   0.339
 4597SOL     OW25821   0.453   8.053   1.444
 4597SOL    HW125822   0.427   8.148   1.462
 4597SOL    HW225823   0.417   7.995   1.517
 4598SOL     OW25824   2.290   7.845   5.004
 4598SOL    HW125825   2.365   7.900   4.965
 4598SOL    HW225826   2.247   7.791   4.932
 4599SOL     OW25827   0.769   1.591   5.771
 4599SOL    HW125828   0.774   1.687   5.744
 4599SOL    HW225829   0.695   1.579   5.837
 4600SOL     OW25830   0.825   4.173   1.357
 4600SOL    HW125831   0.787   4.190   1.447
 4600SOL    HW225832   0.836   4.074   1.343
 4601SOL     OW25833   3.158   5.045   6.378
 4601SOL    HW125834   3.246   5.090   6.393
 4601SOL    HW225835   3.124   5.009   6.465
 4602SOL     OW25836   1.637   8.329   5.546
 4602SOL    HW125837   1.659   8.369   5.456
 4602SOL    HW225838   1.722   8.313   5.596
 4603SOL     OW25839   0.207   5.043   5.250
 4603SOL    HW125840   0.173   5.060   5.158
 4603SOL    HW225841   0.164   4.961   5.288
 4604SOL     OW25842   6.596   5.324   6.500
 4604SOL    HW125843   6.517   5.344   6.558
 4604SOL    HW225844   6.649   5.408   6.484
 4605SOL     OW25845   3.356   3.135   6.360
 4605SOL    HW125846   3.340   3.146   6.458
 4605SOL    HW225847   3.438   3.080   6.346
 4606SOL     OW25848   0.275   6.431   4.647
 4606SOL    HW125849   0.289   6.513   4.592
 4606SOL    HW225850   0.358   6.375   4.647
 4607SOL     OW25851   9.163   5.064   5.378
 4607SOL    HW125852   9.072   5.101   5.359
 4607SOL    HW225853   9.201   5.023   5.295
 4608SOL     OW25854   4.263   7.762   0.861
 4608SOL    HW125855   4.217   7.697   0.922
 4608SOL    HW225856   4.199   7.795   0.793
 4609SOL     OW25857   7.713   2.895   6.585
 4609SOL    HW125858   7.812   2.901   6.602
 4609SOL    HW225859   7.697   2.874   6.489
 4610SOL     OW25860   2.777   7.010   5.740
 4610SOL    HW125861   2.743   7.019   5.834
 4610SOL    HW225862   2.741   7.086   5.685
 4611SOL     OW25863   3.464   3.061   1.878
 4611SOL    HW125864   3.417   3.147   1.859
 4611SOL    HW225865   3.421   3.016   1.957
 4612SOL     OW25866   2.387   7.490   0.766
 4612SOL    HW125867   2.320   7.546   0.718
 4612SOL    HW225868   2.347   7.400   0.787
 4613SOL     OW25869   7.746   4.032   0.778
 4613SOL    HW125870   7.827   4.081   0.811
 4613SOL    HW225871   7.746   4.030   0.678
 4614SOL     OW25872   3.971   5.474   1.360
 4614SOL    HW125873   3.893   5.507   1.414
 4614SOL    HW225874   4.001   5.385   1.395
 4615SOL     OW25875   8.473   2.428   1.079
 4615SOL    HW125876   8.378   2.413   1.108
 4615SOL    HW225877   8.514   2.500   1.134
 4616SOL     OW25878   6.755   5.760   0.826
 4616SOL    HW125879   6.665   5.794   0.798
 4616SOL    HW225880   6.755   5.660   0.825
 4617SOL     OW25881   7.781   3.671   5.930
 4617SOL    HW125882   7.845   3.649   5.856
 4617SOL    HW225883   7.698   3.712   5.891
 4618SOL     OW25884   0.213   6.919   5.316
 4618SOL    HW125885   0.252   6.873   5.237
 4618SOL    HW225886   0.166   6.852   5.373
 4619SOL     OW25887   5.757   8.446   0.985
 4619SOL    HW125888   5.737   8.535   0.943
 4619SOL    HW225889   5.847   8.448   1.027
 4620SOL     OW25890   5.077   6.619   1.508
 4620SOL    HW125891   5.144   6.548   1.484
 4620SOL    HW225892   5.109   6.708   1.476
 4621SOL     OW25893   1.210   5.681   0.029
 4621SOL    HW125894   1.152   5.640  -0.042
 4621SOL    HW225895   1.239   5.772  -0.001
 4622SOL     OW25896   2.054   0.322   0.985
 4622SOL    HW125897   2.121   0.377   1.036
 4622SOL    HW225898   1.964   0.330   1.028
 4623SOL     OW25899   4.405   0.470   6.083
 4623SOL    HW125900   4.398   0.553   6.028
 4623SOL    HW225901   4.460   0.402   6.035
 4624SOL     OW25902   8.198   7.665   0.596
 4624SOL    HW125903   8.246   7.636   0.514
 4624SOL    HW225904   8.185   7.765   0.594
 4625SOL     OW25905   0.767   6.588   4.521
 4625SOL    HW125906   0.770   6.491   4.495
 4625SOL    HW225907   0.816   6.600   4.608
 4626SOL     OW25908   2.169   7.682   6.057
 4626SOL    HW125909   2.186   7.777   6.032
 4626SOL    HW225910   2.077   7.656   6.026
 4627SOL     OW25911   4.811   3.717   1.695
 4627SOL    HW125912   4.755   3.651   1.745
 4627SOL    HW225913   4.888   3.745   1.753
 4628SOL     OW25914   2.019   1.297   0.029
 4628SOL    HW125915   2.004   1.390  -0.003
 4628SOL    HW225916   2.110   1.290   0.070
 4629SOL     OW25917   2.511   2.762   0.875
 4629SOL    HW125918   2.471   2.828   0.811
 4629SOL    HW225919   2.437   2.710   0.918
 4630SOL     OW25920   7.115   1.161   1.389
 4630SOL    HW125921   7.065   1.206   1.462
 4630SOL    HW225922   7.213   1.176   1.402
 4631SOL     OW25923   6.352   3.912   6.174
 4631SOL    HW125924   6.332   3.970   6.253
 4631SOL    HW225925   6.281   3.926   6.104
 4632SOL     OW25926   3.712   7.857   6.663
 4632SOL    HW125927   3.682   7.766   6.694
 4632SOL    HW225928   3.662   7.881   6.580
 4633SOL     OW25929   3.220   1.422   5.643
 4633SOL    HW125930   3.194   1.378   5.557
 4633SOL    HW225931   3.143   1.476   5.677
 4634SOL     OW25932   4.105   2.299   6.108
 4634SOL    HW125933   4.081   2.335   6.018
 4634SOL    HW225934   4.054   2.215   6.126
 4635SOL     OW25935   7.043   0.401   0.117
 4635SOL    HW125936   7.075   0.331   0.052
 4635SOL    HW225937   7.110   0.475   0.121
 4636SOL     OW25938   6.187   6.661   6.111
 4636SOL    HW125939   6.215   6.756   6.113
 4636SOL    HW225940   6.145   6.636   6.199
 4637SOL     OW25941   4.247   2.472   1.219
 4637SOL    HW125942   4.308   2.547   1.193
 4637SOL    HW225943   4.299   2.387   1.225
 4638SOL     OW25944   0.723   3.251   0.314
 4638SOL    HW125945   0.779   3.262   0.396
 4638SOL    HW225946   0.634   3.294   0.328
 4639SOL     OW25947   8.858   2.630   1.007
 4639SOL    HW125948   8.955   2.653   0.992
 4639SOL    HW225949   8.851   2.536   1.039
 4640SOL     OW25950   8.866   6.845   0.410
 4640SOL    HW125951   8.873   6.758   0.362
 4640SOL    HW225952   8.840   6.829   0.505
 4641SOL     OW25953   7.788   3.053   0.502
 4641SOL    HW125954   7.799   3.065   0.601
 4641SOL    HW225955   7.773   3.142   0.459
 4642SOL     OW25956   1.145   8.121   0.604
 4642SOL    HW125957   1.202   8.105   0.684
 4642SOL    HW225958   1.172   8.059   0.530
 4643SOL     OW25959   8.893   7.824   0.376
 4643SOL    HW125960   8.926   7.917   0.359
 4643SOL    HW225961   8.929   7.792   0.464
 4644SOL     OW25962   8.696   4.221   5.810
 4644SOL    HW125963   8.663   4.164   5.885
 4644SOL    HW225964   8.665   4.182   5.723
 4645SOL     OW25965   8.924   3.726   5.575
 4645SOL    HW125966   8.897   3.656   5.509
 4645SOL    HW225967   8.993   3.786   5.535
 4646SOL     OW25968   1.691   6.763   6.303
 4646SOL    HW125969   1.689   6.859   6.332
 4646SOL    HW225970   1.648   6.756   6.213
 4647SOL     OW25971   7.252   6.139   5.675
 4647SOL    HW125972   7.238   6.051   5.630
 4647SOL    HW225973   7.269   6.209   5.606
 4648SOL     OW25974   6.969   5.532   0.478
 4648SOL    HW125975   7.041   5.513   0.544
 4648SOL    HW225976   6.910   5.452   0.469
 4649SOL     OW25977   9.015   8.358   0.634
 4649SOL    HW125978   8.941   8.406   0.588
 4649SOL    HW225979   9.060   8.295   0.571
 4650SOL     OW25980   2.961   4.936   0.118
 4650SOL    HW125981   3.007   4.864   0.170
 4650SOL    HW225982   2.886   4.973   0.172
 4651SOL     OW25983   5.672   6.716   2.195
 4651SOL    HW125984   5.703   6.809   2.212
 4651SOL    HW225985   5.750   6.653   2.196
 4652SOL     OW25986   1.345   8.029   5.992
 4652SOL    HW125987   1.339   8.128   5.982
 4652SOL    HW225988   1.316   7.985   5.907
 4653SOL     OW25989   1.779   3.639   5.778
 4653SOL    HW125990   1.767   3.578   5.700
 4653SOL    HW225991   1.721   3.720   5.767
 4654SOL     OW25992   4.945   6.947   6.400
 4654SOL    HW125993   4.925   6.979   6.493
 4654SOL    HW225994   5.040   6.916   6.395
 4655SOL     OW25995   0.065   2.667   6.524
 4655SOL    HW125996   0.078   2.573   6.554
 4655SOL    HW225997  -0.016   2.673   6.466
 4656SOL     OW25998   5.706   1.605   6.452
 4656SOL    HW125999   5.713   1.705   6.450
 4656SOL    HW226000   5.796   1.566   6.475
 4657SOL     OW26001   9.337   2.149   6.305
 4657SOL    HW126002   9.330   2.230   6.247
 4657SOL    HW226003   9.407   2.164   6.375
 4658SOL     OW26004   0.968   1.824   6.460
 4658SOL    HW126005   0.982   1.748   6.523
 4658SOL    HW226006   0.901   1.798   6.391
 4659SOL     OW26007   7.289   7.443   0.389
 4659SOL    HW126008   7.371   7.389   0.408
 4659SOL    HW226009   7.304   7.498   0.306
 4660SOL     OW26010   8.543   7.057   0.183
 4660SOL    HW126011   8.603   6.998   0.128
 4660SOL    HW226012   8.449   7.026   0.175
 4661SOL     OW26013   1.677   3.299   0.182
 4661SOL    HW126014   1.588   3.276   0.143
 4661SOL    HW226015   1.733   3.343   0.111
 4662SOL     OW26016   7.286   3.110   0.801
 4662SOL    HW126017   7.373   3.151   0.829
 4662SOL    HW226018   7.237   3.077   0.881
 4663SOL     OW26019   8.291   2.343   0.768
 4663SOL    HW126020   8.262   2.278   0.698
 4663SOL    HW226021   8.387   2.326   0.791
 4664SOL     OW26022   4.159   2.817   0.011
 4664SOL    HW126023   4.099   2.761  -0.045
 4664SOL    HW226024   4.254   2.789  -0.002
 4665SOL     OW26025   2.793   2.351   1.090
 4665SOL    HW126026   2.749   2.429   1.134
 4665SOL    HW226027   2.820   2.376   0.997
 4666SOL     OW26028   2.142   3.443   6.334
 4666SOL    HW126029   2.184   3.507   6.269
 4666SOL    HW226030   2.184   3.353   6.323
 4667SOL     OW26031   4.211   5.466   1.841
 4667SOL    HW126032   4.218   5.366   1.834
 4667SOL    HW226033   4.145   5.490   1.912
 4668SOL     OW26034   5.209   0.416   0.299
 4668SOL    HW126035   5.130   0.475   0.285
 4668SOL    HW226036   5.181   0.320   0.296
 4669SOL     OW26037   7.943   6.417   0.567
 4669SOL    HW126038   7.882   6.338   0.558
 4669SOL    HW226039   8.014   6.396   0.635
 4670SOL     OW26040   7.965   2.504   0.671
 4670SOL    HW126041   8.050   2.533   0.629
 4670SOL    HW226042   7.909   2.456   0.603
 4671SOL     OW26043   6.934   6.638   0.956
 4671SOL    HW126044   6.976   6.674   0.873
 4671SOL    HW226045   6.836   6.627   0.942
 4672SOL     OW26046   7.143   0.332   0.754
 4672SOL    HW126047   7.215   0.287   0.700
 4672SOL    HW226048   7.058   0.334   0.701
 4673SOL     OW26049   3.523   6.892   1.648
 4673SOL    HW126050   3.612   6.925   1.618
 4673SOL    HW226051   3.534   6.838   1.731
 4674SOL     OW26052   9.187   7.837   5.515
 4674SOL    HW126053   9.209   7.933   5.531
 4674SOL    HW226054   9.096   7.818   5.551
 4675SOL     OW26055   3.433   7.412   6.145
 4675SOL    HW126056   3.436   7.315   6.122
 4675SOL    HW226057   3.471   7.466   6.069
 4676SOL     OW26058   5.343   1.201   0.149
 4676SOL    HW126059   5.261   1.152   0.177
 4676SOL    HW226060   5.424   1.149   0.175
 4677SOL     OW26061   0.324   7.583   4.779
 4677SOL    HW126062   0.314   7.668   4.728
 4677SOL    HW226063   0.411   7.539   4.754
 4678SOL     OW26064   7.298   4.870   0.316
 4678SOL    HW126065   7.224   4.928   0.283
 4678SOL    HW226066   7.312   4.886   0.413
 4679SOL     OW26067   4.453   5.579   0.213
 4679SOL    HW126068   4.542   5.593   0.170
 4679SOL    HW226069   4.459   5.504   0.278
 4680SOL     OW26070   3.329   1.792   5.687
 4680SOL    HW126071   3.318   1.823   5.592
 4680SOL    HW226072   3.405   1.842   5.729
 4681SOL     OW26073   8.652   0.703   6.409
 4681SOL    HW126074   8.684   0.616   6.373
 4681SOL    HW226075   8.562   0.724   6.371
 4682SOL     OW26076   3.279   3.980   1.107
 4682SOL    HW126077   3.234   3.933   1.183
 4682SOL    HW226078   3.262   3.931   1.022
 4683SOL     OW26079   4.421   7.765   2.165
 4683SOL    HW126080   4.436   7.858   2.199
 4683SOL    HW226081   4.418   7.767   2.065
 4684SOL     OW26082   3.598   5.013   4.937
 4684SOL    HW126083   3.589   5.015   4.838
 4684SOL    HW226084   3.545   5.087   4.978
 4685SOL     OW26085   8.525   5.615   0.075
 4685SOL    HW126086   8.505   5.534   0.020
 4685SOL    HW226087   8.519   5.697   0.018
 4686SOL     OW26088   6.171   2.929   6.194
 4686SOL    HW126089   6.270   2.928   6.176
 4686SOL    HW226090   6.125   2.864   6.133
 4687SOL     OW26091   0.322   2.583   0.101
 4687SOL    HW126092   0.274   2.662   0.063
 4687SOL    HW226093   0.256   2.520   0.140
 4688SOL     OW26094   1.126   4.901   5.813
 4688SOL    HW126095   1.153   4.936   5.723
 4688SOL    HW226096   1.080   4.974   5.864
 4689SOL     OW26097   6.661   7.765   1.390
 4689SOL    HW126098   6.719   7.768   1.471
 4689SOL    HW226099   6.657   7.672   1.355
 4690SOL     OW26100   5.238   7.114   6.120
 4690SOL    HW126101   5.287   7.056   6.186
 4690SOL    HW226102   5.300   7.139   6.046
 4691SOL     OW26103   2.882   7.921   5.740
 4691SOL    HW126104   2.829   7.840   5.764
 4691SOL    HW226105   2.820   7.997   5.719
 4692SOL     OW26106   5.658   6.313   0.745
 4692SOL    HW126107   5.561   6.327   0.726
 4692SOL    HW226108   5.698   6.255   0.674
 4693SOL     OW26109   2.787   0.259   5.314
 4693SOL    HW126110   2.860   0.223   5.255
 4693SOL    HW226111   2.828   0.312   5.389
 4694SOL     OW26112   6.930   6.163   1.278
 4694SOL    HW126113   7.027   6.143   1.285
 4694SOL    HW226114   6.879   6.078   1.262
 4695SOL     OW26115   8.189   8.323   1.251
 4695SOL    HW126116   8.247   8.317   1.332
 4695SOL    HW226117   8.099   8.358   1.276
 4696SOL     OW26118   2.356   7.201   6.391
 4696SOL    HW126119   2.288   7.138   6.353
 4696SOL    HW226120   2.313   7.260   6.459
 4697SOL     OW26121   0.580   6.463   4.298
 4697SOL    HW126122   0.608   6.450   4.203
 4697SOL    HW226123   0.659   6.450   4.358
 4698SOL     OW26124   5.761   5.935   1.811
 4698SOL    HW126125   5.748   5.837   1.830
 4698SOL    HW226126   5.858   5.957   1.811
 4699SOL     OW26127   2.252   8.136   0.109
 4699SOL    HW126128   2.304   8.076   0.170
 4699SOL    HW226129   2.265   8.231   0.136
 4700SOL     OW26130   8.448   7.155   6.393
 4700SOL    HW126131   8.452   7.255   6.399
 4700SOL    HW226132   8.480   7.125   6.303
 4701SOL     OW26133   6.786   1.012   6.106
 4701SOL    HW126134   6.727   0.946   6.151
 4701SOL    HW226135   6.879   0.974   6.099
 4702SOL     OW26136   9.000   6.195   6.727
 4702SOL    HW126137   9.007   6.112   6.783
 4702SOL    HW226138   8.972   6.272   6.785
 4703SOL     OW26139   3.984   0.070   5.749
 4703SOL    HW126140   3.939   0.159   5.758
 4703SOL    HW226141   4.006   0.054   5.653
 4704SOL     OW26142   2.945   2.238   0.348
 4704SOL    HW126143   2.936   2.205   0.254
 4704SOL    HW226144   2.898   2.176   0.410
 4705SOL     OW26145   6.144   6.974   6.684
 4705SOL    HW126146   6.097   6.887   6.701
 4705SOL    HW226147   6.227   6.977   6.740
 4706SOL     OW26148   1.056   1.963   6.729
 4706SOL    HW126149   0.975   1.986   6.676
 4706SOL    HW226150   1.047   1.871   6.767
 4707SOL     OW26151   0.302   8.071   6.017
 4707SOL    HW126152   0.221   8.019   6.048
 4707SOL    HW226153   0.324   8.141   6.085
 4708SOL     OW26154   5.315   0.179   5.136
 4708SOL    HW126155   5.274   0.197   5.047
 4708SOL    HW226156   5.357   0.262   5.171
 4709SOL     OW26157   4.552   0.913   0.035
 4709SOL    HW126158   4.634   0.927  -0.021
 4709SOL    HW226159   4.535   0.995   0.090
 4710SOL     OW26160   3.792   3.129   0.194
 4710SOL    HW126161   3.830   3.037   0.187
 4710SOL    HW226162   3.847   3.192   0.139
 4711SOL     OW26163   8.686   4.882   6.457
 4711SOL    HW126164   8.748   4.844   6.525
 4711SOL    HW226165   8.658   4.974   6.485
 4712SOL     OW26166   5.971   1.563   5.935
 4712SOL    HW126167   5.893   1.501   5.931
 4712SOL    HW226168   5.985   1.604   5.845
 4713SOL     OW26169   3.812   6.318   5.783
 4713SOL    HW126170   3.886   6.288   5.724
 4713SOL    HW226171   3.826   6.415   5.807
 4714SOL     OW26172   0.279   5.544   5.624
 4714SOL    HW126173   0.275   5.644   5.634
 4714SOL    HW226174   0.373   5.516   5.605
 4715SOL     OW26175   3.656   2.022   0.781
 4715SOL    HW126176   3.695   2.068   0.701
 4715SOL    HW226177   3.720   1.952   0.813
 4716SOL     OW26178   7.349   4.252   6.580
 4716SOL    HW126179   7.380   4.280   6.489
 4716SOL    HW226180   7.282   4.317   6.614
 4717SOL     OW26181   2.333   4.833   6.692
 4717SOL    HW126182   2.418   4.867   6.733
 4717SOL    HW226183   2.266   4.907   6.687
 4718SOL     OW26184   8.311   6.588   5.543
 4718SOL    HW126185   8.388   6.646   5.517
 4718SOL    HW226186   8.345   6.496   5.564
 4719SOL     OW26187   9.198   7.936   6.078
 4719SOL    HW126188   9.279   7.917   6.022
 4719SOL    HW226189   9.184   8.034   6.084
 4720SOL     OW26190   4.246   2.123   0.071
 4720SOL    HW126191   4.238   2.222   0.058
 4720SOL    HW226192   4.173   2.077   0.020
 4721SOL     OW26193   8.472   0.103   0.820
 4721SOL    HW126194   8.508   0.155   0.897
 4721SOL    HW226195   8.397   0.045   0.852
 4722SOL     OW26196   8.247   6.914   0.738
 4722SOL    HW126197   8.252   6.856   0.819
 4722SOL    HW226198   8.199   6.865   0.665
 4723SOL     OW26199   9.209   3.509   1.388
 4723SOL    HW126200   9.165   3.435   1.440
 4723SOL    HW226201   9.179   3.597   1.425
 4724SOL     OW26202   5.811   6.850   1.087
 4724SOL    HW126203   5.809   6.831   1.185
 4724SOL    HW226204   5.846   6.770   1.038
 4725SOL     OW26205   4.531   7.674   0.794
 4725SOL    HW126206   4.439   7.706   0.816
 4725SOL    HW226207   4.531   7.574   0.792
 4726SOL     OW26208   2.882   7.444   5.559
 4726SOL    HW126209   2.930   7.395   5.486
 4726SOL    HW226210   2.937   7.440   5.642
 4727SOL     OW26211   4.344   1.846   1.685
 4727SOL    HW126212   4.370   1.921   1.745
 4727SOL    HW226213   4.285   1.782   1.734
 4728SOL     OW26214   7.526   0.154   5.791
 4728SOL    HW126215   7.517   0.243   5.746
 4728SOL    HW226216   7.470   0.153   5.873
 4729SOL     OW26217   9.231   5.544   4.842
 4729SOL    HW126218   9.307   5.542   4.777
 4729SOL    HW226219   9.146   5.565   4.793
 4730SOL     OW26220   4.509   5.249   0.785
 4730SOL    HW126221   4.447   5.312   0.738
 4730SOL    HW226222   4.495   5.256   0.884
 4731SOL     OW26223   0.586   1.294   6.340
 4731SOL    HW126224   0.524   1.293   6.261
 4731SOL    HW226225   0.672   1.250   6.315
 4732SOL     OW26226   7.976   6.943   4.955
 4732SOL    HW126227   7.920   7.025   4.969
 4732SOL    HW226228   7.916   6.864   4.943
 4733SOL     OW26229   3.749   6.079   0.570
 4733SOL    HW126230   3.803   6.161   0.582
 4733SOL    HW226231   3.672   6.079   0.635
 4734SOL     OW26232   8.745   6.342   5.803
 4734SOL    HW126233   8.707   6.257   5.840
 4734SOL    HW226234   8.830   6.365   5.852
 4735SOL     OW26235   3.777   7.397   2.398
 4735SOL    HW126236   3.808   7.302   2.396
 4735SOL    HW226237   3.790   7.435   2.490
 4736SOL     OW26238   8.990   2.876   0.757
 4736SOL    HW126239   9.034   2.864   0.669
 4736SOL    HW226240   9.035   2.818   0.826
 4737SOL     OW26241   6.959   5.583   5.125
 4737SOL    HW126242   6.968   5.566   5.223
 4737SOL    HW226243   6.908   5.668   5.110
 4738SOL     OW26244   4.479   5.298   1.053
 4738SOL    HW126245   4.382   5.277   1.065
 4738SOL    HW226246   4.493   5.396   1.066
 4739SOL     OW26247   6.105   4.699   5.658
 4739SOL    HW126248   6.057   4.623   5.614
 4739SOL    HW226249   6.090   4.696   5.757
 4740SOL     OW26250   1.273   6.886   4.341
 4740SOL    HW126251   1.321   6.899   4.254
 4740SOL    HW226252   1.238   6.792   4.346
 4741SOL     OW26253   0.389   0.222   6.290
 4741SOL    HW126254   0.449   0.148   6.322
 4741SOL    HW226255   0.345   0.265   6.368
 4742SOL     OW26256   2.863   0.872   5.726
 4742SOL    HW126257   2.811   0.847   5.644
 4742SOL    HW226258   2.914   0.792   5.759
 4743SOL     OW26259   2.800   6.859   6.177
 4743SOL    HW126260   2.865   6.886   6.247
 4743SOL    HW226261   2.781   6.937   6.117
 4744SOL     OW26262   0.791   6.187   4.812
 4744SOL    HW126263   0.816   6.121   4.883
 4744SOL    HW226264   0.866   6.196   4.747
 4745SOL     OW26265   5.797   3.783   6.371
 4745SOL    HW126266   5.829   3.702   6.322
 4745SOL    HW226267   5.728   3.756   6.438
 4746SOL     OW26268   3.461   7.264   6.699
 4746SOL    HW126269   3.530   7.197   6.726
 4746SOL    HW226270   3.458   7.338   6.766
 4747SOL     OW26271   3.656   7.597   1.101
 4747SOL    HW126272   3.590   7.560   1.036
 4747SOL    HW226273   3.639   7.694   1.114
 4748SOL     OW26274   4.466   4.579   0.923
 4748SOL    HW126275   4.462   4.611   0.828
 4748SOL    HW226276   4.532   4.504   0.929
 4749SOL     OW26277   5.314   4.184   0.855
 4749SOL    HW126278   5.362   4.248   0.916
 4749SOL    HW226279   5.358   4.184   0.765
 4750SOL     OW26280   4.047   0.921   0.638
 4750SOL    HW126281   4.129   0.977   0.626
 4750SOL    HW226282   4.056   0.838   0.584
 4751SOL     OW26283   6.108   0.191   1.045
 4751SOL    HW126284   6.185   0.128   1.029
 4751SOL    HW226285   6.078   0.228   0.957
 4752SOL     OW26286   6.111   2.234   5.465
 4752SOL    HW126287   6.188   2.291   5.440
 4752SOL    HW226288   6.036   2.248   5.400
 4753SOL     OW26289   0.286   7.502   5.411
 4753SOL    HW126290   0.239   7.471   5.329
 4753SOL    HW226291   0.245   7.459   5.492
 4754SOL     OW26292   1.311   6.302   0.509
 4754SOL    HW126293   1.308   6.208   0.475
 4754SOL    HW226294   1.390   6.349   0.469
 4755SOL     OW26295   8.234   7.259   0.368
 4755SOL    HW126296   8.213   7.161   0.370
 4755SOL    HW226297   8.258   7.290   0.460
 4756SOL     OW26298   3.604   5.939   0.011
 4756SOL    HW126299   3.597   6.005   0.086
 4756SOL    HW226300   3.547   5.969  -0.065
 4757SOL     OW26301   8.652   2.266   6.722
 4757SOL    HW126302   8.687   2.353   6.686
 4757SOL    HW226303   8.615   2.212   6.647
 4758SOL     OW26304   7.074   2.155   6.673
 4758SOL    HW126305   7.005   2.093   6.636
 4758SOL    HW226306   7.071   2.241   6.622
 4759SOL     OW26307   0.670   5.522   5.984
 4759SOL    HW126308   0.665   5.473   6.071
 4759SOL    HW226309   0.721   5.607   5.996
 4760SOL     OW26310   5.114   1.585   6.134
 4760SOL    HW126311   5.167   1.522   6.077
 4760SOL    HW226312   5.022   1.549   6.148
 4761SOL     OW26313   1.329   3.833   0.653
 4761SOL    HW126314   1.234   3.846   0.622
 4761SOL    HW226315   1.354   3.907   0.715
 4762SOL     OW26316   7.038   2.402   6.591
 4762SOL    HW126317   7.131   2.413   6.555
 4762SOL    HW226318   7.021   2.471   6.660
 4763SOL     OW26319   6.964   7.799   6.639
 4763SOL    HW126320   6.899   7.841   6.575
 4763SOL    HW226321   6.915   7.769   6.721
 4764SOL     OW26322   2.243   3.901   5.699
 4764SOL    HW126323   2.337   3.893   5.667
 4764SOL    HW226324   2.184   3.844   5.642
 4765SOL     OW26325   8.040   0.777   5.084
 4765SOL    HW126326   7.964   0.734   5.132
 4765SOL    HW226327   8.074   0.716   5.013
 4766SOL     OW26328   6.491   7.528   1.008
 4766SOL    HW126329   6.396   7.506   1.029
 4766SOL    HW226330   6.496   7.578   0.921
 4767SOL     OW26331   4.148   7.132   0.552
 4767SOL    HW126332   4.163   7.044   0.508
 4767SOL    HW226333   4.054   7.162   0.536
 4768SOL     OW26334   2.617   5.887   6.082
 4768SOL    HW126335   2.559   5.958   6.041
 4768SOL    HW226336   2.709   5.924   6.096
 4769SOL     OW26337   3.024   0.595   0.700
 4769SOL    HW126338   2.941   0.552   0.664
 4769SOL    HW226339   3.078   0.527   0.751
 4770SOL     OW26340   4.857   7.961   6.028
 4770SOL    HW126341   4.866   8.001   6.120
 4770SOL    HW226342   4.927   8.001   5.968
 4771SOL     OW26343   4.236   4.757   5.926
 4771SOL    HW126344   4.272   4.759   5.832
 4771SOL    HW226345   4.277   4.831   5.979
 4772SOL     OW26346   7.213   3.888   0.841
 4772SOL    HW126347   7.200   3.842   0.929
 4772SOL    HW226348   7.310   3.911   0.829
 4773SOL     OW26349   2.965   6.952   5.540
 4773SOL    HW126350   2.880   6.942   5.591
 4773SOL    HW226351   2.950   7.012   5.461
 4774SOL     OW26352   2.454   7.291   0.476
 4774SOL    HW126353   2.506   7.372   0.448
 4774SOL    HW226354   2.358   7.317   0.491
 4775SOL     OW26355   4.588   5.704   5.994
 4775SOL    HW126356   4.656   5.742   5.931
 4775SOL    HW226357   4.614   5.611   6.019
 4776SOL     OW26358   5.957   4.651   1.082
 4776SOL    HW126359   5.877   4.711   1.086
 4776SOL    HW226360   5.963   4.598   1.166
 4777SOL     OW26361   3.407   3.932   1.547
 4777SOL    HW126362   3.445   4.015   1.507
 4777SOL    HW226363   3.315   3.917   1.511
 4778SOL     OW26364   4.525   1.483   0.991
 4778SOL    HW126365   4.613   1.454   1.029
 4778SOL    HW226366   4.450   1.442   1.043
 4779SOL     OW26367   7.476   6.775   0.097
 4779SOL    HW126368   7.392   6.775   0.042
 4779SOL    HW226369   7.457   6.737   0.187
 4780SOL     OW26370   9.355   7.508   0.486
 4780SOL    HW126371   9.393   7.468   0.569
 4780SOL    HW226372   9.276   7.454   0.456
 4781SOL     OW26373   8.001   0.502   0.395
 4781SOL    HW126374   8.031   0.523   0.302
 4781SOL    HW226375   7.993   0.586   0.447
 4782SOL     OW26376   5.939   2.339   0.131
 4782SOL    HW126377   5.991   2.422   0.152
 4782SOL    HW226378   5.973   2.263   0.186
 4783SOL     OW26379   8.584   1.416   6.136
 4783SOL    HW126380   8.647   1.370   6.199
 4783SOL    HW226381   8.493   1.375   6.144
 4784SOL     OW26382   3.193   6.190   0.790
 4784SOL    HW126383   3.214   6.196   0.693
 4784SOL    HW226384   3.126   6.259   0.814
 4785SOL     OW26385   6.500   6.072   5.280
 4785SOL    HW126386   6.536   6.063   5.188
 4785SOL    HW226387   6.550   6.010   5.341
 4786SOL     OW26388   5.228   1.577   1.197
 4786SOL    HW126389   5.270   1.510   1.259
 4786SOL    HW226390   5.204   1.533   1.111
 4787SOL     OW26391   7.884   4.711   0.198
 4787SOL    HW126392   7.914   4.789   0.143
 4787SOL    HW226393   7.842   4.642   0.138
 4788SOL     OW26394   7.161   0.370   6.395
 4788SOL    HW126395   7.063   0.362   6.373
 4788SOL    HW226396   7.173   0.423   6.478
 4789SOL     OW26397   0.906   2.371   6.694
 4789SOL    HW126398   0.994   2.325   6.683
 4789SOL    HW226399   0.921   2.469   6.707
 4790SOL     OW26400   6.039   6.717   0.014
 4790SOL    HW126401   5.980   6.650   0.060
 4790SOL    HW226402   6.133   6.707   0.047
 4791SOL     OW26403   7.266   5.464   1.149
 4791SOL    HW126404   7.251   5.407   1.230
 4791SOL    HW226405   7.355   5.509   1.155
 4792SOL     OW26406   6.203   4.790   6.042
 4792SOL    HW126407   6.273   4.733   6.084
 4792SOL    HW226408   6.244   4.875   6.009
 4793SOL     OW26409   5.294   7.420   6.056
 4793SOL    HW126410   5.265   7.333   6.016
 4793SOL    HW226411   5.391   7.417   6.077
 4794SOL     OW26412   9.281   5.237   6.520
 4794SOL    HW126413   9.202   5.286   6.558
 4794SOL    HW226414   9.364   5.266   6.567
 4795SOL     OW26415   0.365   4.651   0.763
 4795SOL    HW126416   0.386   4.746   0.786
 4795SOL    HW226417   0.295   4.647   0.692
 4796SOL     OW26418   7.366   8.464   4.695
 4796SOL    HW126419   7.430   8.504   4.760
 4796SOL    HW226420   7.322   8.384   4.736
 4797SOL     OW26421   7.685   4.676   6.311
 4797SOL    HW126422   7.696   4.720   6.400
 4797SOL    HW226423   7.753   4.712   6.247
 4798SOL     OW26424   1.658   6.638   0.548
 4798SOL    HW126425   1.702   6.640   0.458
 4798SOL    HW226426   1.702   6.706   0.607
 4799SOL     OW26427   5.044   6.995   0.362
 4799SOL    HW126428   4.958   6.972   0.407
 4799SOL    HW226429   5.025   7.037   0.273
 4800SOL     OW26430   0.757   4.615   5.242
 4800SOL    HW126431   0.852   4.595   5.263
 4800SOL    HW226432   0.739   4.594   5.145
 4801SOL     OW26433   7.521   5.458   0.066
 4801SOL    HW126434   7.474   5.406  -0.005
 4801SOL    HW226435   7.613   5.483   0.034
 4802SOL     OW26436   1.742   3.446   5.574
 4802SOL    HW126437   1.675   3.399   5.516
 4802SOL    HW226438   1.781   3.381   5.639
 4803SOL     OW26439   8.823   7.983   1.371
 4803SOL    HW126440   8.732   8.024   1.362
 4803SOL    HW226441   8.864   8.012   1.457
 4804SOL     OW26442   1.918   8.441   0.521
 4804SOL    HW126443   2.013   8.446   0.550
 4804SOL    HW226444   1.908   8.377   0.445
 4805SOL     OW26445   7.074   6.477   0.171
 4805SOL    HW126446   7.075   6.383   0.205
 4805SOL    HW226447   7.016   6.482   0.089
 4806SOL     OW26448   3.889   7.083   0.074
 4806SOL    HW126449   3.983   7.099   0.041
 4806SOL    HW226450   3.883   6.993   0.115
 4807SOL     OW26451   2.217   7.172   5.928
 4807SOL    HW126452   2.156   7.190   6.005
 4807SOL    HW226453   2.176   7.208   5.844
 4808SOL     OW26454   7.355   4.576   0.643
 4808SOL    HW126455   7.303   4.650   0.601
 4808SOL    HW226456   7.430   4.550   0.583
 4809SOL     OW26457   7.455   8.014   0.216
 4809SOL    HW126458   7.502   8.085   0.268
 4809SOL    HW226459   7.392   7.965   0.277
 4810SOL     OW26460   1.195   6.390   1.223
 4810SOL    HW126461   1.229   6.484   1.234
 4810SOL    HW226462   1.159   6.379   1.130
 4811SOL     OW26463   6.000   8.439   1.120
 4811SOL    HW126464   5.994   8.383   1.202
 4811SOL    HW226465   6.050   8.523   1.140
 4812SOL     OW26466   6.682   3.135   0.878
 4812SOL    HW126467   6.761   3.150   0.819
 4812SOL    HW226468   6.704   3.066   0.947
 4813SOL     OW26469   4.653   8.403   6.164
 4813SOL    HW126470   4.565   8.434   6.127
 4813SOL    HW226471   4.669   8.309   6.137
 4814SOL     OW26472   7.909   2.911   1.105
 4814SOL    HW126473   7.910   2.821   1.062
 4814SOL    HW226474   7.843   2.912   1.180
 4815SOL     OW26475   1.382   7.661   5.207
 4815SOL    HW126476   1.457   7.618   5.156
 4815SOL    HW226477   1.302   7.670   5.148
 4816SOL     OW26478   4.539   8.399   1.034
 4816SOL    HW126479   4.574   8.492   1.022
 4816SOL    HW226480   4.563   8.366   1.125
 4817SOL     OW26481   2.217   1.759   5.745
 4817SOL    HW126482   2.202   1.857   5.754
 4817SOL    HW226483   2.199   1.732   5.650
 4818SOL     OW26484   9.115   3.747   1.527
 4818SOL    HW126485   9.063   3.830   1.503
 4818SOL    HW226486   9.123   3.740   1.626
 4819SOL     OW26487   5.136   1.842   1.296
 4819SOL    HW126488   5.125   1.861   1.393
 4819SOL    HW226489   5.164   1.746   1.284
 4820SOL     OW26490   3.241   7.912   1.587
 4820SOL    HW126491   3.247   7.902   1.686
 4820SOL    HW226492   3.178   7.843   1.551
 4821SOL     OW26493   0.671   0.390   6.080
 4821SOL    HW126494   0.705   0.331   6.153
 4821SOL    HW226495   0.721   0.477   6.081
 4822SOL     OW26496   2.791   2.204   1.542
 4822SOL    HW126497   2.733   2.141   1.594
 4822SOL    HW226498   2.812   2.164   1.453
 4823SOL     OW26499   0.441   8.373   5.690
 4823SOL    HW126500   0.390   8.415   5.765
 4823SOL    HW226501   0.395   8.289   5.661
 4824SOL     OW26502   5.893   8.329   5.368
 4824SOL    HW126503   5.878   8.409   5.426
 4824SOL    HW226504   5.991   8.319   5.349
 4825SOL     OW26505   0.861   0.915   1.932
 4825SOL    HW126506   0.944   0.939   1.982
 4825SOL    HW226507   0.791   0.985   1.950
 4826SOL     OW26508   5.571   2.800   5.598
 4826SOL    HW126509   5.500   2.856   5.555
 4826SOL    HW226510   5.539   2.706   5.607
 4827SOL     OW26511   4.098   1.053   5.741
 4827SOL    HW126512   4.098   1.147   5.706
 4827SOL    HW226513   4.142   1.051   5.831
 4828SOL     OW26514   2.576   4.821   5.907
 4828SOL    HW126515   2.623   4.867   5.833
 4828SOL    HW226516   2.596   4.723   5.904
 4829SOL     OW26517   0.134   3.925   6.612
 4829SOL    HW126518   0.105   3.832   6.589
 4829SOL    HW226519   0.219   3.921   6.664
 4830SOL     OW26520   0.710   1.288   5.010
 4830SOL    HW126521   0.679   1.376   5.047
 4830SOL    HW226522   0.807   1.295   4.985
 4831SOL     OW26523   6.122   7.203   0.699
 4831SOL    HW126524   6.184   7.281   0.686
 4831SOL    HW226525   6.033   7.225   0.659
 4832SOL     OW26526   0.433   7.329   1.952
 4832SOL    HW126527   0.373   7.408   1.944
 4832SOL    HW226528   0.401   7.270   2.026
 4833SOL     OW26529   0.452   5.762   4.303
 4833SOL    HW126530   0.380   5.764   4.372
 4833SOL    HW226531   0.529   5.709   4.337
 4834SOL     OW26532   5.585   3.512   1.041
 4834SOL    HW126533   5.587   3.607   1.072
 4834SOL    HW226534   5.655   3.459   1.089
 4835SOL     OW26535   2.910   8.414   6.063
 4835SOL    HW126536   2.944   8.475   5.991
 4835SOL    HW226537   2.813   8.431   6.079
 4836SOL     OW26538   7.369   4.455   6.089
 4836SOL    HW126539   7.337   4.549   6.103
 4836SOL    HW226540   7.370   4.434   5.992
 4837SOL     OW26541   8.847   3.629   5.888
 4837SOL    HW126542   8.785   3.655   5.962
 4837SOL    HW226543   8.861   3.707   5.827
 4838SOL     OW26544   5.501   8.495   0.100
 4838SOL    HW126545   5.493   8.396   0.110
 4838SOL    HW226546   5.585   8.526   0.146
 4839SOL     OW26547   8.059   0.189   6.605
 4839SOL    HW126548   8.038   0.151   6.515
 4839SOL    HW226549   8.151   0.163   6.633
 4840SOL     OW26550   6.122   7.804   0.434
 4840SOL    HW126551   6.080   7.760   0.513
 4840SOL    HW226552   6.069   7.784   0.352
 4841SOL     OW26553   0.555   6.455   4.783
 4841SOL    HW126554   0.568   6.385   4.854
 4841SOL    HW226555   0.628   6.449   4.716
 4842SOL     OW26556   0.847   4.284   6.437
 4842SOL    HW126557   0.845   4.341   6.519
 4842SOL    HW226558   0.823   4.339   6.357
 4843SOL     OW26559   6.502   4.260   5.466
 4843SOL    HW126560   6.554   4.344   5.482
 4843SOL    HW226561   6.410   4.270   5.505
 4844SOL     OW26562   6.441   2.650   0.360
 4844SOL    HW126563   6.456   2.647   0.262
 4844SOL    HW226564   6.374   2.721   0.382
 4845SOL     OW26565   0.231   5.385   5.974
 4845SOL    HW126566   0.155   5.450   5.967
 4845SOL    HW226567   0.225   5.318   5.901
 4846SOL     OW26568   1.597   5.774   6.130
 4846SOL    HW126569   1.601   5.839   6.054
 4846SOL    HW226570   1.645   5.690   6.105
 4847SOL     OW26571   7.430   8.057   0.966
 4847SOL    HW126572   7.418   8.146   0.922
 4847SOL    HW226573   7.358   8.043   1.034
 4848SOL     OW26574   4.506   6.521   5.583
 4848SOL    HW126575   4.481   6.467   5.503
 4848SOL    HW226576   4.487   6.618   5.566
 4849SOL     OW26577   1.380   1.893   0.026
 4849SOL    HW126578   1.424   1.831   0.091
 4849SOL    HW226579   1.283   1.901   0.048
 4850SOL     OW26580   3.684   2.819   1.286
 4850SOL    HW126581   3.616   2.752   1.316
 4850SOL    HW226582   3.723   2.790   1.199
 4851SOL     OW26583   2.727   3.405   0.958
 4851SOL    HW126584   2.795   3.447   0.898
 4851SOL    HW226585   2.771   3.336   1.016
 4852SOL     OW26586   6.511   8.254   1.421
 4852SOL    HW126587   6.521   8.155   1.431
 4852SOL    HW226588   6.522   8.297   1.510
 4853SOL     OW26589   4.117   5.137   0.396
 4853SOL    HW126590   4.133   5.096   0.306
 4853SOL    HW226591   4.181   5.096   0.462
 4854SOL     OW26592   8.743   8.230   0.520
 4854SOL    HW126593   8.834   8.192   0.501
 4854SOL    HW226594   8.689   8.231   0.436
 4855SOL     OW26595   6.369   5.381   6.644
 4855SOL    HW126596   6.386   5.468   6.691
 4855SOL    HW226597   6.272   5.357   6.653
 4856SOL     OW26598   3.834   6.761   5.514
 4856SOL    HW126599   3.756   6.803   5.561
 4856SOL    HW226600   3.839   6.664   5.538
 4857SOL     OW26601   5.340   0.999   1.137
 4857SOL    HW126602   5.320   1.075   1.199
 4857SOL    HW226603   5.258   0.975   1.085
 4858SOL     OW26604   2.616   6.405   5.630
 4858SOL    HW126605   2.579   6.482   5.579
 4858SOL    HW226606   2.646   6.334   5.567
 4859SOL     OW26607   7.075   5.072   0.261
 4859SOL    HW126608   6.998   5.021   0.222
 4859SOL    HW226609   7.136   5.101   0.187
 4860SOL     OW26610   2.565   1.782   5.991
 4860SOL    HW126611   2.575   1.690   6.029
 4860SOL    HW226612   2.539   1.777   5.895
 4861SOL     OW26613   0.996   7.559   5.327
 4861SOL    HW126614   0.994   7.653   5.293
 4861SOL    HW226615   1.048   7.502   5.263
 4862SOL     OW26616   6.280   0.893   1.876
 4862SOL    HW126617   6.349   0.932   1.815
 4862SOL    HW226618   6.317   0.811   1.919
 4863SOL     OW26619   4.513   6.820   2.122
 4863SOL    HW126620   4.421   6.785   2.141
 4863SOL    HW226621   4.567   6.749   2.078
 4864SOL     OW26622   8.288   1.683   6.612
 4864SOL    HW126623   8.371   1.714   6.658
 4864SOL    HW226624   8.312   1.635   6.528
 4865SOL     OW26625   9.237   5.347   0.967
 4865SOL    HW126626   9.319   5.339   1.023
 4865SOL    HW226627   9.156   5.336   1.025
 4866SOL     OW26628   6.110   5.947   1.304
 4866SOL    HW126629   6.135   5.945   1.401
 4866SOL    HW226630   6.045   6.022   1.288
 4867SOL     OW26631   7.233   5.776   5.269
 4867SOL    HW126632   7.285   5.735   5.194
 4867SOL    HW226633   7.147   5.726   5.281
 4868SOL     OW26634   5.353   1.570   5.695
 4868SOL    HW126635   5.435   1.529   5.654
 4868SOL    HW226636   5.346   1.666   5.665
 4869SOL     OW26637   1.905   7.631   5.011
 4869SOL    HW126638   1.904   7.592   4.919
 4869SOL    HW226639   1.987   7.601   5.060
 4870SOL     OW26640   9.305   6.574   0.195
 4870SOL    HW126641   9.375   6.619   0.139
 4870SOL    HW226642   9.345   6.548   0.283
 4871SOL     OW26643   6.923   6.405   1.135
 4871SOL    HW126644   6.835   6.397   1.089
 4871SOL    HW226645   6.945   6.320   1.182
 4872SOL     OW26646   9.448   1.054   0.148
 4872SOL    HW126647   9.439   1.029   0.244
 4872SOL    HW226648   9.405   1.143   0.132
 4873SOL     OW26649   0.377   0.002   5.435
 4873SOL    HW126650   0.428  -0.025   5.516
 4873SOL    HW226651   0.438   0.051   5.372
 4874SOL     OW26652   0.608   3.962   5.830
 4874SOL    HW126653   0.522   3.951   5.781
 4874SOL    HW226654   0.685   3.945   5.767
 4875SOL     OW26655   5.092   4.898   6.552
 4875SOL    HW126656   5.013   4.860   6.601
 4875SOL    HW226657   5.117   4.836   6.478
 4876SOL     OW26658   3.076   4.171   0.827
 4876SOL    HW126659   3.020   4.162   0.909
 4876SOL    HW226660   3.124   4.085   0.810
 4877SOL     OW26661   5.139   3.498   0.799
 4877SOL    HW126662   5.117   3.427   0.732
 4877SOL    HW226663   5.201   3.460   0.868
 4878SOL     OW26664   2.525   2.431   6.318
 4878SOL    HW126665   2.565   2.474   6.400
 4878SOL    HW226666   2.510   2.334   6.335
 4879SOL     OW26667   7.082   6.058   6.371
 4879SOL    HW126668   7.101   5.987   6.440
 4879SOL    HW226669   7.020   6.126   6.409
 4880SOL     OW26670   5.020   0.410   0.847
 4880SOL    HW126671   5.062   0.500   0.850
 4880SOL    HW226672   4.990   0.384   0.939
 4881SOL     OW26673   3.618   0.931   4.932
 4881SOL    HW126674   3.709   0.940   4.892
 4881SOL    HW226675   3.550   0.930   4.860
 4882SOL     OW26676   8.567   7.676   1.198
 4882SOL    HW126677   8.477   7.632   1.197
 4882SOL    HW226678   8.638   7.608   1.215
 4883SOL     OW26679   7.435   4.248   1.348
 4883SOL    HW126680   7.446   4.204   1.437
 4883SOL    HW226681   7.359   4.313   1.352
 4884SOL     OW26682   3.092   7.173   1.436
 4884SOL    HW126683   3.107   7.247   1.502
 4884SOL    HW226684   3.127   7.201   1.346
 4885SOL     OW26685   7.865   5.284   5.477
 4885SOL    HW126686   7.872   5.284   5.577
 4885SOL    HW226687   7.789   5.343   5.448
 4886SOL     OW26688   4.556   0.799   1.187
 4886SOL    HW126689   4.501   0.836   1.262
 4886SOL    HW226690   4.515   0.824   1.100
 4887SOL     OW26691   8.443   3.431   6.445
 4887SOL    HW126692   8.419   3.527   6.461
 4887SOL    HW226693   8.405   3.403   6.356
 4888SOL     OW26694   3.165   4.294   6.592
 4888SOL    HW126695   3.217   4.230   6.648
 4888SOL    HW226696   3.080   4.252   6.563
 4889SOL     OW26697   2.317   5.287   6.149
 4889SOL    HW126698   2.383   5.228   6.103
 4889SOL    HW226699   2.227   5.243   6.148
 4890SOL     OW26700   4.392   8.429   0.352
 4890SOL    HW126701   4.301   8.389   0.368
 4890SOL    HW226702   4.397   8.518   0.396
 4891SOL     OW26703   1.852   0.068   1.035
 4891SOL    HW126704   1.927   0.007   1.010
 4891SOL    HW226705   1.836   0.063   1.134
 4892SOL     OW26706   4.841   1.672   5.252
 4892SOL    HW126707   4.889   1.760   5.246
 4892SOL    HW226708   4.790   1.656   5.167
 4893SOL     OW26709   6.894   8.270   6.086
 4893SOL    HW126710   6.990   8.242   6.090
 4893SOL    HW226711   6.877   8.339   6.156
 4894SOL     OW26712   9.277   2.179   5.074
 4894SOL    HW126713   9.177   2.170   5.068
 4894SOL    HW226714   9.309   2.242   5.004
 4895SOL     OW26715   3.571   2.714   1.039
 4895SOL    HW126716   3.536   2.626   1.009
 4895SOL    HW226717   3.496   2.769   1.075
 4896SOL     OW26718   6.416   2.485   0.093
 4896SOL    HW126719   6.475   2.498   0.013
 4896SOL    HW226720   6.471   2.456   0.171
 4897SOL     OW26721   3.953   7.806   5.701
 4897SOL    HW126722   4.037   7.861   5.697
 4897SOL    HW226723   3.886   7.853   5.759
 4898SOL     OW26724   2.759   6.662   6.680
 4898SOL    HW126725   2.745   6.727   6.755
 4898SOL    HW226726   2.837   6.693   6.625
 4899SOL     OW26727   8.457   4.572   6.612
 4899SOL    HW126728   8.451   4.645   6.544
 4899SOL    HW226729   8.365   4.538   6.632
 4900SOL     OW26730   1.544   7.340   6.289
 4900SOL    HW126731   1.634   7.319   6.327
 4900SOL    HW226732   1.554   7.395   6.206
 4901SOL     OW26733   1.768   4.738   0.652
 4901SOL    HW126734   1.787   4.641   0.636
 4901SOL    HW226735   1.804   4.792   0.576
 4902SOL     OW26736   3.883   8.118   0.966
 4902SOL    HW126737   3.897   8.088   0.871
 4902SOL    HW226738   3.868   8.038   1.024
 4903SOL     OW26739   8.070   0.326   5.540
 4903SOL    HW126740   8.137   0.399   5.554
 4903SOL    HW226741   8.076   0.260   5.616
 4904SOL     OW26742   3.143   8.249   1.798
 4904SOL    HW126743   3.111   8.321   1.860
 4904SOL    HW226744   3.198   8.182   1.849
 4905SOL     OW26745   4.744   0.304   6.090
 4905SOL    HW126746   4.650   0.295   6.056
 4905SOL    HW226747   4.745   0.364   6.170
 4906SOL     OW26748   6.645   6.671   0.872
 4906SOL    HW126749   6.586   6.610   0.925
 4906SOL    HW226750   6.593   6.750   0.842
 4907SOL     OW26751   4.134   6.574   1.414
 4907SOL    HW126752   4.210   6.513   1.435
 4907SOL    HW226753   4.167   6.648   1.355
 4908SOL     OW26754   1.583   5.446   0.951
 4908SOL    HW126755   1.526   5.417   1.028
 4908SOL    HW226756   1.542   5.414   0.866
 4909SOL     OW26757   3.787   0.637   0.777
 4909SOL    HW126758   3.879   0.634   0.737
 4909SOL    HW226759   3.734   0.710   0.733
 4910SOL     OW26760   0.986   0.957   5.299
 4910SOL    HW126761   0.916   1.028   5.310
 4910SOL    HW226762   1.049   0.983   5.226
 4911SOL     OW26763   8.987   8.322   6.340
 4911SOL    HW126764   8.979   8.224   6.355
 4911SOL    HW226765   8.955   8.371   6.421
 4912SOL     OW26766   1.350   5.792   0.846
 4912SOL    HW126767   1.288   5.839   0.909
 4912SOL    HW226768   1.372   5.702   0.884
 4913SOL     OW26769   9.264   3.652   6.404
 4913SOL    HW126770   9.241   3.748   6.418
 4913SOL    HW226771   9.197   3.610   6.342
 4914SOL     OW26772   6.471   2.082   1.293
 4914SOL    HW126773   6.520   1.996   1.276
 4914SOL    HW226774   6.402   2.096   1.221
 4915SOL     OW26775   0.503   2.470   6.096
 4915SOL    HW126776   0.437   2.447   6.024
 4915SOL    HW226777   0.459   2.530   6.163
 4916SOL     OW26778   7.769   1.400   1.130
 4916SOL    HW126779   7.713   1.382   1.210
 4916SOL    HW226780   7.776   1.317   1.075
 4917SOL     OW26781   9.416   0.700   0.569
 4917SOL    HW126782   9.461   0.786   0.591
 4917SOL    HW226783   9.479   0.641   0.519
 4918SOL     OW26784   3.011   6.178   5.807
 4918SOL    HW126785   3.036   6.186   5.710
 4918SOL    HW226786   2.916   6.207   5.819
 4919SOL     OW26787   1.904   6.616   1.671
 4919SOL    HW126788   1.986   6.671   1.689
 4919SOL    HW226789   1.918   6.524   1.708
 4920SOL     OW26790   3.914   4.319   6.291
 4920SOL    HW126791   3.938   4.289   6.199
 4920SOL    HW226792   3.896   4.418   6.291
 4921SOL     OW26793   7.951   8.333   5.747
 4921SOL    HW126794   7.980   8.317   5.653
 4921SOL    HW226795   7.902   8.420   5.753
 4922SOL     OW26796   4.687   1.422   5.783
 4922SOL    HW126797   4.623   1.454   5.853
 4922SOL    HW226798   4.637   1.377   5.710
 4923SOL     OW26799   3.890   0.578   5.236
 4923SOL    HW126800   3.813   0.641   5.233
 4923SOL    HW226801   3.958   0.604   5.167
 4924SOL     OW26802   6.748   4.542   0.611
 4924SOL    HW126803   6.784   4.481   0.540
 4924SOL    HW226804   6.671   4.498   0.657
 4925SOL     OW26805   8.881   0.560   5.993
 4925SOL    HW126806   8.896   0.655   5.969
 4925SOL    HW226807   8.965   0.521   6.032
 4926SOL     OW26808   1.926   7.702   5.958
 4926SOL    HW126809   1.952   7.797   5.972
 4926SOL    HW226810   1.829   7.697   5.931
 4927SOL     OW26811   3.630   1.181   5.105
 4927SOL    HW126812   3.598   1.271   5.076
 4927SOL    HW226813   3.602   1.113   5.038
 4928SOL     OW26814   7.634   0.613   0.203
 4928SOL    HW126815   7.706   0.554   0.169
 4928SOL    HW226816   7.618   0.593   0.300
 4929SOL     OW26817   2.258   1.274   0.117
 4929SOL    HW126818   2.310   1.344   0.069
 4929SOL    HW226819   2.309   1.245   0.199
 4930SOL     OW26820   7.471   7.278   6.523
 4930SOL    HW126821   7.513   7.249   6.609
 4930SOL    HW226822   7.405   7.209   6.494
 4931SOL     OW26823   1.585   7.522   5.053
 4931SOL    HW126824   1.673   7.475   5.060
 4931SOL    HW226825   1.576   7.562   4.961
 4932SOL     OW26826   8.285   4.830   5.156
 4932SOL    HW126827   8.267   4.823   5.058
 4932SOL    HW226828   8.316   4.922   5.178
 4933SOL     OW26829   4.805   6.901   0.673
 4933SOL    HW126830   4.796   6.860   0.582
 4933SOL    HW226831   4.721   6.885   0.725
 4934SOL     OW26832   7.407   6.751   5.868
 4934SOL    HW126833   7.391   6.738   5.770
 4934SOL    HW226834   7.328   6.718   5.919
 4935SOL     OW26835   0.615   5.748   5.572
 4935SOL    HW126836   0.586   5.709   5.484
 4935SOL    HW226837   0.588   5.844   5.576
 4936SOL     OW26838   3.906   4.716   0.881
 4936SOL    HW126839   3.900   4.666   0.967
 4936SOL    HW226840   3.970   4.792   0.890
 4937SOL     OW26841   3.845   0.764   5.540
 4937SOL    HW126842   3.818   0.734   5.448
 4937SOL    HW226843   3.801   0.852   5.560
 4938SOL     OW26844   8.098   7.147   5.701
 4938SOL    HW126845   8.139   7.145   5.792
 4938SOL    HW226846   8.126   7.231   5.654
 4939SOL     OW26847   1.720   1.172   4.862
 4939SOL    HW126848   1.752   1.077   4.867
 4939SOL    HW226849   1.795   1.231   4.832
 4940SOL     OW26850   9.432   3.031   6.685
 4940SOL    HW126851   9.398   2.938   6.672
 4940SOL    HW226852   9.532   3.032   6.678
 4941SOL     OW26853   4.241   0.399   1.881
 4941SOL    HW126854   4.249   0.490   1.840
 4941SOL    HW226855   4.235   0.407   1.980
 4942SOL     OW26856   0.028   0.077   6.536
 4942SOL    HW126857   0.051   0.144   6.466
 4942SOL    HW226858   0.015  -0.013   6.493
 4943SOL     OW26859   7.776   5.163   6.030
 4943SOL    HW126860   7.766   5.248   5.977
 4943SOL    HW226861   7.864   5.121   6.009
 4944SOL     OW26862   1.632   2.187   6.640
 4944SOL    HW126863   1.588   2.272   6.668
 4944SOL    HW226864   1.575   2.141   6.571
 4945SOL     OW26865   7.092   8.332   6.638
 4945SOL    HW126866   7.128   8.241   6.621
 4945SOL    HW226867   6.992   8.331   6.629
 4946SOL     OW26868   6.372   2.171   0.238
 4946SOL    HW126869   6.367   2.072   0.244
 4946SOL    HW226870   6.468   2.200   0.239
 4947SOL     OW26871   8.405   2.734   0.669
 4947SOL    HW126872   8.382   2.814   0.724
 4947SOL    HW226873   8.478   2.683   0.714
 4948SOL     OW26874   4.000   7.285   1.538
 4948SOL    HW126875   4.078   7.223   1.547
 4948SOL    HW226876   3.978   7.324   1.628
 4949SOL     OW26877   9.025   8.448   5.707
 4949SOL    HW126878   8.996   8.535   5.669
 4949SOL    HW226879   8.979   8.433   5.795
 4950SOL     OW26880   4.793   3.766   0.459
 4950SOL    HW126881   4.841   3.802   0.539
 4950SOL    HW226882   4.814   3.668   0.448
 4951SOL     OW26883   2.158   4.671   0.685
 4951SOL    HW126884   2.096   4.622   0.745
 4951SOL    HW226885   2.129   4.658   0.590
 4952SOL     OW26886   6.421   5.447   5.362
 4952SOL    HW126887   6.457   5.540   5.371
 4952SOL    HW226888   6.340   5.449   5.303
 4953SOL     OW26889   0.493   7.110   1.753
 4953SOL    HW126890   0.543   7.032   1.790
 4953SOL    HW226891   0.495   7.185   1.818
 4954SOL     OW26892   8.851   2.082   0.419
 4954SOL    HW126893   8.848   2.118   0.326
 4954SOL    HW226894   8.905   2.143   0.477
 4955SOL     OW26895   7.277   4.760   6.323
 4955SOL    HW126896   7.197   4.748   6.264
 4955SOL    HW226897   7.273   4.694   6.398
 4956SOL     OW26898   6.442   0.643   1.116
 4956SOL    HW126899   6.462   0.578   1.043
 4956SOL    HW226900   6.502   0.625   1.194
 4957SOL     OW26901   6.760   6.925   0.735
 4957SOL    HW126902   6.661   6.931   0.748
 4957SOL    HW226903   6.789   6.993   0.668
 4958SOL     OW26904   1.405   8.337   0.802
 4958SOL    HW126905   1.474   8.364   0.734
 4958SOL    HW226906   1.444   8.345   0.894
 4959SOL     OW26907   3.899   4.185   1.594
 4959SOL    HW126908   3.823   4.181   1.659
 4959SOL    HW226909   3.985   4.199   1.644
 4960SOL     OW26910   6.958   2.874   0.028
 4960SOL    HW126911   7.056   2.861   0.040
 4960SOL    HW226912   6.930   2.961   0.068
 4961SOL     OW26913   6.792   1.363   0.023
 4961SOL    HW126914   6.802   1.425  -0.055
 4961SOL    HW226915   6.771   1.271  -0.009
 4962SOL     OW26916   8.333   6.025   0.912
 4962SOL    HW126917   8.407   5.992   0.854
 4962SOL    HW226918   8.367   6.098   0.971
 4963SOL     OW26919   5.829   2.807   5.496
 4963SOL    HW126920   5.817   2.738   5.425
 4963SOL    HW226921   5.746   2.814   5.551
 4964SOL     OW26922   3.077   5.623   0.935
 4964SOL    HW126923   3.042   5.709   0.971
 4964SOL    HW226924   3.125   5.573   1.007
 4965SOL     OW26925   2.421   6.668   0.805
 4965SOL    HW126926   2.496   6.724   0.840
 4965SOL    HW226927   2.458   6.581   0.770
 4966SOL     OW26928   1.250   1.142   1.060
 4966SOL    HW126929   1.253   1.183   1.152
 4966SOL    HW226930   1.201   1.056   1.064
 4967SOL     OW26931   0.402   6.055   1.165
 4967SOL    HW126932   0.455   6.083   1.246
 4967SOL    HW226933   0.313   6.022   1.193
 4968SOL     OW26934   3.494   3.822   0.386
 4968SOL    HW126935   3.493   3.919   0.412
 4968SOL    HW226936   3.553   3.811   0.306
 4969SOL     OW26937   0.047   6.085   5.753
 4969SOL    HW126938  -0.043   6.120   5.780
 4969SOL    HW226939   0.043   5.986   5.744
 4970SOL     OW26940   5.992   1.539   5.613
 4970SOL    HW126941   5.938   1.587   5.545
 4970SOL    HW226942   5.984   1.440   5.599
 4971SOL     OW26943   4.215   3.332   5.413
 4971SOL    HW126944   4.286   3.266   5.388
 4971SOL    HW226945   4.166   3.360   5.330
 4972SOL     OW26946   4.023   1.981   5.684
 4972SOL    HW126947   4.072   1.921   5.621
 4972SOL    HW226948   4.087   2.017   5.752
 4973SOL     OW26949   7.826   6.661   0.619
 4973SOL    HW126950   7.867   6.575   0.591
 4973SOL    HW226951   7.785   6.651   0.710
 4974SOL     OW26952   6.564   2.650   1.795
 4974SOL    HW126953   6.563   2.604   1.883
 4974SOL    HW226954   6.653   2.693   1.781
 4975SOL     OW26955   4.555   6.496   5.872
 4975SOL    HW126956   4.543   6.530   5.778
 4975SOL    HW226957   4.489   6.423   5.889
 4976SOL     OW26958   2.702   7.237   5.624
 4976SOL    HW126959   2.744   7.325   5.599
 4976SOL    HW226960   2.630   7.253   5.691
 4977SOL     OW26961   6.268   0.483   0.467
 4977SOL    HW126962   6.175   0.485   0.504
 4977SOL    HW226963   6.326   0.547   0.519
 4978SOL     OW26964   1.412   4.002   1.149
 4978SOL    HW126965   1.431   3.963   1.239
 4978SOL    HW226966   1.321   3.973   1.119
 4979SOL     OW26967   1.006   6.831   0.861
 4979SOL    HW126968   0.957   6.811   0.945
 4979SOL    HW226969   1.101   6.854   0.882
 4980SOL     OW26970   1.675   5.018   5.680
 4980SOL    HW126971   1.609   5.029   5.606
 4980SOL    HW226972   1.765   4.996   5.641
 4981SOL     OW26973   8.971   6.381   0.201
 4981SOL    HW126974   8.996   6.476   0.220
 4981SOL    HW226975   8.909   6.347   0.271
 4982SOL     OW26976   7.392   4.320   6.328
 4982SOL    HW126977   7.392   4.383   6.250
 4982SOL    HW226978   7.405   4.226   6.295
 4983SOL     OW26979   4.063   6.783   5.679
 4983SOL    HW126980   4.113   6.710   5.633
 4983SOL    HW226981   3.973   6.794   5.637
 4984SOL     OW26982   4.920   5.283   1.228
 4984SOL    HW126983   4.988   5.339   1.181
 4984SOL    HW226984   4.861   5.238   1.161
 4985SOL     OW26985   8.274   5.609   0.678
 4985SOL    HW126986   8.352   5.549   0.655
 4985SOL    HW226987   8.207   5.605   0.605
 4986SOL     OW26988   3.411   4.212   1.617
 4986SOL    HW126989   3.463   4.290   1.582
 4986SOL    HW226990   3.314   4.226   1.599
 4987SOL     OW26991   4.720   5.745   0.547
 4987SOL    HW126992   4.721   5.817   0.617
 4987SOL    HW226993   4.737   5.785   0.457
 4988SOL     OW26994   3.035   4.824   5.609
 4988SOL    HW126995   3.104   4.752   5.603
 4988SOL    HW226996   3.062   4.900   5.549
 4989SOL     OW26997   0.307   6.530   5.342
 4989SOL    HW126998   0.339   6.441   5.374
 4989SOL    HW226999   0.211   6.542   5.365
 4990SOL     OW27000   8.921   2.940   5.530
 4990SOL    HW127001   8.984   2.919   5.604
 4990SOL    HW227002   8.866   3.020   5.553
 4991SOL     OW27003   8.564   7.389   5.023
 4991SOL    HW127004   8.578   7.291   5.006
 4991SOL    HW227005   8.593   7.441   4.943
 4992SOL     OW27006   8.772   0.420   0.436
 4992SOL    HW127007   8.833   0.470   0.497
 4992SOL    HW227008   8.782   0.455   0.343
 4993SOL     OW27009   3.329   2.324   1.124
 4993SOL    HW127010   3.395   2.298   1.194
 4993SOL    HW227011   3.243   2.352   1.168
 4994SOL     OW27012   9.422   3.654   0.139
 4994SOL    HW127013   9.354   3.580   0.139
 4994SOL    HW227014   9.511   3.616   0.111
 4995SOL     OW27015   6.569   4.751   6.002
 4995SOL    HW127016   6.635   4.826   6.001
 4995SOL    HW227017   6.513   4.754   5.919
 4996SOL     OW27018   0.638   7.857   0.547
 4996SOL    HW127019   0.672   7.782   0.605
 4996SOL    HW227020   0.707   7.879   0.478
 4997SOL     OW27021   5.059   8.457   6.497
 4997SOL    HW127022   4.966   8.435   6.465
 4997SOL    HW227023   5.086   8.546   6.460
 4998SOL     OW27024   7.451   8.298   6.134
 4998SOL    HW127025   7.506   8.223   6.170
 4998SOL    HW227026   7.510   8.363   6.086
 4999SOL     OW27027   0.766   0.292   6.337
 4999SOL    HW127028   0.741   0.231   6.413
 4999SOL    HW227029   0.843   0.349   6.364
 5000SOL     OW27030   5.673   0.266   0.585
 5000SOL    HW127031   5.681   0.166   0.582
 5000SOL    HW227032   5.655   0.301   0.492
 5001SOL     OW27033   5.331   0.390   6.481
 5001SOL    HW127034   5.291   0.470   6.526
 5001SOL    HW227035   5.353   0.412   6.386
 5002SOL     OW27036   2.798   6.755   0.624
 5002SOL    HW127037   2.838   6.845   0.612
 5002SOL    HW227038   2.868   6.685   0.609
 5003SOL     OW27039   5.629   1.455   0.682
 5003SOL    HW127040   5.634   1.488   0.776
 5003SOL    HW227041   5.709   1.398   0.662
 5004SOL     OW27042   4.736   0.500   6.250
 5004SOL    HW127043   4.672   0.555   6.303
 5004SOL    HW227044   4.819   0.553   6.231
 5005SOL     OW27045   7.522   8.059   5.865
 5005SOL    HW127046   7.457   8.097   5.800
 5005SOL    HW227047   7.615   8.087   5.840
 5006SOL     OW27048   0.470   2.141   0.208
 5006SOL    HW127049   0.423   2.110   0.125
 5006SOL    HW227050   0.550   2.195   0.182
 5007SOL     OW27051   1.939   0.443   1.401
 5007SOL    HW127052   1.864   0.403   1.453
 5007SOL    HW227053   1.927   0.425   1.304
 5008SOL     OW27054   1.837   3.446   0.959
 5008SOL    HW127055   1.823   3.364   1.014
 5008SOL    HW227056   1.919   3.435   0.903
 5009SOL     OW27057   6.759   1.528   1.588
 5009SOL    HW127058   6.798   1.605   1.538
 5009SOL    HW227059   6.715   1.563   1.672
 5010SOL     OW27060   6.095   7.598   5.835
 5010SOL    HW127061   6.024   7.596   5.905
 5010SOL    HW227062   6.072   7.533   5.762
 5011SOL     OW27063   1.736   7.539   0.594
 5011SOL    HW127064   1.695   7.620   0.638
 5011SOL    HW227065   1.832   7.557   0.574
 5012SOL     OW27066   2.280   0.477   5.528
 5012SOL    HW127067   2.281   0.430   5.440
 5012SOL    HW227068   2.327   0.422   5.597
 5013SOL     OW27069   3.328   4.382   5.876
 5013SOL    HW127070   3.352   4.285   5.887
 5013SOL    HW227071   3.229   4.389   5.861
 5014SOL     OW27072   4.395   4.241   6.604
 5014SOL    HW127073   4.457   4.313   6.635
 5014SOL    HW227074   4.313   4.282   6.564
 5015SOL     OW27075   1.275   0.067   0.559
 5015SOL    HW127076   1.365   0.106   0.582
 5015SOL    HW227077   1.228   0.042   0.644
 5016SOL     OW27078   3.972   1.071   1.931
 5016SOL    HW127079   3.910   0.995   1.949
 5016SOL    HW227080   3.922   1.145   1.886
 5017SOL     OW27081   0.426   4.166   0.703
 5017SOL    HW127082   0.358   4.105   0.662
 5017SOL    HW227083   0.493   4.193   0.633
 5018SOL     OW27084   5.848   1.638   0.595
 5018SOL    HW127085   5.749   1.628   0.605
 5018SOL    HW227086   5.875   1.730   0.624
 5019SOL     OW27087   6.501   3.787   0.859
 5019SOL    HW127088   6.531   3.868   0.909
 5019SOL    HW227089   6.473   3.814   0.767
 5020SOL     OW27090   7.189   8.225   6.205
 5020SOL    HW127091   7.282   8.253   6.181
 5020SOL    HW227092   7.154   8.286   6.276
 5021SOL     OW27093   6.293   1.774   6.346
 5021SOL    HW127094   6.202   1.737   6.328
 5021SOL    HW227095   6.285   1.866   6.385
 5022SOL     OW27096   4.709   7.998   0.297
 5022SOL    HW127097   4.610   7.984   0.292
 5022SOL    HW227098   4.750   7.977   0.208
 5023SOL     OW27099   5.959   4.438   0.880
 5023SOL    HW127100   5.967   4.497   0.960
 5023SOL    HW227101   5.889   4.369   0.896
 5024SOL     OW27102   8.821   5.296   6.396
 5024SOL    HW127103   8.819   5.388   6.357
 5024SOL    HW227104   8.872   5.235   6.335
 5025SOL     OW27105   9.366   3.915   0.192
 5025SOL    HW127106   9.439   3.979   0.168
 5025SOL    HW227107   9.396   3.822   0.172
 5026SOL     OW27108   9.292   4.075   0.688
 5026SOL    HW127109   9.217   4.043   0.630
 5026SOL    HW227110   9.310   4.171   0.667
 5027SOL     OW27111   2.658   1.125   1.527
 5027SOL    HW127112   2.743   1.178   1.534
 5027SOL    HW227113   2.680   1.030   1.505
 5028SOL     OW27114   6.220   6.228   1.192
 5028SOL    HW127115   6.225   6.328   1.186
 5028SOL    HW227116   6.230   6.200   1.288
 5029SOL     OW27117   7.195   6.075   0.204
 5029SOL    HW127118   7.178   5.988   0.250
 5029SOL    HW227119   7.293   6.093   0.200
 5030SOL     OW27120   1.682   3.932   0.745
 5030SOL    HW127121   1.699   3.834   0.756
 5030SOL    HW227122   1.632   3.966   0.824
 5031SOL     OW27123   6.729   2.998   6.344
 5031SOL    HW127124   6.694   3.058   6.416
 5031SOL    HW227125   6.761   2.912   6.384
 5032SOL     OW27126   3.978   6.040   6.665
 5032SOL    HW127127   3.948   5.945   6.656
 5032SOL    HW227128   4.073   6.048   6.636
 5033SOL     OW27129   3.218   7.180   0.068
 5033SOL    HW127130   3.291   7.199   0.002
 5033SOL    HW227131   3.162   7.105   0.034
 5034SOL     OW27132   4.155   5.871   0.604
 5034SOL    HW127133   4.192   5.944   0.661
 5034SOL    HW227134   4.188   5.783   0.636
 5035SOL     OW27135   3.090   1.476   6.353
 5035SOL    HW127136   3.128   1.390   6.386
 5035SOL    HW227137   3.134   1.552   6.401
 5036SOL     OW27138   3.744   1.811   0.170
 5036SOL    HW127139   3.735   1.718   0.132
 5036SOL    HW227140   3.688   1.874   0.116
 5037SOL     OW27141   2.668   5.453   0.878
 5037SOL    HW127142   2.608   5.374   0.869
 5037SOL    HW227143   2.737   5.435   0.948
 5038SOL     OW27144   0.626   1.854   6.566
 5038SOL    HW127145   0.527   1.842   6.570
 5038SOL    HW227146   0.661   1.822   6.478
 5039SOL     OW27147   0.736   2.594   0.315
 5039SOL    HW127148   0.819   2.647   0.328
 5039SOL    HW227149   0.742   2.508   0.365
 5040SOL     OW27150   2.642   7.548   0.661
 5040SOL    HW127151   2.558   7.506   0.696
 5040SOL    HW227152   2.713   7.545   0.732
 5041SOL     OW27153   2.386   1.699   5.358
 5041SOL    HW127154   2.379   1.603   5.331
 5041SOL    HW227155   2.314   1.752   5.313
 5042SOL     OW27156   6.895   7.442   0.507
 5042SOL    HW127157   6.962   7.516   0.501
 5042SOL    HW227158   6.839   7.441   0.424
 5043SOL     OW27159   6.153   6.760   0.737
 5043SOL    HW127160   6.173   6.667   0.705
 5043SOL    HW227161   6.145   6.821   0.658
 5044SOL     OW27162   0.304   7.514   5.929
 5044SOL    HW127163   0.366   7.586   5.960
 5044SOL    HW227164   0.346   7.424   5.947
 5045SOL     OW27165   1.938   5.578   5.086
 5045SOL    HW127166   1.874   5.502   5.075
 5045SOL    HW227167   1.948   5.626   4.999
 5046SOL     OW27168   4.410   2.223   0.420
 5046SOL    HW127169   4.372   2.144   0.469
 5046SOL    HW227170   4.352   2.244   0.341
 5047SOL     OW27171   7.185   4.382   0.770
 5047SOL    HW127172   7.123   4.423   0.837
 5047SOL    HW227173   7.222   4.453   0.710
 5048SOL     OW27174   4.704   3.894   0.232
 5048SOL    HW127175   4.735   3.859   0.320
 5048SOL    HW227176   4.658   3.982   0.246
 5049SOL     OW27177   1.779   7.206   6.030
 5049SOL    HW127178   1.869   7.243   6.054
 5049SOL    HW227179   1.709   7.276   6.044
 5050SOL     OW27180   2.189   7.657   0.711
 5050SOL    HW127181   2.139   7.675   0.627
 5050SOL    HW227182   2.159   7.720   0.783
 5051SOL     OW27183   3.703   0.580   6.716
 5051SOL    HW127184   3.782   0.521   6.701
 5051SOL    HW227185   3.624   0.541   6.667
 5052SOL     OW27186   0.291   8.436   0.707
 5052SOL    HW127187   0.283   8.341   0.675
 5052SOL    HW227188   0.256   8.497   0.636
 5053SOL     OW27189   8.080   2.354   6.720
 5053SOL    HW127190   8.012   2.427   6.713
 5053SOL    HW227191   8.106   2.342   6.816
 5054SOL     OW27192   5.045   1.776   0.228
 5054SOL    HW127193   5.007   1.864   0.201
 5054SOL    HW227194   5.040   1.766   0.328
 5055SOL     OW27195   7.072   3.307   6.287
 5055SOL    HW127196   7.144   3.378   6.283
 5055SOL    HW227197   6.990   3.341   6.240
 5056SOL     OW27198   4.958   5.571   0.515
 5056SOL    HW127199   4.998   5.603   0.601
 5056SOL    HW227200   4.875   5.624   0.495
 5057SOL     OW27201   9.156   7.140   1.162
 5057SOL    HW127202   9.083   7.104   1.221
 5057SOL    HW227203   9.206   7.211   1.211
 5058SOL     OW27204   4.460   3.691   0.217
 5058SOL    HW127205   4.401   3.642   0.154
 5058SOL    HW227206   4.532   3.738   0.166
 5059SOL     OW27207   7.519   7.153   0.767
 5059SOL    HW127208   7.588   7.204   0.818
 5059SOL    HW227209   7.442   7.213   0.747
 5060SOL     OW27210   6.026   5.126   0.707
 5060SOL    HW127211   6.042   5.176   0.621
 5060SOL    HW227212   6.109   5.128   0.762
 5061SOL     OW27213   0.110   6.082   4.568
 5061SOL    HW127214   0.118   6.110   4.664
 5061SOL    HW227215   0.077   6.160   4.514
 5062SOL     OW27216   5.036   0.061   1.111
 5062SOL    HW127217   5.124   0.103   1.090
 5062SOL    HW227218   5.030  -0.029   1.067
 5063SOL     OW27219   9.315   4.735   0.320
 5063SOL    HW127220   9.281   4.644   0.295
 5063SOL    HW227221   9.399   4.755   0.270
 5064SOL     OW27222   4.275   4.031   0.924
 5064SOL    HW127223   4.304   4.116   0.880
 5064SOL    HW227224   4.178   4.038   0.949
 5065SOL     OW27225   5.814   7.822   0.543
 5065SOL    HW127226   5.771   7.911   0.524
 5065SOL    HW227227   5.753   7.749   0.516
 5066SOL     OW27228   3.981   7.176   5.141
 5066SOL    HW127229   3.912   7.120   5.095
 5066SOL    HW227230   4.059   7.191   5.080
 5067SOL     OW27231   4.249   6.077   0.750
 5067SOL    HW127232   4.264   6.137   0.829
 5067SOL    HW227233   4.267   6.128   0.666
 5068SOL     OW27234   8.917   1.543   0.668
 5068SOL    HW127235   8.920   1.469   0.736
 5068SOL    HW227236   9.004   1.591   0.668
 5069SOL     OW27237   7.484   7.841   0.764
 5069SOL    HW127238   7.473   7.920   0.824
 5069SOL    HW227239   7.410   7.775   0.783
 5070SOL     OW27240   1.952   0.010   5.606
 5070SOL    HW127241   2.020   0.079   5.630
 5070SOL    HW227242   1.883   0.050   5.546
 5071SOL     OW27243   0.430   3.235   5.241
 5071SOL    HW127244   0.523   3.270   5.249
 5071SOL    HW227245   0.417   3.193   5.152
 5072SOL     OW27246   0.794   8.029   0.011
 5072SOL    HW127247   0.797   7.932  -0.011
 5072SOL    HW227248   0.766   8.041   0.107
 5073SOL     OW27249   0.081   3.405   0.081
 5073SOL    HW127250   0.148   3.433   0.150
 5073SOL    HW227251   0.015   3.342   0.123
 5074SOL     OW27252   1.505   0.618   6.648
 5074SOL    HW127253   1.459   0.687   6.591
 5074SOL    HW227254   1.441   0.587   6.719
 5075SOL     OW27255   3.669   1.261   1.400
 5075SOL    HW127256   3.765   1.232   1.394
 5075SOL    HW227257   3.664   1.353   1.437
 5076SOL     OW27258   0.949   3.496   0.343
 5076SOL    HW127259   0.914   3.432   0.274
 5076SOL    HW227260   1.046   3.512   0.326
 5077SOL     OW27261   7.310   8.089   6.691
 5077SOL    HW127262   7.367   8.049   6.763
 5077SOL    HW227263   7.272   8.015   6.635
 5078SOL     OW27264   2.478   7.591   6.367
 5078SOL    HW127265   2.472   7.561   6.463
 5078SOL    HW227266   2.491   7.511   6.309
 5079SOL     OW27267   4.484   3.307   0.333
 5079SOL    HW127268   4.526   3.367   0.265
 5079SOL    HW227269   4.547   3.233   0.356
 5080SOL     OW27270   4.256   8.090   0.575
 5080SOL    HW127271   4.263   7.990   0.579
 5080SOL    HW227272   4.287   8.129   0.662
 5081SOL     OW27273   1.577   5.963   5.903
 5081SOL    HW127274   1.501   6.026   5.892
 5081SOL    HW227275   1.570   5.891   5.834
 5082SOL     OW27276   2.487   3.276   0.801
 5082SOL    HW127277   2.569   3.315   0.844
 5082SOL    HW227278   2.423   3.349   0.780
 5083SOL     OW27279   1.372   4.465   0.676
 5083SOL    HW127280   1.310   4.466   0.598
 5083SOL    HW227281   1.463   4.436   0.646
 5084SOL     OW27282   1.111   2.605   4.447
 5084SOL    HW127283   1.205   2.625   4.474
 5084SOL    HW227284   1.112   2.549   4.364
 5085SOL     OW27285   3.656   7.875   1.252
 5085SOL    HW127286   3.718   7.945   1.218
 5085SOL    HW227287   3.578   7.918   1.297
 5086SOL     OW27288   9.344   8.191   5.092
 5086SOL    HW127289   9.403   8.163   5.016
 5086SOL    HW227290   9.306   8.281   5.073
 5087SOL     OW27291   7.398   5.222   0.985
 5087SOL    HW127292   7.355   5.259   1.067
 5087SOL    HW227293   7.490   5.188   1.008
 5088SOL     OW27294   5.042   4.656   1.078
 5088SOL    HW127295   5.077   4.655   1.172
 5088SOL    HW227296   5.110   4.615   1.017
 5089SOL     OW27297   5.066   0.745   5.590
 5089SOL    HW127298   5.040   0.778   5.499
 5089SOL    HW227299   5.114   0.657   5.580
 5090SOL     OW27300   5.819   1.900   5.459
 5090SOL    HW127301   5.749   1.956   5.415
 5090SOL    HW227302   5.825   1.811   5.412
 5091SOL     OW27303   2.060   5.850   6.563
 5091SOL    HW127304   2.148   5.892   6.540
 5091SOL    HW227305   2.064   5.813   6.656
 5092SOL     OW27306   6.280   4.701   5.458
 5092SOL    HW127307   6.227   4.706   5.542
 5092SOL    HW227308   6.218   4.703   5.379
 5093SOL     OW27309   0.240   0.539   0.677
 5093SOL    HW127310   0.182   0.552   0.597
 5093SOL    HW227311   0.188   0.562   0.760
 5094SOL     OW27312   8.604   1.845   0.376
 5094SOL    HW127313   8.648   1.765   0.416
 5094SOL    HW227314   8.664   1.884   0.306
 5095SOL     OW27315   7.084   6.036   6.097
 5095SOL    HW127316   7.073   6.024   6.196
 5095SOL    HW227317   7.021   5.975   6.049
 5096SOL     OW27318   6.557   2.503   0.948
 5096SOL    HW127319   6.541   2.600   0.929
 5096SOL    HW227320   6.595   2.458   0.868
 5097SOL     OW27321   4.987   4.059   0.445
 5097SOL    HW127322   5.004   4.054   0.544
 5097SOL    HW227323   4.984   4.155   0.417
 5098SOL     OW27324   3.066   0.950   1.423
 5098SOL    HW127325   3.093   0.890   1.348
 5098SOL    HW227326   2.967   0.968   1.417
 5099SOL     OW27327   2.023   0.244   1.703
 5099SOL    HW127328   2.112   0.229   1.748
 5099SOL    HW227329   1.965   0.298   1.763
 5100SOL     OW27330   2.203   0.704   0.983
 5100SOL    HW127331   2.221   0.737   0.890
 5100SOL    HW227332   2.119   0.744   1.017
 5101SOL     OW27333   2.405   0.304   6.552
 5101SOL    HW127334   2.478   0.292   6.620
 5101SOL    HW227335   2.316   0.293   6.596
 5102SOL     OW27336   5.388   7.838   0.753
 5102SOL    HW127337   5.465   7.895   0.782
 5102SOL    HW227338   5.355   7.786   0.831
 5103SOL     OW27339   7.887   7.597   5.940
 5103SOL    HW127340   7.800   7.628   5.979
 5103SOL    HW227341   7.919   7.665   5.874
 5104SOL     OW27342   7.002   2.692   1.227
 5104SOL    HW127343   6.966   2.607   1.186
 5104SOL    HW227344   7.049   2.670   1.313
 5105SOL     OW27345   7.880   4.755   5.427
 5105SOL    HW127346   7.787   4.744   5.392
 5105SOL    HW227347   7.942   4.694   5.377
 5106SOL     OW27348   1.002   7.422   1.368
 5106SOL    HW127349   1.044   7.394   1.454
 5106SOL    HW227350   0.910   7.383   1.362
 5107SOL     OW27351   5.791   4.620   5.873
 5107SOL    HW127352   5.844   4.680   5.933
 5107SOL    HW227353   5.826   4.527   5.880
 5108SOL     OW27354   0.156   6.256   5.960
 5108SOL    HW127355   0.158   6.169   6.009
 5108SOL    HW227356   0.116   6.241   5.869
 5109SOL     OW27357   8.135   4.793   6.145
 5109SOL    HW127358   8.161   4.721   6.209
 5109SOL    HW227359   8.178   4.879   6.172
 5110SOL     OW27360   7.537   0.175   5.159
 5110SOL    HW127361   7.478   0.116   5.103
 5110SOL    HW227362   7.593   0.232   5.099
 5111SOL     OW27363   0.120   5.014   6.200
 5111SOL    HW127364   0.049   4.977   6.259
 5111SOL    HW227365   0.209   4.976   6.227
 5112SOL     OW27366   1.388   7.480   1.125
 5112SOL    HW127367   1.310   7.449   1.071
 5112SOL    HW227368   1.450   7.532   1.067
 5113SOL     OW27369   3.566   1.922   5.699
 5113SOL    HW127370   3.649   1.931   5.753
 5113SOL    HW227371   3.589   1.917   5.602
 5114SOL     OW27372   6.703   7.445   6.188
 5114SOL    HW127373   6.636   7.373   6.207
 5114SOL    HW227374   6.699   7.514   6.260
 5115SOL     OW27375   4.169   2.086   4.941
 5115SOL    HW127376   4.130   2.095   5.033
 5115SOL    HW227377   4.123   2.149   4.879
 5116SOL     OW27378   8.946   7.989   5.869
 5116SOL    HW127379   8.861   8.034   5.843
 5116SOL    HW227380   9.020   8.023   5.811
 5117SOL     OW27381   9.337   0.113   5.470
 5117SOL    HW127382   9.294   0.024   5.488
 5117SOL    HW227383   9.277   0.168   5.413
 5118SOL     OW27384   6.821   6.061   1.552
 5118SOL    HW127385   6.826   6.034   1.648
 5118SOL    HW227386   6.883   6.004   1.498
 5119SOL     OW27387   3.642   6.469   0.339
 5119SOL    HW127388   3.572   6.505   0.278
 5119SOL    HW227389   3.628   6.506   0.431
 5120SOL     OW27390   4.330   5.373   0.491
 5120SOL    HW127391   4.414   5.425   0.476
 5120SOL    HW227392   4.287   5.353   0.403
 5121SOL     OW27393   6.692   3.821   6.554
 5121SOL    HW127394   6.691   3.906   6.607
 5121SOL    HW227395   6.786   3.785   6.550
 5122SOL     OW27396   8.099   1.590   6.163
 5122SOL    HW127397   8.141   1.673   6.126
 5122SOL    HW227398   8.085   1.524   6.089
 5123SOL     OW27399   2.369   3.269   6.368
 5123SOL    HW127400   2.434   3.270   6.292
 5123SOL    HW227401   2.419   3.277   6.454
 5124SOL     OW27402   6.297   3.221   1.095
 5124SOL    HW127403   6.213   3.219   1.150
 5124SOL    HW227404   6.274   3.251   1.002
 5125SOL     OW27405   8.863   4.965   6.259
 5125SOL    HW127406   8.912   4.970   6.346
 5125SOL    HW227407   8.765   4.961   6.276
 5126SOL     OW27408   1.719   6.549   5.233
 5126SOL    HW127409   1.633   6.498   5.223
 5126SOL    HW227410   1.772   6.540   5.148
 5127SOL     OW27411   3.749   0.707   1.172
 5127SOL    HW127412   3.729   0.789   1.119
 5127SOL    HW227413   3.671   0.645   1.168
 5128SOL     OW27414   6.961   4.865   0.105
 5128SOL    HW127415   6.920   4.798   0.167
 5128SOL    HW227416   7.023   4.818   0.042
 5129SOL     OW27417   0.931   8.085   5.129
 5129SOL    HW127418   0.924   8.098   5.228
 5129SOL    HW227419   0.893   8.164   5.081
 5130SOL     OW27420   4.664   2.103   0.908
 5130SOL    HW127421   4.712   2.176   0.958
 5130SOL    HW227422   4.732   2.043   0.865
 5131SOL     OW27423   4.050   0.949   0.041
 5131SOL    HW127424   4.118   1.015   0.072
 5131SOL    HW227425   3.997   0.916   0.120
 5132SOL     OW27426   3.201   7.093   0.621
 5132SOL    HW127427   3.224   6.997   0.602
 5132SOL    HW227428   3.106   7.109   0.597
 5133SOL     OW27429   5.104   7.789   6.126
 5133SOL    HW127430   5.141   7.725   6.193
 5133SOL    HW227431   5.154   7.875   6.130
 5134SOL     OW27432   4.103   1.302   0.846
 5134SOL    HW127433   4.070   1.314   0.752
 5134SOL    HW227434   4.030   1.329   0.910
 5135SOL     OW27435   4.404   8.228   0.859
 5135SOL    HW127436   4.422   8.271   0.948
 5135SOL    HW227437   4.411   8.128   0.869
 5136SOL     OW27438   0.376   1.029   5.535
 5136SOL    HW127439   0.447   0.988   5.478
 5136SOL    HW227440   0.335   0.958   5.593
 5137SOL     OW27441   3.391   6.254   5.733
 5137SOL    HW127442   3.362   6.158   5.733
 5137SOL    HW227443   3.342   6.304   5.804
 5138SOL     OW27444   0.602   4.890   0.409
 5138SOL    HW127445   0.646   4.913   0.322
 5138SOL    HW227446   0.615   4.793   0.429
 5139SOL     OW27447   2.792   7.661   5.658
 5139SOL    HW127448   2.824   7.570   5.632
 5139SOL    HW227449   2.780   7.717   5.576
 5140SOL     OW27450   4.863   3.149   0.935
 5140SOL    HW127451   4.886   3.066   0.986
 5140SOL    HW227452   4.870   3.229   0.995
 5141SOL     OW27453   6.474   1.562   6.168
 5141SOL    HW127454   6.521   1.479   6.200
 5141SOL    HW227455   6.442   1.614   6.247
 5142SOL     OW27456   5.627   0.557   5.919
 5142SOL    HW127457   5.624   0.521   6.013
 5142SOL    HW227458   5.646   0.483   5.855
 5143SOL     OW27459   2.339   0.274   0.430
 5143SOL    HW127460   2.251   0.238   0.461
 5143SOL    HW227461   2.412   0.213   0.461
 5144SOL     OW27462   8.650   4.719   0.883
 5144SOL    HW127463   8.665   4.637   0.827
 5144SOL    HW227464   8.579   4.701   0.951
 5145SOL     OW27465   7.443   1.487   0.014
 5145SOL    HW127466   7.515   1.417   0.015
 5145SOL    HW227467   7.457   1.549   0.091
 5146SOL     OW27468   7.760   5.826   5.637
 5146SOL    HW127469   7.815   5.854   5.558
 5146SOL    HW227470   7.671   5.793   5.605
 5147SOL     OW27471   6.840   4.113   1.490
 5147SOL    HW127472   6.751   4.149   1.519
 5147SOL    HW227473   6.885   4.181   1.432
 5148SOL     OW27474   0.994   2.423   5.737
 5148SOL    HW127475   1.081   2.420   5.786
 5148SOL    HW227476   1.003   2.376   5.649
 5149SOL     OW27477   7.913   7.511   1.121
 5149SOL    HW127478   7.996   7.484   1.170
 5149SOL    HW227479   7.849   7.553   1.184
 5150SOL     OW27480   6.057   6.982   1.253
 5150SOL    HW127481   6.054   6.996   1.352
 5150SOL    HW227482   6.099   6.893   1.233
 5151SOL     OW27483   2.190   0.057   6.395
 5151SOL    HW127484   2.223   0.116   6.321
 5151SOL    HW227485   2.208  -0.038   6.372
 5152SOL     OW27486   6.076   0.324   0.791
 5152SOL    HW127487   6.136   0.287   0.721
 5152SOL    HW227488   5.986   0.344   0.751
 5153SOL     OW27489   2.448   2.111   6.152
 5153SOL    HW127490   2.529   2.074   6.107
 5153SOL    HW227491   2.366   2.079   6.105
 5154SOL     OW27492   5.441   4.355   1.049
 5154SOL    HW127493   5.516   4.420   1.051
 5154SOL    HW227494   5.358   4.402   1.017
 5155SOL     OW27495   9.249   7.383   5.571
 5155SOL    HW127496   9.229   7.478   5.594
 5155SOL    HW227497   9.325   7.350   5.627
 5156SOL     OW27498   1.129   7.352   1.606
 5156SOL    HW127499   1.118   7.446   1.640
 5156SOL    HW227500   1.096   7.287   1.674
 5157SOL     OW27501   6.275   3.620   1.072
 5157SOL    HW127502   6.286   3.719   1.076
 5157SOL    HW227503   6.354   3.576   1.115
 5158SOL     OW27504   5.259   0.462   5.818
 5158SOL    HW127505   5.187   0.433   5.881
 5158SOL    HW227506   5.297   0.550   5.849
 5159SOL     OW27507   5.871   2.541   1.848
 5159SOL    HW127508   5.921   2.625   1.824
 5159SOL    HW227509   5.806   2.561   1.921
 5160SOL     OW27510   2.663   4.198   6.299
 5160SOL    HW127511   2.575   4.244   6.292
 5160SOL    HW227512   2.726   4.236   6.231
 5161SOL     OW27513   0.982   2.738   1.245
 5161SOL    HW127514   0.964   2.742   1.343
 5161SOL    HW227515   0.915   2.793   1.197
 5162SOL     OW27516   0.707   7.012   0.382
 5162SOL    HW127517   0.804   7.027   0.401
 5162SOL    HW227518   0.669   6.950   0.450
 5163SOL     OW27519   5.128   6.534   6.348
 5163SOL    HW127520   5.109   6.474   6.270
 5163SOL    HW227521   5.227   6.543   6.359
 5164SOL     OW27522   7.084   2.041   1.687
 5164SOL    HW127523   7.152   1.976   1.653
 5164SOL    HW227524   7.025   1.997   1.754
 5165SOL     OW27525   6.901   3.408   6.094
 5165SOL    HW127526   6.835   3.388   6.022
 5165SOL    HW227527   6.865   3.480   6.153
 5166SOL     OW27528   1.647   5.344   5.730
 5166SOL    HW127529   1.728   5.299   5.693
 5166SOL    HW227530   1.672   5.396   5.812
 5167SOL     OW27531   7.118   7.173   5.655
 5167SOL    HW127532   7.181   7.119   5.711
 5167SOL    HW227533   7.087   7.253   5.708
 5168SOL     OW27534   1.746   0.033   0.208
 5168SOL    HW127535   1.805   0.113   0.221
 5168SOL    HW227536   1.672   0.036   0.275
 5169SOL     OW27537   0.190   3.103   0.899
 5169SOL    HW127538   0.120   3.032   0.893
 5169SOL    HW227539   0.226   3.107   0.992
 5170SOL     OW27540   7.444   2.744   5.565
 5170SOL    HW127541   7.399   2.742   5.476
 5170SOL    HW227542   7.443   2.837   5.601
 5171SOL     OW27543   2.581   8.020   5.625
 5171SOL    HW127544   2.650   7.991   5.558
 5171SOL    HW227545   2.547   7.940   5.675
 5172SOL     OW27546   4.321   6.437   0.664
 5172SOL    HW127547   4.402   6.451   0.607
 5172SOL    HW227548   4.256   6.511   0.648
 5173SOL     OW27549   0.400   5.135   5.766
 5173SOL    HW127550   0.469   5.063   5.776
 5173SOL    HW227551   0.382   5.149   5.669
 5174SOL     OW27552   6.451   7.379   0.588
 5174SOL    HW127553   6.521   7.327   0.636
 5174SOL    HW227554   6.494   7.444   0.526
 5175SOL     OW27555   7.652   5.012   0.421
 5175SOL    HW127556   7.591   4.945   0.463
 5175SOL    HW227557   7.652   4.999   0.322
 5176SOL     OW27558   6.265   8.198   6.068
 5176SOL    HW127559   6.221   8.109   6.053
 5176SOL    HW227560   6.313   8.197   6.156
 5177SOL     OW27561   8.092   5.436   0.266
 5177SOL    HW127562   8.097   5.438   0.166
 5177SOL    HW227563   7.996   5.425   0.294
 5178SOL     OW27564   3.389   8.044   5.937
 5178SOL    HW127565   3.395   7.946   5.919
 5178SOL    HW227566   3.462   8.091   5.888
 5179SOL     OW27567   8.688   1.606   0.518
 5179SOL    HW127568   8.777   1.617   0.564
 5179SOL    HW227569   8.650   1.517   0.540
 5180SOL     OW27570   4.730   2.557   5.935
 5180SOL    HW127571   4.819   2.537   5.892
 5180SOL    HW227572   4.733   2.647   5.977
 5181SOL     OW27573   3.130   4.663   0.937
 5181SOL    HW127574   3.177   4.721   0.871
 5181SOL    HW227575   3.118   4.571   0.898
 5182SOL     OW27576   0.736   7.124   0.139
 5182SOL    HW127577   0.671   7.199   0.125
 5182SOL    HW227578   0.709   7.071   0.220
 5183SOL     OW27579   4.472   5.574   1.820
 5183SOL    HW127580   4.549   5.534   1.870
 5183SOL    HW227581   4.390   5.518   1.837
 5184SOL     OW27582   0.486   1.571   6.626
 5184SOL    HW127583   0.471   1.473   6.631
 5184SOL    HW227584   0.483   1.610   6.719
 5185SOL     OW27585   5.955   5.681   1.786
 5185SOL    HW127586   6.000   5.597   1.817
 5185SOL    HW227587   5.861   5.683   1.820
 5186SOL     OW27588   2.269   7.246   0.781
 5186SOL    HW127589   2.230   7.223   0.692
 5186SOL    HW227590   2.205   7.218   0.853
 5187SOL     OW27591   1.109   1.218   5.351
 5187SOL    HW127592   1.149   1.172   5.272
 5187SOL    HW227593   1.066   1.303   5.321
 5188SOL     OW27594   6.009   2.351   5.745
 5188SOL    HW127595   6.025   2.334   5.648
 5188SOL    HW227596   5.922   2.309   5.772
 5189SOL     OW27597   8.007   2.201   0.645
 5189SOL    HW127598   8.098   2.193   0.605
 5189SOL    HW227599   8.010   2.176   0.742
 5190SOL     OW27600   0.181   8.325   5.387
 5190SOL    HW127601   0.112   8.364   5.325
 5190SOL    HW227602   0.260   8.386   5.393
 5191SOL     OW27603   0.758   4.064   6.233
 5191SOL    HW127604   0.711   4.134   6.180
 5191SOL    HW227605   0.856   4.066   6.211
 5192SOL     OW27606   8.114   2.114   6.147
 5192SOL    HW127607   8.174   2.049   6.194
 5192SOL    HW227608   8.147   2.128   6.054
 5193SOL     OW27609   1.808   2.757   1.052
 5193SOL    HW127610   1.873   2.832   1.065
 5193SOL    HW227611   1.778   2.723   1.142
 5194SOL     OW27612   0.708   8.003   6.454
 5194SOL    HW127613   0.720   8.026   6.551
 5194SOL    HW227614   0.798   7.983   6.414
 5195SOL     OW27615   1.071   1.060   5.665
 5195SOL    HW127616   1.050   0.983   5.604
 5195SOL    HW227617   1.080   1.143   5.611
 5196SOL     OW27618   0.014   1.014   1.283
 5196SOL    HW127619  -0.076   0.992   1.245
 5196SOL    HW227620   0.014   0.993   1.381
 5197SOL     OW27621   3.630   5.662   6.651
 5197SOL    HW127622   3.567   5.739   6.654
 5197SOL    HW227623   3.723   5.696   6.634
 5198SOL     OW27624   6.832   3.846   6.306
 5198SOL    HW127625   6.916   3.839   6.251
 5198SOL    HW227626   6.846   3.912   6.379
 5199SOL     OW27627   6.449   2.689   1.445
 5199SOL    HW127628   6.422   2.610   1.500
 5199SOL    HW227629   6.464   2.768   1.505
 5200SOL     OW27630   2.464   5.216   0.328
 5200SOL    HW127631   2.532   5.223   0.255
 5200SOL    HW227632   2.380   5.178   0.292
 5201SOL     OW27633   6.345   7.069   1.115
 5201SOL    HW127634   6.333   7.081   1.016
 5201SOL    HW227635   6.255   7.058   1.158
 5202SOL     OW27636   6.685   3.889   6.066
 5202SOL    HW127637   6.717   3.813   6.009
 5202SOL    HW227638   6.698   3.865   6.163
 5203SOL     OW27639   6.249   4.025   5.603
 5203SOL    HW127640   6.344   3.997   5.592
 5203SOL    HW227641   6.189   3.955   5.563
 5204SOL     OW27642   5.695   7.227   0.010
 5204SOL    HW127643   5.702   7.246   0.108
 5204SOL    HW227644   5.786   7.224  -0.031
 5205SOL     OW27645   4.567   4.089   6.454
 5205SOL    HW127646   4.656   4.113   6.415
 5205SOL    HW227647   4.529   4.168   6.503
 5206SOL     OW27648   2.574   5.740   6.553
 5206SOL    HW127649   2.589   5.677   6.629
 5206SOL    HW227650   2.577   5.834   6.588
 5207SOL     OW27651   3.073   7.740   1.484
 5207SOL    HW127652   3.028   7.652   1.495
 5207SOL    HW227653   3.120   7.743   1.396
 5208SOL     OW27654   7.774   3.877   1.425
 5208SOL    HW127655   7.784   3.836   1.334
 5208SOL    HW227656   7.836   3.955   1.433
 5209SOL     OW27657   0.597   6.775   5.530
 5209SOL    HW127658   0.556   6.687   5.555
 5209SOL    HW227659   0.629   6.771   5.435
 5210SOL     OW27660   1.987   6.818   6.291
 5210SOL    HW127661   1.896   6.781   6.308
 5210SOL    HW227662   1.998   6.837   6.193
 5211SOL     OW27663   1.329   7.733   5.492
 5211SOL    HW127664   1.242   7.780   5.485
 5211SOL    HW227665   1.355   7.696   5.403
 5212SOL     OW27666   6.433   4.274   6.083
 5212SOL    HW127667   6.445   4.175   6.086
 5212SOL    HW227668   6.484   4.311   6.006
 5213SOL     OW27669   1.748   2.623   1.269
 5213SOL    HW127670   1.701   2.566   1.201
 5213SOL    HW227671   1.786   2.564   1.341
 5214SOL     OW27672   3.051   2.288   2.486
 5214SOL    HW127673   3.112   2.323   2.558
 5214SOL    HW227674   2.991   2.362   2.455
 5215SOL     OW27675   6.191   4.420   4.615
 5215SOL    HW127676   6.100   4.455   4.591
 5215SOL    HW227677   6.243   4.492   4.663
 5216SOL     OW27678   0.637   3.093   0.690
 5216SOL    HW127679   0.568   3.162   0.711
 5216SOL    HW227680   0.603   3.033   0.618
 5217SOL     OW27681   2.507   2.118   0.155
 5217SOL    HW127682   2.533   2.170   0.236
 5217SOL    HW227683   2.567   2.039   0.145
 5218SOL     OW27684   1.367   2.688   4.520
 5218SOL    HW127685   1.426   2.610   4.504
 5218SOL    HW227686   1.420   2.763   4.559
 5219SOL     OW27687   3.708   6.904   6.333
 5219SOL    HW127688   3.696   6.842   6.411
 5219SOL    HW227689   3.761   6.983   6.362
 5220SOL     OW27690   7.988   7.208   5.347
 5220SOL    HW127691   7.948   7.289   5.303
 5220SOL    HW227692   8.028   7.149   5.278
 5221SOL     OW27693   4.563   6.692   4.632
 5221SOL    HW127694   4.530   6.779   4.596
 5221SOL    HW227695   4.497   6.620   4.609
 5222SOL     OW27696   7.777   7.875   1.966
 5222SOL    HW127697   7.844   7.817   2.011
 5222SOL    HW227698   7.687   7.832   1.969
 5223SOL     OW27699   8.130   6.815   0.501
 5223SOL    HW127700   8.157   6.868   0.420
 5223SOL    HW227701   8.082   6.732   0.472
 5224SOL     OW27702   4.113   3.789   0.489
 5224SOL    HW127703   4.127   3.731   0.569
 5224SOL    HW227704   4.149   3.744   0.408
 5225SOL     OW27705   8.285   3.323   5.143
 5225SOL    HW127706   8.293   3.399   5.078
 5225SOL    HW227707   8.287   3.236   5.093
 5226SOL     OW27708   3.631   3.817   5.724
 5226SOL    HW127709   3.641   3.839   5.627
 5226SOL    HW227710   3.657   3.722   5.739
 5227SOL     OW27711   2.119   3.925   6.690
 5227SOL    HW127712   2.093   3.828   6.682
 5227SOL    HW227713   2.090   3.960   6.779
 5228SOL     OW27714   7.336   4.699   5.526
 5228SOL    HW127715   7.325   4.601   5.538
 5228SOL    HW227716   7.288   4.728   5.443
 5229SOL     OW27717   1.765   1.193   0.668
 5229SOL    HW127718   1.775   1.095   0.647
 5229SOL    HW227719   1.717   1.204   0.755
 5230SOL     OW27720   2.325   4.691   1.347
 5230SOL    HW127721   2.368   4.648   1.267
 5230SOL    HW227722   2.233   4.723   1.323
 5231SOL     OW27723   2.676   6.928   1.957
 5231SOL    HW127724   2.641   7.020   1.975
 5231SOL    HW227725   2.758   6.912   2.012
 5232SOL     OW27726   0.578   5.145   6.046
 5232SOL    HW127727   0.530   5.058   6.059
 5232SOL    HW227728   0.548   5.187   5.961
 5233SOL     OW27729   3.725   1.586   6.487
 5233SOL    HW127730   3.794   1.643   6.531
 5233SOL    HW227731   3.759   1.554   6.399
 5234SOL     OW27732   5.428   2.993   6.219
 5234SOL    HW127733   5.432   3.071   6.281
 5234SOL    HW227734   5.360   3.010   6.148
 5235SOL     OW27735   6.512   1.845   0.483
 5235SOL    HW127736   6.585   1.816   0.545
 5235SOL    HW227737   6.440   1.776   0.480
 5236SOL     OW27738   0.307   2.092   6.721
 5236SOL    HW127739   0.230   2.109   6.783
 5236SOL    HW227740   0.325   2.175   6.668
 5237SOL     OW27741   9.255   7.280   0.957
 5237SOL    HW127742   9.192   7.247   1.027
 5237SOL    HW227743   9.345   7.295   0.997
 5238SOL     OW27744   5.811   0.375   5.716
 5238SOL    HW127745   5.831   0.305   5.649
 5238SOL    HW227746   5.825   0.465   5.676
 5239SOL     OW27747   1.219   1.379   0.691
 5239SOL    HW127748   1.120   1.367   0.687
 5239SOL    HW227749   1.259   1.311   0.752
 5240SOL     OW27750   6.385   1.860   5.972
 5240SOL    HW127751   6.417   1.871   5.878
 5240SOL    HW227752   6.412   1.770   6.006
 5241SOL     OW27753   0.585   2.882   0.530
 5241SOL    HW127754   0.498   2.852   0.569
 5241SOL    HW227755   0.582   2.874   0.430
 5242SOL     OW27756   6.849   2.932   6.063
 5242SOL    HW127757   6.920   2.991   6.100
 5242SOL    HW227758   6.765   2.943   6.116
 5243SOL     OW27759   2.040   4.032   0.193
 5243SOL    HW127760   2.099   3.965   0.238
 5243SOL    HW227761   1.977   4.072   0.260
 5244SOL     OW27762   9.181   8.194   6.173
 5244SOL    HW127763   9.120   8.271   6.193
 5244SOL    HW227764   9.252   8.224   6.109
 5245SOL     OW27765   0.643   7.136   0.723
 5245SOL    HW127766   0.692   7.105   0.805
 5245SOL    HW227767   0.548   7.108   0.728
 5246SOL     OW27768   2.353   2.016   1.861
 5246SOL    HW127769   2.317   1.997   1.953
 5246SOL    HW227770   2.335   2.112   1.838
 5247SOL     OW27771   1.310   0.516   6.281
 5247SOL    HW127772   1.381   0.452   6.251
 5247SOL    HW227773   1.220   0.475   6.264
 5248SOL     OW27774   2.395   4.993   1.263
 5248SOL    HW127775   2.351   5.068   1.312
 5248SOL    HW227776   2.404   4.914   1.323
 5249SOL     OW27777   9.319   3.135   0.385
 5249SOL    HW127778   9.323   3.035   0.387
 5249SOL    HW227779   9.304   3.169   0.478
 5250SOL     OW27780   2.880   4.646   6.434
 5250SOL    HW127781   2.793   4.654   6.386
 5250SOL    HW227782   2.945   4.712   6.396
 5251SOL     OW27783   5.476   0.544   0.708
 5251SOL    HW127784   5.529   0.525   0.791
 5251SOL    HW227785   5.443   0.638   0.710
 5252SOL     OW27786   1.572   0.822   4.704
 5252SOL    HW127787   1.527   0.734   4.698
 5252SOL    HW227788   1.546   0.878   4.625
 5253SOL     OW27789   8.432   5.516   5.539
 5253SOL    HW127790   8.524   5.554   5.549
 5253SOL    HW227791   8.431   5.451   5.463
 5254SOL     OW27792   0.572   0.345   1.752
 5254SOL    HW127793   0.652   0.395   1.786
 5254SOL    HW227794   0.489   0.380   1.796
 5255SOL     OW27795   1.602   6.517   0.111
 5255SOL    HW127796   1.538   6.515   0.188
 5255SOL    HW227797   1.553   6.543   0.028
 5256SOL     OW27798   9.322   0.193   6.713
 5256SOL    HW127799   9.404   0.160   6.668
 5256SOL    HW227800   9.245   0.188   6.649
 5257SOL     OW27801   1.189   3.614   0.291
 5257SOL    HW127802   1.217   3.709   0.307
 5257SOL    HW227803   1.261   3.565   0.242
 5258SOL     OW27804   4.861   0.551   1.671
 5258SOL    HW127805   4.895   0.462   1.640
 5258SOL    HW227806   4.937   0.611   1.693
 5259SOL     OW27807   5.246   4.289   0.352
 5259SOL    HW127808   5.148   4.307   0.352
 5259SOL    HW227809   5.266   4.213   0.290
 5260SOL     OW27810   9.206   7.601   0.054
 5260SOL    HW127811   9.115   7.594   0.095
 5260SOL    HW227812   9.200   7.650  -0.032
 5261SOL     OW27813   6.576   1.373   1.985
 5261SOL    HW127814   6.589   1.385   2.083
 5261SOL    HW227815   6.574   1.276   1.963
 5262SOL     OW27816   3.331   0.914   0.519
 5262SOL    HW127817   3.420   0.890   0.478
 5262SOL    HW227818   3.331   1.011   0.542
 5263SOL     OW27819   4.722   7.920   1.335
 5263SOL    HW127820   4.717   7.929   1.235
 5263SOL    HW227821   4.799   7.861   1.360
 5264SOL     OW27822   2.668   1.825   1.466
 5264SOL    HW127823   2.760   1.848   1.497
 5264SOL    HW227824   2.654   1.727   1.472
 5265SOL     OW27825   6.439   3.163   6.637
 5265SOL    HW127826   6.355   3.212   6.660
 5265SOL    HW227827   6.442   3.145   6.539
 5266SOL     OW27828   9.106   1.745   0.556
 5266SOL    HW127829   9.093   1.790   0.468
 5266SOL    HW227830   9.065   1.800   0.629
 5267SOL     OW27831   3.264   3.561   1.297
 5267SOL    HW127832   3.295   3.569   1.392
 5267SOL    HW227833   3.318   3.491   1.250
 5268SOL     OW27834   1.712   6.165   6.398
 5268SOL    HW127835   1.774   6.238   6.367
 5268SOL    HW227836   1.726   6.084   6.341
 5269SOL     OW27837   4.729   5.340   0.274
 5269SOL    HW127838   4.659   5.341   0.203
 5269SOL    HW227839   4.810   5.292   0.240
 5270SOL     OW27840   3.738   4.497   5.759
 5270SOL    HW127841   3.791   4.468   5.680
 5270SOL    HW227842   3.745   4.427   5.831
 5271SOL     OW27843   2.264   4.278   0.531
 5271SOL    HW127844   2.354   4.307   0.497
 5271SOL    HW227845   2.215   4.357   0.565
 5272SOL     OW27846   4.000   5.602   5.680
 5272SOL    HW127847   4.050   5.551   5.610
 5272SOL    HW227848   3.913   5.634   5.643
 5273SOL     OW27849   5.099   1.284   6.610
 5273SOL    HW127850   5.103   1.188   6.636
 5273SOL    HW227851   5.190   1.324   6.616
 5274SOL     OW27852   7.720   5.627   6.438
 5274SOL    HW127853   7.661   5.685   6.494
 5274SOL    HW227854   7.687   5.627   6.344
 5275SOL     OW27855   2.428   3.903   5.911
 5275SOL    HW127856   2.355   3.874   5.849
 5275SOL    HW227857   2.389   3.939   5.996
 5276SOL     OW27858   2.054   4.661   5.141
 5276SOL    HW127859   2.034   4.594   5.070
 5276SOL    HW227860   2.144   4.640   5.181
 5277SOL     OW27861   6.146   4.216   1.109
 5277SOL    HW127862   6.206   4.293   1.087
 5277SOL    HW227863   6.105   4.231   1.199
 5278SOL     OW27864   8.611   4.293   0.866
 5278SOL    HW127865   8.533   4.235   0.889
 5278SOL    HW227866   8.696   4.245   0.889
 5279SOL     OW27867   6.914   0.452   5.574
 5279SOL    HW127868   6.928   0.550   5.589
 5279SOL    HW227869   6.844   0.439   5.503
 5280SOL     OW27870   5.354   0.421   5.376
 5280SOL    HW127871   5.283   0.431   5.446
 5280SOL    HW227872   5.377   0.511   5.339
 5281SOL     OW27873   9.047   7.111   5.853
 5281SOL    HW127874   9.074   7.154   5.767
 5281SOL    HW227875   8.948   7.115   5.862
 5282SOL     OW27876   3.324   6.399   0.162
 5282SOL    HW127877   3.367   6.480   0.202
 5282SOL    HW227878   3.238   6.380   0.209
 5283SOL     OW27879   2.579   6.491   1.126
 5283SOL    HW127880   2.579   6.431   1.046
 5283SOL    HW227881   2.620   6.443   1.203
 5284SOL     OW27882   6.133   0.428   6.099
 5284SOL    HW127883   6.111   0.353   6.036
 5284SOL    HW227884   6.227   0.417   6.132
 5285SOL     OW27885   4.824   2.703   6.556
 5285SOL    HW127886   4.758   2.655   6.613
 5285SOL    HW227887   4.880   2.764   6.613
 5286SOL     OW27888   6.766   6.223   0.318
 5286SOL    HW127889   6.863   6.226   0.340
 5286SOL    HW227890   6.740   6.307   0.271
 5287SOL     OW27891   3.707   6.933   1.154
 5287SOL    HW127892   3.692   6.836   1.172
 5287SOL    HW227893   3.685   6.986   1.236
 5288SOL     OW27894   7.195   7.673   5.838
 5288SOL    HW127895   7.275   7.616   5.820
 5288SOL    HW227896   7.128   7.660   5.764
 5289SOL     OW27897   6.958   3.492   6.588
 5289SOL    HW127898   7.037   3.446   6.628
 5289SOL    HW227899   6.958   3.478   6.489
 5290SOL     OW27900   9.352   7.601   5.140
 5290SOL    HW127901   9.350   7.586   5.238
 5290SOL    HW227902   9.335   7.515   5.092
 5291SOL     OW27903   7.832   3.307   6.394
 5291SOL    HW127904   7.753   3.343   6.445
 5291SOL    HW227905   7.913   3.363   6.414
 5292SOL     OW27906   8.543   6.274   6.396
 5292SOL    HW127907   8.574   6.248   6.487
 5292SOL    HW227908   8.573   6.206   6.329
 5293SOL     OW27909   2.118   7.839   1.179
 5293SOL    HW127910   2.029   7.796   1.191
 5293SOL    HW227911   2.166   7.841   1.267
 5294SOL     OW27912   6.043   1.672   6.168
 5294SOL    HW127913   6.029   1.631   6.077
 5294SOL    HW227914   6.040   1.600   6.237
 5295SOL     OW27915   2.065   0.244   0.572
 5295SOL    HW127916   2.019   0.194   0.499
 5295SOL    HW227917   2.059   0.192   0.658
 5296SOL     OW27918   5.962   1.784   1.339
 5296SOL    HW127919   5.989   1.874   1.371
 5296SOL    HW227920   5.918   1.734   1.414
 5297SOL     OW27921   9.172   1.280   1.039
 5297SOL    HW127922   9.141   1.193   1.079
 5297SOL    HW227923   9.229   1.329   1.105
 5298SOL     OW27924   7.789   7.347   6.258
 5298SOL    HW127925   7.844   7.264   6.253
 5298SOL    HW227926   7.815   7.400   6.339
 5299SOL     OW27927   0.576   7.451   0.400
 5299SOL    HW127928   0.498   7.420   0.455
 5299SOL    HW227929   0.569   7.549   0.384
 5300SOL     OW27930   6.583   7.803   0.922
 5300SOL    HW127931   6.653   7.731   0.930
 5300SOL    HW227932   6.575   7.831   0.826
 5301SOL     OW27933   4.920   5.032   0.721
 5301SOL    HW127934   4.843   5.051   0.660
 5301SOL    HW227935   4.895   5.054   0.815
 5302SOL     OW27936   7.961   2.062   1.209
 5302SOL    HW127937   7.967   2.159   1.230
 5302SOL    HW227938   7.930   2.049   1.115
 5303SOL     OW27939   9.096   8.339   1.275
 5303SOL    HW127940   9.022   8.389   1.230
 5303SOL    HW227941   9.168   8.403   1.302
 5304SOL     OW27942   0.674   5.653   4.427
 5304SOL    HW127943   0.766   5.634   4.395
 5304SOL    HW227944   0.678   5.716   4.504
 5305SOL     OW27945   2.216   2.686   0.546
 5305SOL    HW127946   2.212   2.777   0.586
 5305SOL    HW227947   2.292   2.681   0.481
 5306SOL     OW27948   9.052   1.878   0.311
 5306SOL    HW127949   8.968   1.929   0.292
 5306SOL    HW227950   9.129   1.941   0.312
 5307SOL     OW27951   4.839   0.871   0.317
 5307SOL    HW127952   4.799   0.779   0.319
 5307SOL    HW227953   4.768   0.938   0.338
 5308SOL     OW27954   7.096   7.294   6.237
 5308SOL    HW127955   7.038   7.355   6.181
 5308SOL    HW227956   7.158   7.350   6.292
 5309SOL     OW27957   9.385   6.964   5.132
 5309SOL    HW127958   9.394   7.044   5.073
 5309SOL    HW227959   9.391   6.880   5.077
 5310SOL     OW27960   7.606   0.494   0.487
 5310SOL    HW127961   7.560   0.556   0.551
 5310SOL    HW227962   7.704   0.492   0.508
 5311SOL     OW27963   4.275   4.190   0.477
 5311SOL    HW127964   4.196   4.251   0.480
 5311SOL    HW227965   4.257   4.113   0.416
 5312SOL     OW27966   2.712   5.819   0.289
 5312SOL    HW127967   2.636   5.757   0.304
 5312SOL    HW227968   2.764   5.829   0.374
 5313SOL     OW27969   5.236   1.646   0.046
 5313SOL    HW127970   5.170   1.663   0.120
 5313SOL    HW227971   5.224   1.713  -0.026
 5314SOL     OW27972   5.738   6.451   0.132
 5314SOL    HW127973   5.833   6.434   0.156
 5314SOL    HW227974   5.689   6.485   0.213
 5315SOL     OW27975   2.082   2.945   0.146
 5315SOL    HW127976   2.001   2.915   0.196
 5315SOL    HW227977   2.072   2.920   0.050
 5316SOL     OW27978   3.046   6.824   0.941
 5316SOL    HW127979   3.142   6.841   0.919
 5316SOL    HW227980   3.009   6.902   0.992
 5317SOL     OW27981   3.557   1.010   6.138
 5317SOL    HW127982   3.469   1.056   6.150
 5317SOL    HW227983   3.610   1.018   6.223
 5318SOL     OW27984   0.827   3.772   6.079
 5318SOL    HW127985   0.892   3.768   6.155
 5318SOL    HW227986   0.770   3.853   6.087
 5319SOL     OW27987   7.886   8.381   6.187
 5319SOL    HW127988   7.841   8.372   6.276
 5319SOL    HW227989   7.817   8.393   6.115
 5320SOL     OW27990   9.220   0.233   6.314
 5320SOL    HW127991   9.262   0.310   6.361
 5320SOL    HW227992   9.169   0.266   6.234
 5321SOL     OW27993   3.123   3.610   6.218
 5321SOL    HW127994   3.220   3.607   6.241
 5321SOL    HW227995   3.091   3.518   6.194
 5322SOL     OW27996   0.953   4.140   0.133
 5322SOL    HW127997   1.039   4.168   0.089
 5322SOL    HW227998   0.968   4.056   0.185
 5323SOL     OW27999   8.090   5.176   5.121
 5323SOL    HW128000   8.035   5.152   5.040
 5323SOL    HW228001   8.035   5.165   5.203
 5324SOL     OW28002   1.663   1.182   6.564
 5324SOL    HW128003   1.636   1.239   6.642
 5324SOL    HW228004   1.749   1.217   6.526
 5325SOL     OW28005   2.066   0.496   6.486
 5325SOL    HW128006   1.992   0.429   6.482
 5325SOL    HW228007   2.034   0.583   6.450
 5326SOL     OW28008   8.865   6.979   5.104
 5326SOL    HW128009   8.938   7.022   5.051
 5326SOL    HW228010   8.904   6.939   5.187
 5327SOL     OW28011   5.036   7.211   6.297
 5327SOL    HW128012   5.096   7.177   6.225
 5327SOL    HW228013   4.989   7.134   6.340
 5328SOL     OW28014   7.092   5.371   5.568
 5328SOL    HW128015   7.174   5.409   5.525
 5328SOL    HW228016   7.095   5.271   5.564
 5329SOL     OW28017   0.028   0.764   6.193
 5329SOL    HW128018  -0.071   0.764   6.211
 5329SOL    HW228019   0.073   0.705   6.261
 5330SOL     OW28020   3.095   1.531   0.226
 5330SOL    HW128021   3.030   1.529   0.151
 5330SOL    HW228022   3.182   1.493   0.195
 5331SOL     OW28023   2.073   5.486   5.439
 5331SOL    HW128024   2.043   5.580   5.453
 5331SOL    HW228025   2.145   5.463   5.505
 5332SOL     OW28026   3.904   4.457   1.755
 5332SOL    HW128027   3.891   4.553   1.732
 5332SOL    HW228028   3.817   4.409   1.747
 5333SOL     OW28029   5.497   3.542   0.782
 5333SOL    HW128030   5.531   3.519   0.873
 5333SOL    HW228031   5.439   3.623   0.788
 5334SOL     OW28032   1.609   0.909   0.634
 5334SOL    HW128033   1.539   0.930   0.702
 5334SOL    HW228034   1.565   0.872   0.552
 5335SOL     OW28035   3.605   1.354   6.080
 5335SOL    HW128036   3.518   1.399   6.096
 5335SOL    HW228037   3.589   1.260   6.049
 5336SOL     OW28038   2.024   6.803   6.011
 5336SOL    HW128039   1.987   6.881   5.961
 5336SOL    HW228040   2.089   6.754   5.954
 5337SOL     OW28041   5.789   0.920   0.995
 5337SOL    HW128042   5.758   0.826   1.015
 5337SOL    HW228043   5.888   0.922   0.990
 5338SOL     OW28044   3.704   5.743   5.540
 5338SOL    HW128045   3.636   5.670   5.550
 5338SOL    HW228046   3.657   5.830   5.525
 5339SOL     OW28047   7.027   1.987   5.413
 5339SOL    HW128048   7.023   2.084   5.436
 5339SOL    HW228049   6.993   1.973   5.320
 5340SOL     OW28050   4.611   8.312   0.238
 5340SOL    HW128051   4.526   8.350   0.275
 5340SOL    HW228052   4.624   8.345   0.144
 5341SOL     OW28053   4.922   7.813   5.700
 5341SOL    HW128054   4.864   7.763   5.765
 5341SOL    HW228055   5.018   7.791   5.717
 5342SOL     OW28056   2.137   1.765   6.035
 5342SOL    HW128057   2.041   1.777   6.058
 5342SOL    HW228058   2.146   1.740   5.939
 5343SOL     OW28059   4.988   6.762   6.059
 5343SOL    HW128060   4.923   6.700   6.102
 5343SOL    HW228061   4.972   6.855   6.092
 5344SOL     OW28062   9.427   7.968   5.606
 5344SOL    HW128063   9.471   8.058   5.609
 5344SOL    HW228064   9.393   7.951   5.514
 5345SOL     OW28065   1.275   5.954   6.705
 5345SOL    HW128066   1.338   6.029   6.724
 5345SOL    HW228067   1.214   5.979   6.630
 5346SOL     OW28068   0.969   4.126   5.663
 5346SOL    HW128069   0.944   4.180   5.743
 5346SOL    HW228070   1.054   4.160   5.625
 5347SOL     OW28071   8.654   7.446   4.098
 5347SOL    HW128072   8.746   7.459   4.136
 5347SOL    HW228073   8.661   7.397   4.011
 5348SOL     OW28074   3.440   6.083   6.592
 5348SOL    HW128075   3.372   6.117   6.527
 5348SOL    HW228076   3.418   6.116   6.683
 5349SOL     OW28077   3.911   7.845   1.020
 5349SOL    HW128078   3.968   7.823   0.941
 5349SOL    HW228079   3.969   7.865   1.099
 5350SOL     OW28080   7.106   1.630   6.584
 5350SOL    HW128081   7.116   1.593   6.676
 5350SOL    HW228082   7.134   1.561   6.517
 5351SOL     OW28083   8.376   6.411   6.051
 5351SOL    HW128084   8.413   6.459   5.972
 5351SOL    HW228085   8.405   6.456   6.135
 5352SOL     OW28086   0.415   6.285   5.416
 5352SOL    HW128087   0.487   6.323   5.474
 5352SOL    HW228088   0.349   6.237   5.473
 5353SOL     OW28089   5.742   0.853   6.728
 5353SOL    HW128090   5.826   0.799   6.723
 5353SOL    HW228091   5.746   0.928   6.662
 5354SOL     OW28092   0.151   0.429   6.039
 5354SOL    HW128093   0.160   0.528   6.026
 5354SOL    HW228094   0.241   0.386   6.029
 5355SOL     OW28095   8.400   1.148   0.851
 5355SOL    HW128096   8.452   1.170   0.933
 5355SOL    HW228097   8.342   1.226   0.826
 5356SOL     OW28098   0.316   2.268   0.811
 5356SOL    HW128099   0.376   2.190   0.828
 5356SOL    HW228100   0.368   2.353   0.821
 5357SOL     OW28101   4.060   1.376   5.744
 5357SOL    HW128102   3.977   1.402   5.792
 5357SOL    HW228103   4.055   1.405   5.649
 5358SOL     OW28104   1.295   6.434   5.327
 5358SOL    HW128105   1.341   6.383   5.400
 5358SOL    HW228106   1.352   6.431   5.245
 5359SOL     OW28107   3.523   5.016   6.330
 5359SOL    HW128108   3.542   4.970   6.417
 5359SOL    HW228109   3.468   5.098   6.347
 5360SOL     OW28110   1.002   6.939   6.559
 5360SOL    HW128111   1.049   6.881   6.493
 5360SOL    HW228112   0.971   7.023   6.513
 5361SOL     OW28113   2.937   8.127   6.096
 5361SOL    HW128114   2.944   8.227   6.105
 5361SOL    HW228115   2.868   8.093   6.160
 5362SOL     OW28116   6.478   1.306   1.228
 5362SOL    HW128117   6.545   1.252   1.177
 5362SOL    HW228118   6.411   1.245   1.270
 5363SOL     OW28119   5.487   7.268   5.593
 5363SOL    HW128120   5.442   7.179   5.587
 5363SOL    HW228121   5.429   7.338   5.552
 5364SOL     OW28122   9.347   6.734   5.895
 5364SOL    HW128123   9.290   6.667   5.942
 5364SOL    HW228124   9.320   6.826   5.923
 5365SOL     OW28125   5.661   3.039   0.814
 5365SOL    HW128126   5.760   3.037   0.824
 5365SOL    HW228127   5.632   2.973   0.745
 5366SOL     OW28128   7.505   7.506   0.668
 5366SOL    HW128129   7.568   7.449   0.720
 5366SOL    HW228130   7.412   7.471   0.678
 5367SOL     OW28131   2.241   1.397   1.088
 5367SOL    HW128132   2.299   1.476   1.106
 5367SOL    HW228133   2.156   1.405   1.139
 5368SOL     OW28134   4.787   6.584   6.035
 5368SOL    HW128135   4.735   6.592   6.120
 5368SOL    HW228136   4.729   6.545   5.964
 5369SOL     OW28137   5.715   8.192   0.878
 5369SOL    HW128138   5.807   8.190   0.839
 5369SOL    HW228139   5.697   8.281   0.918
 5370SOL     OW28140   2.460   6.011   1.108
 5370SOL    HW128141   2.518   6.088   1.135
 5370SOL    HW228142   2.469   5.937   1.175
 5371SOL     OW28143   6.093   2.194   6.141
 5371SOL    HW128144   6.123   2.136   6.065
 5371SOL    HW228145   6.155   2.272   6.150
 5372SOL     OW28146   1.994   6.527   0.547
 5372SOL    HW128147   2.025   6.603   0.490
 5372SOL    HW228148   1.927   6.560   0.614
 5373SOL     OW28149   3.392   0.142   5.349
 5373SOL    HW128150   3.344   0.226   5.375
 5373SOL    HW228151   3.468   0.125   5.411
 5374SOL     OW28152   0.919   0.188   0.307
 5374SOL    HW128153   0.964   0.265   0.353
 5374SOL    HW228154   0.984   0.144   0.245
 5375SOL     OW28155   4.573   2.973   1.845
 5375SOL    HW128156   4.527   2.974   1.934
 5375SOL    HW228157   4.569   3.065   1.804
 5376SOL     OW28158   8.079   0.026   0.651
 5376SOL    HW128159   8.125  -0.062   0.636
 5376SOL    HW228160   8.086   0.051   0.747
 5377SOL     OW28161   5.549   7.971   6.088
 5377SOL    HW128162   5.475   7.975   6.021
 5377SOL    HW228163   5.577   7.876   6.101
 5378SOL     OW28164   0.666   1.632   0.476
 5378SOL    HW128165   0.575   1.619   0.437
 5378SOL    HW228166   0.661   1.694   0.554
 5379SOL     OW28167   0.913   7.723   4.882
 5379SOL    HW128168   0.851   7.792   4.920
 5379SOL    HW228169   0.997   7.767   4.852
 5380SOL     OW28170   7.873   0.946   6.423
 5380SOL    HW128171   7.785   0.990   6.406
 5380SOL    HW228172   7.869   0.850   6.393
 5381SOL     OW28173   0.400   4.460   5.905
 5381SOL    HW128174   0.310   4.502   5.919
 5381SOL    HW228175   0.443   4.444   5.993
 5382SOL     OW28176   3.560   7.117   0.326
 5382SOL    HW128177   3.656   7.124   0.353
 5382SOL    HW228178   3.507   7.188   0.373
 5383SOL     OW28179   5.991   0.808   1.620
 5383SOL    HW128180   5.966   0.904   1.610
 5383SOL    HW228181   6.028   0.793   1.712
 5384SOL     OW28182   3.079   8.108   5.869
 5384SOL    HW128183   3.175   8.099   5.894
 5384SOL    HW228184   3.025   8.128   5.950
 5385SOL     OW28185   7.270   3.021   1.250
 5385SOL    HW128186   7.263   2.959   1.329
 5385SOL    HW228187   7.226   3.108   1.273
 5386SOL     OW28188   1.710   7.989   0.699
 5386SOL    HW128189   1.700   8.068   0.759
 5386SOL    HW228190   1.675   7.908   0.745
 5387SOL     OW28191   5.678   6.088   0.144
 5387SOL    HW128192   5.693   5.992   0.120
 5387SOL    HW228193   5.743   6.145   0.095
 5388SOL     OW28194   4.555   8.038   6.700
 5388SOL    HW128195   4.628   8.100   6.673
 5388SOL    HW228196   4.561   7.953   6.647
 5389SOL     OW28197   7.928   2.659   1.019
 5389SOL    HW128198   7.870   2.603   1.078
 5389SOL    HW228199   7.993   2.600   0.972
 5390SOL     OW28200   4.595   8.119   6.211
 5390SOL    HW128201   4.671   8.123   6.276
 5390SOL    HW228202   4.577   8.024   6.187
 5391SOL     OW28203   3.018   3.216   0.848
 5391SOL    HW128204   3.070   3.269   0.780
 5391SOL    HW228205   3.057   3.233   0.939
 5392SOL     OW28206   6.268   1.996   1.465
 5392SOL    HW128207   6.341   2.027   1.404
 5392SOL    HW228208   6.295   2.012   1.560
 5393SOL     OW28209   6.845   4.638   0.241
 5393SOL    HW128210   6.759   4.610   0.196
 5393SOL    HW228211   6.871   4.570   0.308
 5394SOL     OW28212   8.709   1.214   6.707
 5394SOL    HW128213   8.689   1.306   6.740
 5394SOL    HW228214   8.648   1.191   6.631
 5395SOL     OW28215   3.477   2.197   5.360
 5395SOL    HW128216   3.448   2.257   5.286
 5395SOL    HW228217   3.453   2.102   5.338
 5396SOL     OW28218   8.186   3.972   6.697
 5396SOL    HW128219   8.255   3.932   6.758
 5396SOL    HW228220   8.229   4.043   6.641
 5397SOL     OW28221   5.551   1.778   0.281
 5397SOL    HW128222   5.559   1.682   0.310
 5397SOL    HW228223   5.472   1.820   0.326
 5398SOL     OW28224   3.148   6.937   5.743
 5398SOL    HW128225   3.101   6.866   5.795
 5398SOL    HW228226   3.096   6.956   5.659
 5399SOL     OW28227   6.612   8.304   5.612
 5399SOL    HW128228   6.520   8.269   5.629
 5399SOL    HW228229   6.673   8.275   5.686
 5400SOL     OW28230   7.874   2.365   0.906
 5400SOL    HW128231   7.905   2.407   0.821
 5400SOL    HW228232   7.776   2.347   0.901
 5401SOL     OW28233   6.488   5.549   5.913
 5401SOL    HW128234   6.404   5.603   5.914
 5401SOL    HW228235   6.501   5.509   5.822
 5402SOL     OW28236   4.284   4.000   0.265
 5402SOL    HW128237   4.327   4.006   0.175
 5402SOL    HW228238   4.307   3.912   0.307
 5403SOL     OW28239   2.072   6.492   0.237
 5403SOL    HW128240   2.073   6.434   0.318
 5403SOL    HW228241   2.157   6.545   0.232
 5404SOL     OW28242   2.084   0.087   6.634
 5404SOL    HW128243   2.114   0.082   6.539
 5404SOL    HW228244   2.097   0.180   6.669
 5405SOL     OW28245   7.476   7.804   6.505
 5405SOL    HW128246   7.472   7.739   6.429
 5405SOL    HW228247   7.384   7.816   6.543
 5406SOL     OW28248   1.434   4.192   6.313
 5406SOL    HW128249   1.446   4.198   6.412
 5406SOL    HW228250   1.488   4.116   6.278
 5407SOL     OW28251   6.396   1.334   0.758
 5407SOL    HW128252   6.347   1.355   0.842
 5407SOL    HW228253   6.477   1.280   0.779
 5408SOL     OW28254   7.333   5.990   1.566
 5408SOL    HW128255   7.311   5.919   1.499
 5408SOL    HW228256   7.431   6.010   1.561
 5409SOL     OW28257   1.634   6.969   6.052
 5409SOL    HW128258   1.542   6.963   6.014
 5409SOL    HW228259   1.682   7.049   6.015
 5410SOL     OW28260   3.397   2.359   1.426
 5410SOL    HW128261   3.316   2.302   1.411
 5410SOL    HW228262   3.422   2.357   1.523
 5411SOL     OW28263   1.266   5.207   6.372
 5411SOL    HW128264   1.254   5.219   6.274
 5411SOL    HW228265   1.312   5.287   6.410
 5412SOL     OW28266   0.457   0.049   5.993
 5412SOL    HW128267   0.444   0.118   6.064
 5412SOL    HW228268   0.545   0.004   6.007
 5413SOL     OW28269   6.702   5.058   0.483
 5413SOL    HW128270   6.604   5.039   0.495
 5413SOL    HW228271   6.755   4.980   0.514
 5414SOL     OW28272   8.843   2.151   0.142
 5414SOL    HW128273   8.777   2.199   0.083
 5414SOL    HW228274   8.934   2.191   0.130
 5415SOL     OW28275   1.560   1.506   5.859
 5415SOL    HW128276   1.599   1.462   5.940
 5415SOL    HW228277   1.525   1.435   5.797
 5416SOL     OW28278   0.294   2.244   0.402
 5416SOL    HW128279   0.338   2.318   0.454
 5416SOL    HW228280   0.359   2.210   0.333
 5417SOL     OW28281   6.263   1.231   6.130
 5417SOL    HW128282   6.175   1.225   6.084
 5417SOL    HW228283   6.255   1.288   6.212
 5418SOL     OW28284   7.287   4.193   1.090
 5418SOL    HW128285   7.193   4.167   1.113
 5418SOL    HW228286   7.335   4.219   1.174
 5419SOL     OW28287   2.774   6.007   0.095
 5419SOL    HW128288   2.733   5.956   0.171
 5419SOL    HW228289   2.864   6.041   0.124
 5420SOL     OW28290   5.395   8.127   6.443
 5420SOL    HW128291   5.474   8.124   6.382
 5420SOL    HW228292   5.408   8.198   6.512
 5421SOL     OW28293   0.181   6.410   5.036
 5421SOL    HW128294   0.159   6.456   5.122
 5421SOL    HW228295   0.148   6.465   4.960
 5422SOL     OW28296   5.190   4.472   6.105
 5422SOL    HW128297   5.226   4.379   6.091
 5422SOL    HW228298   5.261   4.538   6.082
 5423SOL     OW28299   4.866   6.725   5.177
 5423SOL    HW128300   4.897   6.637   5.211
 5423SOL    HW228301   4.867   6.725   5.077
 5424SOL     OW28302   0.289   4.542   5.080
 5424SOL    HW128303   0.213   4.498   5.032
 5424SOL    HW228304   0.347   4.472   5.121
 5425SOL     OW28305   0.853   5.774   4.787
 5425SOL    HW128306   0.786   5.707   4.820
 5425SOL    HW228307   0.824   5.809   4.698
 5426SOL     OW28308   0.104   5.719   6.473
 5426SOL    HW128309   0.098   5.620   6.488
 5426SOL    HW228310   0.043   5.766   6.537
 5427SOL     OW28311   7.247   5.139   0.046
 5427SOL    HW128312   7.295   5.053   0.060
 5427SOL    HW228313   7.301   5.197  -0.016
 5428SOL     OW28314   1.252   1.071   6.019
 5428SOL    HW128315   1.297   1.023   6.095
 5428SOL    HW228316   1.313   1.074   5.940
 5429SOL     OW28317   8.892   2.352   6.053
 5429SOL    HW128318   8.938   2.364   5.965
 5429SOL    HW228319   8.796   2.378   6.043
 5430SOL     OW28320   5.512   0.984   6.429
 5430SOL    HW128321   5.563   0.979   6.343
 5430SOL    HW228322   5.574   1.006   6.504
 5431SOL     OW28323   4.392   5.710   0.682
 5431SOL    HW128324   4.374   5.617   0.713
 5431SOL    HW228325   4.491   5.728   0.687
 5432SOL     OW28326   3.332   6.577   5.747
 5432SOL    HW128327   3.250   6.531   5.711
 5432SOL    HW228328   3.363   6.530   5.830
 5433SOL     OW28329   6.715   0.676   0.471
 5433SOL    HW128330   6.619   0.669   0.498
 5433SOL    HW228331   6.733   0.612   0.397
 5434SOL     OW28332   5.678   3.487   6.693
 5434SOL    HW128333   5.778   3.489   6.699
 5434SOL    HW228334   5.651   3.501   6.597
 5435SOL     OW28335   7.207   7.939   1.209
 5435SOL    HW128336   7.148   7.892   1.275
 5435SOL    HW228337   7.295   7.960   1.251
 5436SOL     OW28338   7.230   2.256   0.974
 5436SOL    HW128339   7.255   2.348   0.943
 5436SOL    HW228340   7.290   2.189   0.931
 5437SOL     OW28341   6.763   8.102   0.323
 5437SOL    HW128342   6.792   8.150   0.405
 5437SOL    HW228343   6.843   8.075   0.269
 5438SOL     OW28344   1.400   1.874   0.742
 5438SOL    HW128345   1.472   1.907   0.803
 5438SOL    HW228346   1.364   1.787   0.777
 5439SOL     OW28347   0.507   6.073   5.284
 5439SOL    HW128348   0.480   6.169   5.279
 5439SOL    HW228349   0.525   6.038   5.192
 5440SOL     OW28350   5.998   5.867   5.404
 5440SOL    HW128351   6.035   5.839   5.493
 5440SOL    HW228352   5.939   5.947   5.416
 5441SOL     OW28353   3.372   2.918   6.102
 5441SOL    HW128354   3.335   2.912   6.194
 5441SOL    HW228355   3.353   2.833   6.053
 5442SOL     OW28356   1.291   2.433   0.974
 5442SOL    HW128357   1.241   2.480   0.901
 5442SOL    HW228358   1.245   2.449   1.061
 5443SOL     OW28359   1.906   2.415   6.659
 5443SOL    HW128360   1.982   2.413   6.594
 5443SOL    HW228361   1.868   2.323   6.669
 5444SOL     OW28362   1.825   4.238   0.947
 5444SOL    HW128363   1.726   4.236   0.934
 5444SOL    HW228364   1.870   4.197   0.868
 5445SOL     OW28365   7.335   6.561   6.606
 5445SOL    HW128366   7.269   6.511   6.550
 5445SOL    HW228367   7.287   6.628   6.662
 5446SOL     OW28368   7.673   6.184   0.759
 5446SOL    HW128369   7.674   6.090   0.794
 5446SOL    HW228370   7.685   6.248   0.834
 5447SOL     OW28371   6.464   2.612   6.599
 5447SOL    HW128372   6.379   2.582   6.556
 5447SOL    HW228373   6.466   2.711   6.605
 5448SOL     OW28374   8.525   5.501   6.323
 5448SOL    HW128375   8.625   5.493   6.327
 5448SOL    HW228376   8.495   5.574   6.384
 5449SOL     OW28377   4.474   7.992   1.790
 5449SOL    HW128378   4.437   8.004   1.882
 5449SOL    HW228379   4.538   7.915   1.790
 5450SOL     OW28380   2.713   3.351   5.851
 5450SOL    HW128381   2.670   3.260   5.852
 5450SOL    HW228382   2.669   3.408   5.920
 5451SOL     OW28383   0.466   0.633   5.675
 5451SOL    HW128384   0.385   0.598   5.722
 5451SOL    HW228385   0.450   0.632   5.576
 5452SOL     OW28386   4.818   0.547   1.212
 5452SOL    HW128387   4.869   0.461   1.203
 5452SOL    HW228388   4.720   0.527   1.214
 5453SOL     OW28389   0.254   7.700   1.111
 5453SOL    HW128390   0.193   7.777   1.090
 5453SOL    HW228391   0.269   7.696   1.210
 5454SOL     OW28392   6.188   1.944   6.699
 5454SOL    HW128393   6.258   1.915   6.764
 5454SOL    HW228394   6.183   2.044   6.698
 5455SOL     OW28395   0.411   3.209   1.131
 5455SOL    HW128396   0.466   3.240   1.208
 5455SOL    HW228397   0.336   3.151   1.165
 5456SOL     OW28398   1.707   2.814   5.986
 5456SOL    HW128399   1.789   2.759   6.001
 5456SOL    HW228400   1.635   2.756   5.948
 5457SOL     OW28401   7.432   6.770   5.601
 5457SOL    HW128402   7.397   6.782   5.508
 5457SOL    HW228403   7.518   6.821   5.611
 5458SOL     OW28404   2.968   1.491   5.942
 5458SOL    HW128405   2.989   1.587   5.920
 5458SOL    HW228406   2.929   1.447   5.861
 5459SOL     OW28407   1.338   1.013   5.738
 5459SOL    HW128408   1.260   0.952   5.751
 5459SOL    HW228409   1.335   1.054   5.648
 5460SOL     OW28410   6.829   8.242   5.816
 5460SOL    HW128411   6.870   8.152   5.805
 5460SOL    HW228412   6.808   8.258   5.912
 5461SOL     OW28413   5.279   1.822   5.617
 5461SOL    HW128414   5.278   1.849   5.520
 5461SOL    HW228415   5.287   1.904   5.674
 5462SOL     OW28416   6.740   1.782   0.986
 5462SOL    HW128417   6.706   1.872   1.016
 5462SOL    HW228418   6.833   1.769   1.019
 5463SOL     OW28419   3.935   6.119   0.954
 5463SOL    HW128420   3.904   6.063   1.031
 5463SOL    HW228421   3.929   6.066   0.869
 5464SOL     OW28422   6.735   1.485   6.499
 5464SOL    HW128423   6.769   1.575   6.471
 5464SOL    HW228424   6.760   1.417   6.430
 5465SOL     OW28425   5.170   0.944   5.796
 5465SOL    HW128426   5.199   0.864   5.743
 5465SOL    HW228427   5.184   1.027   5.743
 5466SOL     OW28428   3.915   3.992   6.173
 5466SOL    HW128429   4.000   4.029   6.135
 5466SOL    HW228430   3.919   3.997   6.273
 5467SOL     OW28431   8.210   5.630   1.557
 5467SOL    HW128432   8.186   5.558   1.491
 5467SOL    HW228433   8.174   5.606   1.647
 5468SOL     OW28434   2.313   2.284   1.794
 5468SOL    HW128435   2.392   2.339   1.769
 5468SOL    HW228436   2.229   2.338   1.781
 5469SOL     OW28437   5.300   4.987   0.322
 5469SOL    HW128438   5.285   4.889   0.308
 5469SOL    HW228439   5.230   5.022   0.385
 5470SOL     OW28440   8.865   8.435   6.122
 5470SOL    HW128441   8.903   8.388   6.202
 5470SOL    HW228442   8.789   8.382   6.086
 5471SOL     OW28443   6.485   5.543   0.980
 5471SOL    HW128444   6.458   5.488   1.058
 5471SOL    HW228445   6.556   5.496   0.928
 5472SOL     OW28446   8.800   6.567   5.066
 5472SOL    HW128447   8.706   6.584   5.037
 5472SOL    HW228448   8.833   6.482   5.024
 5473SOL     OW28449   3.423   1.850   0.219
 5473SOL    HW128450   3.384   1.814   0.134
 5473SOL    HW228451   3.448   1.946   0.206
 5474SOL     OW28452   5.595   5.807   0.163
 5474SOL    HW128453   5.672   5.767   0.213
 5474SOL    HW228454   5.529   5.844   0.228
 5475SOL     OW28455   2.837   1.753   6.083
 5475SOL    HW128456   2.805   1.658   6.079
 5475SOL    HW228457   2.759   1.814   6.094
 5476SOL     OW28458   0.581   2.262   6.281
 5476SOL    HW128459   0.601   2.257   6.379
 5476SOL    HW228460   0.546   2.353   6.259
 5477SOL     OW28461   6.004   4.906   6.379
 5477SOL    HW128462   5.995   4.881   6.475
 5477SOL    HW228463   6.064   4.987   6.371
 5478SOL     OW28464   8.797   5.002   0.332
 5478SOL    HW128465   8.739   4.925   0.304
 5478SOL    HW228466   8.773   5.029   0.426
 5479SOL     OW28467   6.972   4.873   5.445
 5479SOL    HW128468   7.011   4.799   5.389
 5479SOL    HW228469   6.923   4.937   5.385
 5480SOL     OW28470   7.638   1.225   0.074
 5480SOL    HW128471   7.571   1.234  -0.000
 5480SOL    HW228472   7.614   1.146   0.131
 5481SOL     OW28473   4.515   0.636   6.345
 5481SOL    HW128474   4.469   0.621   6.257
 5481SOL    HW228475   4.454   0.684   6.407
 5482SOL     OW28476   5.678   7.245   0.799
 5482SOL    HW128477   5.716   7.332   0.768
 5482SOL    HW228478   5.750   7.188   0.838
 5483SOL     OW28479   4.558   0.810   1.926
 5483SOL    HW128480   4.528   0.866   2.004
 5483SOL    HW228481   4.650   0.776   1.943
 5484SOL     OW28482   6.743   0.778   0.189
 5484SOL    HW128483   6.717   0.752   0.282
 5484SOL    HW228484   6.691   0.724   0.123
 5485SOL     OW28485   8.058   6.885   6.281
 5485SOL    HW128486   8.066   6.874   6.380
 5485SOL    HW228487   8.083   6.800   6.236
 5486SOL     OW28488   6.839   6.778   0.042
 5486SOL    HW128489   6.778   6.853   0.015
 5486SOL    HW228490   6.835   6.705  -0.025
 5487SOL     OW28491   1.318   6.527   6.286
 5487SOL    HW128492   1.255   6.502   6.360
 5487SOL    HW228493   1.342   6.446   6.233
 5488SOL     OW28494   5.513   2.507   1.100
 5488SOL    HW128495   5.559   2.509   1.011
 5488SOL    HW228496   5.578   2.532   1.172
 5489SOL     OW28497   0.152   7.928   0.992
 5489SOL    HW128498   0.197   7.987   1.059
 5489SOL    HW228499   0.059   7.959   0.976
 5490SOL     OW28500   6.864   0.654   5.844
 5490SOL    HW128501   6.787   0.716   5.858
 5490SOL    HW228502   6.933   0.699   5.787
 5491SOL     OW28503   5.174   0.011   5.802
 5491SOL    HW128504   5.077   0.004   5.777
 5491SOL    HW228505   5.205  -0.078   5.836
 5492SOL     OW28506   7.954   4.482   6.533
 5492SOL    HW128507   7.955   4.395   6.583
 5492SOL    HW228508   7.901   4.472   6.449
 5493SOL     OW28509   4.262   5.464   5.877
 5493SOL    HW128510   4.190   5.397   5.857
 5493SOL    HW228511   4.223   5.556   5.880
 5494SOL     OW28512   7.686   0.490   0.975
 5494SOL    HW128513   7.748   0.437   1.032
 5494SOL    HW228514   7.593   0.453   0.983
 5495SOL     OW28515   6.064   0.866   1.048
 5495SOL    HW128516   6.145   0.876   0.991
 5495SOL    HW228517   6.080   0.795   1.116
 5496SOL     OW28518   0.109   3.471   5.335
 5496SOL    HW128519   0.074   3.507   5.249
 5496SOL    HW228520   0.068   3.381   5.353
 5497SOL     OW28521   7.783   8.075   1.138
 5497SOL    HW128522   7.733   8.091   1.223
 5497SOL    HW228523   7.739   8.002   1.086
 5498SOL     OW28524   4.552   0.523   1.234
 5498SOL    HW128525   4.542   0.615   1.196
 5498SOL    HW228526   4.476   0.466   1.203
 5499SOL     OW28527   1.591   7.071   5.614
 5499SOL    HW128528   1.573   7.028   5.702
 5499SOL    HW228529   1.509   7.120   5.583
 5500SOL     OW28530   2.324   5.288   6.607
 5500SOL    HW128531   2.346   5.286   6.509
 5500SOL    HW228532   2.407   5.301   6.660
 5501SOL     OW28533   0.424   6.773   0.705
 5501SOL    HW128534   0.519   6.785   0.677
 5501SOL    HW228535   0.373   6.729   0.631
 5502SOL     OW28536   4.717   6.523   0.685
 5502SOL    HW128537   4.808   6.535   0.645
 5502SOL    HW228538   4.647   6.547   0.616
 5503SOL     OW28539   3.911   2.375   5.887
 5503SOL    HW128540   3.950   2.341   5.801
 5503SOL    HW228541   3.840   2.441   5.868
 5504SOL     OW28542   5.156   4.586   6.341
 5504SOL    HW128543   5.071   4.638   6.333
 5504SOL    HW228544   5.177   4.542   6.254
 5505SOL     OW28545   6.442   0.672   5.912
 5505SOL    HW128546   6.367   0.676   5.977
 5505SOL    HW228547   6.460   0.763   5.874
 5506SOL     OW28548   0.126   5.989   5.149
 5506SOL    HW128549   0.223   6.002   5.171
 5506SOL    HW228550   0.092   6.071   5.103
 5507SOL     OW28551   5.846   7.327   5.943
 5507SOL    HW128552   5.838   7.231   5.967
 5507SOL    HW228553   5.941   7.348   5.918
 5508SOL     OW28554   4.250   2.180   1.988
 5508SOL    HW128555   4.193   2.254   2.022
 5508SOL    HW228556   4.259   2.188   1.888
 5509SOL     OW28557   5.554   1.577   6.235
 5509SOL    HW128558   5.608   1.591   6.317
 5509SOL    HW228559   5.510   1.487   6.239
 5510SOL     OW28560   2.671   1.036   2.230
 5510SOL    HW128561   2.609   1.044   2.152
 5510SOL    HW228562   2.681   0.939   2.254
 5511SOL     OW28563   5.998   1.203   6.051
 5511SOL    HW128564   5.990   1.130   5.983
 5511SOL    HW228565   5.940   1.181   6.130
 5512SOL     OW28566   1.597   2.931   4.900
 5512SOL    HW128567   1.605   3.022   4.940
 5512SOL    HW228568   1.688   2.888   4.897
 5513SOL     OW28569   4.034   3.893   0.099
 5513SOL    HW128570   3.939   3.883   0.069
 5513SOL    HW228571   4.076   3.970   0.051
 5514SOL     OW28572   9.473   5.651   6.152
 5514SOL    HW128573   9.477   5.597   6.236
 5514SOL    HW228574   9.385   5.697   6.145
 5515SOL     OW28575   7.790   1.397   1.422
 5515SOL    HW128576   7.709   1.350   1.459
 5515SOL    HW228577   7.803   1.483   1.471
 5516SOL     OW28578   8.311   3.681   6.554
 5516SOL    HW128579   8.348   3.774   6.546
 5516SOL    HW228580   8.212   3.684   6.537
 5517SOL     OW28581   6.497   2.239   6.575
 5517SOL    HW128582   6.590   2.273   6.588
 5517SOL    HW228583   6.460   2.277   6.490
 5518SOL     OW28584   4.953   6.196   1.140
 5518SOL    HW128585   5.004   6.113   1.120
 5518SOL    HW228586   4.874   6.174   1.198
 5519SOL     OW28587   7.825   6.457   5.996
 5519SOL    HW128588   7.843   6.359   5.994
 5519SOL    HW228589   7.745   6.478   5.940
 5520SOL     OW28590   9.382   1.854   6.205
 5520SOL    HW128591   9.377   1.921   6.279
 5520SOL    HW228592   9.474   1.851   6.168
 5521SOL     OW28593   2.661   0.586   0.817
 5521SOL    HW128594   2.709   0.664   0.777
 5521SOL    HW228595   2.563   0.594   0.798
 5522SOL     OW28596   8.527   6.514   5.847
 5522SOL    HW128597   8.563   6.529   5.755
 5522SOL    HW228598   8.572   6.436   5.889
 5523SOL     OW28599   6.237   3.699   0.423
 5523SOL    HW128600   6.192   3.610   0.434
 5523SOL    HW228601   6.204   3.744   0.340
 5524SOL     OW28602   6.514   5.079   5.727
 5524SOL    HW128603   6.452   5.112   5.657
 5524SOL    HW228604   6.602   5.056   5.685
 5525SOL     OW28605   4.154   6.373   5.773
 5525SOL    HW128606   4.120   6.372   5.867
 5525SOL    HW228607   4.093   6.320   5.714
 5526SOL     OW28608   4.755   7.331   0.931
 5526SOL    HW128609   4.786   7.239   0.958
 5526SOL    HW228610   4.684   7.361   0.994
 5527SOL     OW28611   1.199   0.760   5.779
 5527SOL    HW128612   1.106   0.738   5.749
 5527SOL    HW228613   1.207   0.743   5.877
 5528SOL     OW28614   8.481   0.247   6.048
 5528SOL    HW128615   8.440   0.335   6.073
 5528SOL    HW228616   8.426   0.173   6.088
 5529SOL     OW28617   6.501   1.127   0.062
 5529SOL    HW128618   6.595   1.098   0.079
 5529SOL    HW228619   6.450   1.127   0.148
 5530SOL     OW28620   1.058   5.999   4.733
 5530SOL    HW128621   1.007   6.048   4.663
 5530SOL    HW228622   1.110   5.925   4.691
 5531SOL     OW28623   0.969   3.975   5.393
 5531SOL    HW128624   0.945   3.960   5.297
 5531SOL    HW228625   0.947   4.070   5.418
 5532SOL     OW28626   5.111   5.989   1.144
 5532SOL    HW128627   5.179   5.985   1.217
 5532SOL    HW228628   5.036   5.925   1.165
 5533SOL     OW28629   8.477   4.406   5.718
 5533SOL    HW128630   8.475   4.457   5.632
 5533SOL    HW228631   8.568   4.367   5.732
 5534SOL     OW28632   4.848   1.378   0.562
 5534SOL    HW128633   4.816   1.405   0.471
 5534SOL    HW228634   4.793   1.301   0.595
 5535SOL     OW28635   6.472   7.006   6.507
 5535SOL    HW128636   6.548   7.058   6.469
 5535SOL    HW228637   6.443   6.936   6.443
 5536SOL     OW28638   4.830   6.514   1.390
 5536SOL    HW128639   4.907   6.556   1.438
 5536SOL    HW228640   4.834   6.415   1.401
 5537SOL     OW28641   8.566   4.426   6.008
 5537SOL    HW128642   8.533   4.520   5.999
 5537SOL    HW228643   8.657   4.426   6.050
 5538SOL     OW28644   3.077   3.584   1.093
 5538SOL    HW128645   3.132   3.570   1.176
 5538SOL    HW228646   2.980   3.575   1.116
 5539SOL     OW28647   8.674   3.850   0.004
 5539SOL    HW128648   8.688   3.755  -0.024
 5539SOL    HW228649   8.754   3.883   0.054
 5540SOL     OW28650   6.891   6.704   0.599
 5540SOL    HW128651   6.841   6.752   0.672
 5540SOL    HW228652   6.873   6.749   0.512
 5541SOL     OW28653   3.352   6.722   6.351
 5541SOL    HW128654   3.356   6.796   6.418
 5541SOL    HW228655   3.440   6.674   6.348
 5542SOL     OW28656   0.553   6.914   1.257
 5542SOL    HW128657   0.514   6.943   1.344
 5542SOL    HW228658   0.650   6.894   1.269
 5543SOL     OW28659   4.857   3.054   6.512
 5543SOL    HW128660   4.865   3.024   6.417
 5543SOL    HW228661   4.904   2.989   6.572
 5544SOL     OW28662   6.847   6.329   5.997
 5544SOL    HW128663   6.912   6.299   5.927
 5544SOL    HW228664   6.767   6.269   5.996
 5545SOL     OW28665   2.086   3.560   0.365
 5545SOL    HW128666   2.130   3.594   0.282
 5545SOL    HW228667   2.150   3.565   0.442
 5546SOL     OW28668   0.416   3.765   0.769
 5546SOL    HW128669   0.477   3.788   0.693
 5546SOL    HW228670   0.368   3.680   0.748
 5547SOL     OW28671   7.402   3.774   1.911
 5547SOL    HW128672   7.395   3.698   1.975
 5547SOL    HW228673   7.334   3.844   1.935
 5548SOL     OW28674   5.457   5.310   6.044
 5548SOL    HW128675   5.478   5.226   5.994
 5548SOL    HW228676   5.364   5.305   6.080
 5549SOL     OW28677   3.417   1.567   0.857
 5549SOL    HW128678   3.439   1.494   0.922
 5549SOL    HW228679   3.366   1.639   0.904
 5550SOL     OW28680   7.106   6.084   0.939
 5550SOL    HW128681   7.057   6.071   1.026
 5550SOL    HW228682   7.054   6.147   0.881
 5551SOL     OW28683   6.947   1.719   1.164
 5551SOL    HW128684   6.941   1.791   1.233
 5551SOL    HW228685   7.015   1.651   1.194
 5552SOL     OW28686   2.781   7.707   0.235
 5552SOL    HW128687   2.830   7.794   0.226
 5552SOL    HW228688   2.834   7.644   0.291
 5553SOL     OW28689   0.735   4.299   0.122
 5553SOL    HW128690   0.642   4.263   0.117
 5553SOL    HW228691   0.799   4.223   0.130
 5554SOL     OW28692   0.495   4.866   6.090
 5554SOL    HW128693   0.438   4.785   6.105
 5554SOL    HW228694   0.538   4.861   6.000
 5555SOL     OW28695   6.730   5.488   0.807
 5555SOL    HW128696   6.781   5.420   0.859
 5555SOL    HW228697   6.718   5.457   0.712
 5556SOL     OW28698   0.947   3.093   0.054
 5556SOL    HW128699   0.858   3.059   0.022
 5556SOL    HW228700   0.996   3.019   0.100
 5557SOL     OW28701   1.062   7.760   6.175
 5557SOL    HW128702   1.130   7.833   6.184
 5557SOL    HW228703   1.010   7.752   6.259
 5558SOL     OW28704   3.555   6.855   5.083
 5558SOL    HW128705   3.584   6.951   5.079
 5558SOL    HW228706   3.635   6.797   5.094
 5559SOL     OW28707   7.144   6.020   5.166
 5559SOL    HW128708   7.192   6.062   5.089
 5559SOL    HW228709   7.184   5.931   5.185
 5560SOL     OW28710   6.565   1.010   6.420
 5560SOL    HW128711   6.554   1.077   6.493
 5560SOL    HW228712   6.487   1.015   6.357
 5561SOL     OW28713   7.690   7.913   6.128
 5561SOL    HW128714   7.789   7.918   6.118
 5561SOL    HW228715   7.655   7.839   6.070
 5562SOL     OW28716   2.577   5.609   4.933
 5562SOL    HW128717   2.588   5.572   5.025
 5562SOL    HW228718   2.667   5.625   4.892
 5563SOL     OW28719   4.083   0.648   5.652
 5563SOL    HW128720   4.021   0.639   5.730
 5563SOL    HW228721   4.044   0.712   5.586
 5564SOL     OW28722   3.435   7.441   0.171
 5564SOL    HW128723   3.340   7.466   0.188
 5564SOL    HW228724   3.476   7.404   0.254
 5565SOL     OW28725   7.956   7.240   4.927
 5565SOL    HW128726   7.921   7.315   4.871
 5565SOL    HW228727   7.897   7.228   5.007
 5566SOL     OW28728   0.669   3.128   1.118
 5566SOL    HW128729   0.709   3.220   1.121
 5566SOL    HW228730   0.574   3.135   1.088
 5567SOL     OW28731   3.595   5.040   5.764
 5567SOL    HW128732   3.595   4.954   5.817
 5567SOL    HW228733   3.680   5.090   5.782
 5568SOL     OW28734   4.337   4.544   6.565
 5568SOL    HW128735   4.398   4.620   6.542
 5568SOL    HW228736   4.260   4.543   6.501
 5569SOL     OW28737   4.764   1.787   0.516
 5569SOL    HW128738   4.729   1.698   0.546
 5569SOL    HW228739   4.857   1.776   0.480
 5570SOL     OW28740   5.225   8.148   5.406
 5570SOL    HW128741   5.215   8.235   5.453
 5570SOL    HW228742   5.171   8.150   5.321
 5571SOL     OW28743   6.532   4.035   4.958
 5571SOL    HW128744   6.480   4.088   4.891
 5571SOL    HW228745   6.503   3.940   4.955
 5572SOL     OW28746   7.712   6.316   6.480
 5572SOL    HW128747   7.670   6.385   6.420
 5572SOL    HW228748   7.804   6.345   6.505
 5573SOL     OW28749   1.201   0.884   5.454
 5573SOL    HW128750   1.178   0.794   5.490
 5573SOL    HW228751   1.129   0.914   5.391
 5574SOL     OW28752   4.937   1.351   5.616
 5574SOL    HW128753   4.914   1.379   5.523
 5574SOL    HW228754   4.853   1.336   5.668
 5575SOL     OW28755   3.934   6.459   1.514
 5575SOL    HW128756   4.014   6.503   1.473
 5575SOL    HW228757   3.942   6.360   1.504
 5576SOL     OW28758   3.759   5.929   6.456
 5576SOL    HW128759   3.771   6.005   6.520
 5576SOL    HW228760   3.849   5.892   6.432
 5577SOL     OW28761   4.270   0.949   1.099
 5577SOL    HW128762   4.187   0.941   1.044
 5577SOL    HW228763   4.246   0.951   1.196
 5578SOL     OW28764   1.858   5.004   5.881
 5578SOL    HW128765   1.784   5.012   5.814
 5578SOL    HW228766   1.944   5.032   5.838
 5579SOL     OW28767   0.727   5.402   5.264
 5579SOL    HW128768   0.773   5.327   5.312
 5579SOL    HW228769   0.651   5.366   5.209
 5580SOL     OW28770   0.220   7.098   5.728
 5580SOL    HW128771   0.313   7.075   5.699
 5580SOL    HW228772   0.171   7.142   5.653
 5581SOL     OW28773   6.098   1.315   1.016
 5581SOL    HW128774   6.193   1.345   1.025
 5581SOL    HW228775   6.042   1.357   1.088
 5582SOL     OW28776   1.595   8.388   0.594
 5582SOL    HW128777   1.540   8.422   0.518
 5582SOL    HW228778   1.643   8.465   0.638
 5583SOL     OW28779   2.170   4.939   6.374
 5583SOL    HW128780   2.266   4.923   6.395
 5583SOL    HW228781   2.163   5.006   6.299
 5584SOL     OW28782   1.302   0.166   4.830
 5584SOL    HW128783   1.383   0.108   4.828
 5584SOL    HW228784   1.244   0.141   4.907
 5585SOL     OW28785   4.005   0.270   0.950
 5585SOL    HW128786   4.045   0.256   1.041
 5585SOL    HW228787   3.956   0.357   0.948
 5586SOL     OW28788   3.290   2.099   0.259
 5586SOL    HW128789   3.358   2.100   0.332
 5586SOL    HW228790   3.230   2.178   0.268
 5587SOL     OW28791   3.943   2.462   0.577
 5587SOL    HW128792   3.991   2.445   0.491
 5587SOL    HW228793   3.954   2.558   0.602
 5588SOL     OW28794   2.669   1.201   6.309
 5588SOL    HW128795   2.577   1.184   6.274
 5588SOL    HW228796   2.718   1.263   6.247
 5589SOL     OW28797   2.321   6.482   6.077
 5589SOL    HW128798   2.401   6.427   6.105
 5589SOL    HW228799   2.315   6.564   6.133
 5590SOL     OW28800   7.843   7.278   4.556
 5590SOL    HW128801   7.781   7.200   4.553
 5590SOL    HW228802   7.791   7.362   4.538
 5591SOL     OW28803   5.687   8.161   0.049
 5591SOL    HW128804   5.733   8.229  -0.008
 5591SOL    HW228805   5.689   8.072   0.003
 5592SOL     OW28806   0.063   1.970   1.400
 5592SOL    HW128807   0.000   1.942   1.473
 5592SOL    HW228808   0.156   1.976   1.437
 5593SOL     OW28809   4.544   6.736   6.305
 5593SOL    HW128810   4.582   6.828   6.305
 5593SOL    HW228811   4.619   6.669   6.305
 5594SOL     OW28812   0.829   3.913   1.352
 5594SOL    HW128813   0.732   3.920   1.328
 5594SOL    HW228814   0.842   3.840   1.419
 5595SOL     OW28815   8.267   6.505   4.847
 5595SOL    HW128816   8.202   6.550   4.786
 5595SOL    HW228817   8.343   6.469   4.793
 5596SOL     OW28818   3.000   1.453   6.644
 5596SOL    HW128819   2.993   1.419   6.550
 5596SOL    HW228820   3.088   1.426   6.683
 5597SOL     OW28821   9.133   8.147   5.722
 5597SOL    HW128822   9.227   8.172   5.700
 5597SOL    HW228823   9.074   8.227   5.712
 5598SOL     OW28824   0.558   3.357   6.074
 5598SOL    HW128825   0.487   3.317   6.133
 5598SOL    HW228826   0.599   3.284   6.018
 5599SOL     OW28827   0.851   2.928   0.808
 5599SOL    HW128828   0.938   2.945   0.762
 5599SOL    HW228829   0.782   2.991   0.773
 5600SOL     OW28830   0.699   4.589   0.934
 5600SOL    HW128831   0.650   4.629   1.011
 5600SOL    HW228832   0.640   4.524   0.886
 5601SOL     OW28833   5.608   2.666   1.298
 5601SOL    HW128834   5.509   2.674   1.286
 5601SOL    HW228835   5.648   2.757   1.307
 5602SOL     OW28836   9.486   4.654   5.126
 5602SOL    HW128837   9.517   4.594   5.052
 5602SOL    HW228838   9.401   4.699   5.098
 5603SOL     OW28839   7.021   1.934   1.361
 5603SOL    HW128840   6.990   2.016   1.314
 5603SOL    HW228841   7.113   1.949   1.397
 5604SOL     OW28842   3.378   7.138   6.402
 5604SOL    HW128843   3.313   7.213   6.413
 5604SOL    HW228844   3.424   7.145   6.314
 5605SOL     OW28845   0.593   1.457   0.254
 5605SOL    HW128846   0.569   1.522   0.182
 5605SOL    HW228847   0.691   1.465   0.274
 5606SOL     OW28848   0.819   3.345   0.101
 5606SOL    HW128849   0.853   3.281   0.032
 5606SOL    HW228850   0.771   3.295   0.173
 5607SOL     OW28851   7.683   5.365   5.868
 5607SOL    HW128852   7.585   5.384   5.881
 5607SOL    HW228853   7.733   5.450   5.858
 5608SOL     OW28854   3.421   6.466   5.985
 5608SOL    HW128855   3.395   6.501   6.075
 5608SOL    HW228856   3.488   6.393   5.996
 5609SOL     OW28857   7.231   3.975   1.563
 5609SOL    HW128858   7.206   3.911   1.635
 5609SOL    HW228859   7.307   4.032   1.594
 5610SOL     OW28860   5.943   3.394   0.731
 5610SOL    HW128861   5.848   3.371   0.710
 5610SOL    HW228862   5.971   3.474   0.679
 5611SOL     OW28863   0.685   4.704   0.674
 5611SOL    HW128864   0.673   4.640   0.750
 5611SOL    HW228865   0.783   4.715   0.655
 5612SOL     OW28866   9.260   3.175   0.653
 5612SOL    HW128867   9.231   3.115   0.728
 5612SOL    HW228868   9.359   3.184   0.653
 5613SOL     OW28869   4.689   3.675   6.148
 5613SOL    HW128870   4.665   3.584   6.115
 5613SOL    HW228871   4.730   3.667   6.239
 5614SOL     OW28872   5.739   4.563   0.632
 5614SOL    HW128873   5.710   4.500   0.703
 5614SOL    HW228874   5.817   4.616   0.664
 5615SOL     OW28875   4.722   2.621   1.299
 5615SOL    HW128876   4.754   2.670   1.380
 5615SOL    HW228877   4.756   2.527   1.301
 5616SOL     OW28878   2.606   8.323   0.968
 5616SOL    HW128879   2.642   8.242   0.921
 5616SOL    HW228880   2.678   8.364   1.023
 5617SOL     OW28881   3.949   4.180   1.954
 5617SOL    HW128882   4.018   4.115   1.920
 5617SOL    HW228883   3.970   4.203   2.049
 5618SOL     OW28884   1.834   5.941   0.232
 5618SOL    HW128885   1.827   6.031   0.189
 5618SOL    HW228886   1.746   5.894   0.225
 5619SOL     OW28887   2.585   7.080   6.530
 5619SOL    HW128888   2.491   7.104   6.506
 5619SOL    HW228889   2.646   7.113   6.458
 5620SOL     OW28890   6.532   6.564   5.791
 5620SOL    HW128891   6.475   6.646   5.786
 5620SOL    HW228892   6.503   6.508   5.868
 5621SOL     OW28893   8.781   5.208   5.644
 5621SOL    HW128894   8.812   5.129   5.697
 5621SOL    HW228895   8.697   5.185   5.595
 5622SOL     OW28896   1.759   7.319   0.261
 5622SOL    HW128897   1.835   7.376   0.229
 5622SOL    HW228898   1.715   7.364   0.339
 5623SOL     OW28899   0.504   6.951   1.508
 5623SOL    HW128900   0.561   6.877   1.545
 5623SOL    HW228901   0.494   7.022   1.578
 5624SOL     OW28902   4.580   0.712   0.834
 5624SOL    HW128903   4.491   0.668   0.850
 5624SOL    HW228904   4.653   0.654   0.871
 5625SOL     OW28905   0.653   5.075   5.139
 5625SOL    HW128906   0.731   5.026   5.178
 5625SOL    HW228907   0.671   5.095   5.043
 5626SOL     OW28908   7.951   0.957   5.523
 5626SOL    HW128909   8.031   0.910   5.559
 5626SOL    HW228910   7.969   0.989   5.430
 5627SOL     OW28911   4.501   0.468   2.009
 5627SOL    HW128912   4.565   0.410   2.060
 5627SOL    HW228913   4.413   0.469   2.055
 5628SOL     OW28914   0.439   6.379   0.941
 5628SOL    HW128915   0.465   6.403   1.035
 5628SOL    HW228916   0.413   6.283   0.938
 5629SOL     OW28917   1.598   2.657   6.595
 5629SOL    HW128918   1.547   2.654   6.509
 5629SOL    HW228919   1.656   2.738   6.596
 5630SOL     OW28920   7.806   2.754   5.620
 5630SOL    HW128921   7.889   2.707   5.592
 5630SOL    HW228922   7.738   2.748   5.546
 5631SOL     OW28923   0.282   7.836   5.646
 5631SOL    HW128924   0.251   7.920   5.600
 5631SOL    HW228925   0.339   7.861   5.724
 5632SOL     OW28926   2.156   0.336   6.700
 5632SOL    HW128927   2.139   0.395   6.779
 5632SOL    HW228928   2.152   0.391   6.616
 5633SOL     OW28929   0.226   8.187   5.756
 5633SOL    HW128930   0.172   8.268   5.732
 5633SOL    HW228931   0.218   8.169   5.854
 5634SOL     OW28932   2.907   4.198   1.034
 5634SOL    HW128933   2.877   4.248   1.114
 5634SOL    HW228934   2.828   4.153   0.991
 5635SOL     OW28935   3.556   4.923   1.372
 5635SOL    HW128936   3.623   4.967   1.432
 5635SOL    HW228937   3.492   4.992   1.338
 5636SOL     OW28938   8.254   7.407   6.208
 5636SOL    HW128939   8.162   7.446   6.200
 5636SOL    HW228940   8.253   7.313   6.174
 5637SOL     OW28941   7.300   0.540   5.944
 5637SOL    HW128942   7.211   0.500   5.920
 5637SOL    HW228943   7.306   0.548   6.044
 5638SOL     OW28944   5.915   2.767   0.497
 5638SOL    HW128945   5.925   2.761   0.398
 5638SOL    HW228946   5.993   2.816   0.535
 5639SOL     OW28947   4.031   2.902   5.100
 5639SOL    HW128948   4.085   2.885   5.183
 5639SOL    HW228949   4.001   2.998   5.099
 5640SOL     OW28950   2.765   4.929   5.679
 5640SOL    HW128951   2.805   5.021   5.674
 5640SOL    HW228952   2.823   4.865   5.630
 5641SOL     OW28953   1.328   7.697   0.743
 5641SOL    HW128954   1.252   7.639   0.771
 5641SOL    HW228955   1.330   7.704   0.643
 5642SOL     OW28956   0.953   8.460   6.176
 5642SOL    HW128957   0.928   8.446   6.272
 5642SOL    HW228958   1.050   8.484   6.170
 5643SOL     OW28959   9.406   8.263   5.643
 5643SOL    HW128960   9.333   8.307   5.591
 5643SOL    HW228961   9.485   8.325   5.647
 5644SOL     OW28962   2.437   3.129   6.717
 5644SOL    HW128963   2.446   3.147   6.815
 5644SOL    HW228964   2.365   3.062   6.702
 5645SOL     OW28965   1.991   5.283   1.020
 5645SOL    HW128966   2.068   5.303   1.080
 5645SOL    HW228967   1.956   5.191   1.040
 5646SOL     OW28968   2.564   3.346   1.498
 5646SOL    HW128969   2.495   3.327   1.568
 5646SOL    HW228970   2.601   3.438   1.513
 5647SOL     OW28971   2.640   5.712   6.292
 5647SOL    HW128972   2.593   5.721   6.380
 5647SOL    HW228973   2.616   5.790   6.234
 5648SOL     OW28974   6.603   2.553   0.682
 5648SOL    HW128975   6.518   2.529   0.635
 5648SOL    HW228976   6.625   2.649   0.663
 5649SOL     OW28977   7.740   3.536   0.636
 5649SOL    HW128978   7.758   3.582   0.549
 5649SOL    HW228979   7.642   3.516   0.644
 5650SOL     OW28980   7.164   1.831   0.335
 5650SOL    HW128981   7.237   1.844   0.268
 5650SOL    HW228982   7.110   1.915   0.343
 5651SOL     OW28983   8.788   0.858   6.605
 5651SOL    HW128984   8.719   0.840   6.535
 5651SOL    HW228985   8.839   0.774   6.624
 5652SOL     OW28986   5.207   5.108   0.594
 5652SOL    HW128987   5.137   5.167   0.553
 5652SOL    HW228988   5.162   5.038   0.649
 5653SOL     OW28989   0.851   6.910   0.657
 5653SOL    HW128990   0.918   6.914   0.582
 5653SOL    HW228991   0.898   6.885   0.742
 5654SOL     OW28992   0.495   5.697   4.868
 5654SOL    HW128993   0.533   5.604   4.863
 5654SOL    HW228994   0.533   5.743   4.948
 5655SOL     OW28995   5.173   5.355   0.002
 5655SOL    HW128996   5.235   5.433   0.005
 5655SOL    HW228997   5.211   5.284  -0.057
 5656SOL     OW28998   7.424   2.967   0.088
 5656SOL    HW128999   7.412   3.036   0.159
 5656SOL    HW229000   7.436   3.011  -0.000
 5657SOL     OW29001   2.484   2.731   5.358
 5657SOL    HW129002   2.485   2.818   5.307
 5657SOL    HW229003   2.403   2.678   5.332
 5658SOL     OW29004   8.126   8.270   5.127
 5658SOL    HW129005   8.138   8.318   5.040
 5658SOL    HW229006   8.078   8.183   5.110
 5659SOL     OW29007   5.579   5.148   0.572
 5659SOL    HW129008   5.619   5.144   0.663
 5659SOL    HW229009   5.496   5.204   0.574
 5660SOL     OW29010   1.686   6.457   6.537
 5660SOL    HW129011   1.645   6.548   6.544
 5660SOL    HW229012   1.614   6.388   6.547
 5661SOL     OW29013   7.631   1.559   6.486
 5661SOL    HW129014   7.683   1.643   6.502
 5661SOL    HW229015   7.668   1.486   6.544
 5662SOL     OW29016   8.207   5.945   5.563
 5662SOL    HW129017   8.143   5.947   5.486
 5662SOL    HW229018   8.158   5.966   5.648
 5663SOL     OW29019   0.609   7.151   6.157
 5663SOL    HW129020   0.609   7.173   6.254
 5663SOL    HW229021   0.703   7.130   6.128
 5664SOL     OW29022   7.221   5.274   4.859
 5664SOL    HW129023   7.258   5.272   4.766
 5664SOL    HW229024   7.221   5.182   4.897
 5665SOL     OW29025   3.116   2.237   1.397
 5665SOL    HW129026   3.078   2.330   1.390
 5665SOL    HW229027   3.055   2.173   1.350
 5666SOL     OW29028   4.991   6.490   0.637
 5666SOL    HW129029   5.081   6.531   0.629
 5666SOL    HW229030   4.983   6.442   0.724
 5667SOL     OW29031   8.272   7.197   5.111
 5667SOL    HW129032   8.285   7.116   5.054
 5667SOL    HW229033   8.313   7.276   5.066
 5668SOL     OW29034   8.558   1.374   0.591
 5668SOL    HW129035   8.600   1.339   0.675
 5668SOL    HW229036   8.548   1.299   0.526
 5669SOL     OW29037   0.491   7.374   4.713
 5669SOL    HW129038   0.461   7.397   4.620
 5669SOL    HW229039   0.591   7.364   4.714
 5670SOL     OW29040   1.746   5.440   0.413
 5670SOL    HW129041   1.821   5.434   0.479
 5670SOL    HW229042   1.780   5.421   0.321
 5671SOL     OW29043   3.342   4.803   6.296
 5671SOL    HW129044   3.398   4.730   6.257
 5671SOL    HW229045   3.398   4.885   6.308
 5672SOL     OW29046   8.308   0.552   5.852
 5672SOL    HW129047   8.386   0.556   5.789
 5672SOL    HW229048   8.238   0.617   5.821
 5673SOL     OW29049   1.855   5.180   1.408
 5673SOL    HW129050   1.928   5.123   1.446
 5673SOL    HW229051   1.814   5.133   1.329
 5674SOL     OW29052   2.649   5.603   5.805
 5674SOL    HW129053   2.694   5.597   5.894
 5674SOL    HW229054   2.718   5.600   5.732
 5675SOL     OW29055   2.658   2.582   5.899
 5675SOL    HW129056   2.575   2.526   5.899
 5675SOL    HW229057   2.738   2.523   5.895
 5676SOL     OW29058   1.310   2.606   5.309
 5676SOL    HW129059   1.387   2.635   5.252
 5676SOL    HW229060   1.305   2.506   5.309
 5677SOL     OW29061   1.384   6.182   0.752
 5677SOL    HW129062   1.470   6.133   0.767
 5677SOL    HW229063   1.386   6.225   0.662
 5678SOL     OW29064   0.885   8.093   6.161
 5678SOL    HW129065   0.954   8.131   6.100
 5678SOL    HW229066   0.923   8.083   6.253
 5679SOL     OW29067   2.781   1.913   1.213
 5679SOL    HW129068   2.746   1.900   1.120
 5679SOL    HW229069   2.711   1.887   1.279
 5680SOL     OW29070   4.252   3.161   6.315
 5680SOL    HW129071   4.332   3.192   6.263
 5680SOL    HW229072   4.276   3.080   6.368
 5681SOL     OW29073   4.530   6.983   1.638
 5681SOL    HW129074   4.464   7.032   1.694
 5681SOL    HW229075   4.577   6.914   1.694
 5682SOL     OW29076   7.374   7.443   5.781
 5682SOL    HW129077   7.379   7.417   5.878
 5682SOL    HW229078   7.446   7.396   5.731
 5683SOL     OW29079   3.472   0.437   1.309
 5683SOL    HW129080   3.518   0.460   1.223
 5683SOL    HW229081   3.518   0.483   1.385
 5684SOL     OW29082   4.388   3.587   0.651
 5684SOL    HW129083   4.432   3.658   0.595
 5684SOL    HW229084   4.300   3.620   0.684
 5685SOL     OW29085   3.339   1.767   1.695
 5685SOL    HW129086   3.329   1.788   1.792
 5685SOL    HW229087   3.360   1.670   1.684
 5686SOL     OW29088   2.262   6.025   6.411
 5686SOL    HW129089   2.196   6.100   6.405
 5686SOL    HW229090   2.332   6.047   6.479
 5687SOL     OW29091   2.649   6.978   0.873
 5687SOL    HW129092   2.620   6.908   0.939
 5687SOL    HW229093   2.569   7.009   0.822
 5688SOL     OW29094   0.390   7.656   6.531
 5688SOL    HW129095   0.459   7.699   6.590
 5688SOL    HW229096   0.301   7.658   6.576
 5689SOL     OW29097   3.737   2.457   1.048
 5689SOL    HW129098   3.736   2.423   1.142
 5689SOL    HW229099   3.676   2.401   0.992
 5690SOL     OW29100   7.601   2.294   0.884
 5690SOL    HW129101   7.505   2.315   0.868
 5690SOL    HW229102   7.640   2.249   0.804
 5691SOL     OW29103   5.834   6.847   5.410
 5691SOL    HW129104   5.782   6.782   5.465
 5691SOL    HW229105   5.789   6.860   5.322
 5692SOL     OW29106   6.063   7.908   1.085
 5692SOL    HW129107   6.096   7.905   1.180
 5692SOL    HW229108   6.067   8.002   1.051
 5693SOL     OW29109   0.643   4.189   6.014
 5693SOL    HW129110   0.643   4.100   5.968
 5693SOL    HW229111   0.550   4.212   6.043
 5694SOL     OW29112   0.845   5.556   1.071
 5694SOL    HW129113   0.820   5.532   1.165
 5694SOL    HW229114   0.925   5.616   1.072
 5695SOL     OW29115   1.020   1.336   1.100
 5695SOL    HW129116   1.094   1.282   1.061
 5695SOL    HW229117   0.951   1.275   1.139
 5696SOL     OW29118   2.695   6.413   0.017
 5696SOL    HW129119   2.689   6.511  -0.002
 5696SOL    HW229120   2.791   6.387   0.029
 5697SOL     OW29121   5.481   2.824   0.699
 5697SOL    HW129122   5.424   2.884   0.643
 5697SOL    HW229123   5.422   2.761   0.750
 5698SOL     OW29124   1.714   1.418   1.079
 5698SOL    HW129125   1.779   1.487   1.046
 5698SOL    HW229126   1.686   1.441   1.172
 5699SOL     OW29127   2.190   8.484   0.602
 5699SOL    HW129128   2.215   8.388   0.613
 5699SOL    HW229129   2.170   8.524   0.691
 5700SOL     OW29130   3.824   0.280   5.769
 5700SOL    HW129131   3.817   0.380   5.771
 5700SOL    HW229132   3.742   0.242   5.728
 5701SOL     OW29133   4.239   1.974   6.329
 5701SOL    HW129134   4.309   2.046   6.328
 5701SOL    HW229135   4.282   1.886   6.307
 5702SOL     OW29136   5.983   6.723   2.008
 5702SOL    HW129137   6.081   6.736   2.022
 5702SOL    HW229138   5.947   6.664   2.080
 5703SOL     OW29139   8.721   6.918   1.460
 5703SOL    HW129140   8.637   6.928   1.513
 5703SOL    HW229141   8.715   6.836   1.403
 5704SOL     OW29142   4.300   4.858   5.522
 5704SOL    HW129143   4.331   4.765   5.503
 5704SOL    HW229144   4.235   4.887   5.452
 5705SOL     OW29145   9.060   8.384   0.145
 5705SOL    HW129146   9.035   8.480   0.161
 5705SOL    HW229147   9.141   8.361   0.199
 5706SOL     OW29148   3.032   6.482   1.217
 5706SOL    HW129149   2.981   6.399   1.195
 5706SOL    HW229150   2.979   6.562   1.188
 5707SOL     OW29151   4.795   2.792   6.075
 5707SOL    HW129152   4.866   2.845   6.028
 5707SOL    HW229153   4.838   2.733   6.143
 5708SOL     OW29154   2.946   3.421   5.961
 5708SOL    HW129155   2.937   3.520   5.953
 5708SOL    HW229156   2.873   3.376   5.910
 5709SOL     OW29157   5.945   0.404   1.836
 5709SOL    HW129158   6.008   0.481   1.845
 5709SOL    HW229159   5.934   0.359   1.925
 5710SOL     OW29160   4.632   3.439   0.095
 5710SOL    HW129161   4.676   3.388   0.022
 5710SOL    HW229162   4.640   3.537   0.077
 5711SOL     OW29163   5.137   1.006   6.689
 5711SOL    HW129164   5.179   0.916   6.704
 5711SOL    HW229165   5.093   1.037   6.773
 5712SOL     OW29166   0.203   2.787   6.726
 5712SOL    HW129167   0.133   2.756   6.662
 5712SOL    HW229168   0.250   2.867   6.688
 5713SOL     OW29169   1.376   1.932   1.180
 5713SOL    HW129170   1.439   1.859   1.154
 5713SOL    HW229171   1.427   2.018   1.188
 5714SOL     OW29172   3.755   5.035   1.520
 5714SOL    HW129173   3.842   4.995   1.491
 5714SOL    HW229174   3.722   4.987   1.601
 5715SOL     OW29175   1.353   2.647   6.444
 5715SOL    HW129176   1.278   2.630   6.509
 5715SOL    HW229177   1.357   2.745   6.423
 5716SOL     OW29178   4.514   7.450   6.041
 5716SOL    HW129179   4.563   7.444   5.954
 5716SOL    HW229180   4.578   7.438   6.117
 5717SOL     OW29181   1.300   2.010   5.274
 5717SOL    HW129182   1.244   2.076   5.325
 5717SOL    HW229183   1.340   2.055   5.195
 5718SOL     OW29184   5.647   8.038   1.981
 5718SOL    HW129185   5.718   7.976   2.017
 5718SOL    HW229186   5.561   7.987   1.971
 5719SOL     OW29187   5.925   3.041   0.934
 5719SOL    HW129188   5.973   3.124   0.964
 5719SOL    HW229189   5.975   3.000   0.858
 5720SOL     OW29190   7.972   2.873   0.444
 5720SOL    HW129191   8.061   2.917   0.460
 5720SOL    HW229192   7.899   2.937   0.467
 5721SOL     OW29193   3.649   1.799   6.144
 5721SOL    HW129194   3.550   1.791   6.157
 5721SOL    HW229195   3.679   1.732   6.076
 5722SOL     OW29196   3.383   1.420   1.294
 5722SOL    HW129197   3.374   1.495   1.228
 5722SOL    HW229198   3.450   1.444   1.363
 5723SOL     OW29199   7.110   6.720   0.257
 5723SOL    HW129200   7.102   6.634   0.207
 5723SOL    HW229201   7.165   6.707   0.339
 5724SOL     OW29202   4.856   1.516   1.642
 5724SOL    HW129203   4.839   1.453   1.717
 5724SOL    HW229204   4.853   1.610   1.676
 5725SOL     OW29205   1.062   1.553   6.682
 5725SOL    HW129206   1.079   1.618   6.756
 5725SOL    HW229207   1.148   1.531   6.637
 5726SOL     OW29208   5.438   7.771   0.289
 5726SOL    HW129209   5.498   7.836   0.243
 5726SOL    HW229210   5.478   7.744   0.376
 5727SOL     OW29211   2.429   0.925   1.068
 5727SOL    HW129212   2.514   0.875   1.087
 5727SOL    HW229213   2.354   0.884   1.120
 5728SOL     OW29214   2.146   6.859   6.632
 5728SOL    HW129215   2.163   6.953   6.605
 5728SOL    HW229216   2.141   6.801   6.550
 5729SOL     OW29217   8.581   4.178   6.569
 5729SOL    HW129218   8.607   4.160   6.664
 5729SOL    HW229219   8.660   4.213   6.519
 5730SOL     OW29220   8.520   1.971   1.383
 5730SOL    HW129221   8.533   2.066   1.355
 5730SOL    HW229222   8.538   1.962   1.481
 5731SOL     OW29223   5.640   8.114   6.308
 5731SOL    HW129224   5.739   8.129   6.318
 5731SOL    HW229225   5.621   8.067   6.222
 5732SOL     OW29226   3.756   7.356   0.409
 5732SOL    HW129227   3.785   7.262   0.423
 5732SOL    HW229228   3.836   7.417   0.412
 5733SOL     OW29229   5.654   4.229   1.450
 5733SOL    HW129230   5.700   4.165   1.511
 5733SOL    HW229231   5.555   4.223   1.462
 5734SOL     OW29232   6.054   0.608   0.571
 5734SOL    HW129233   6.008   0.680   0.519
 5734SOL    HW229234   5.994   0.575   0.644
 5735SOL     OW29235   5.603   2.161   0.905
 5735SOL    HW129236   5.588   2.087   0.840
 5735SOL    HW229237   5.566   2.246   0.867
 5736SOL     OW29238   0.220   1.906   0.850
 5736SOL    HW129239   0.203   1.815   0.888
 5736SOL    HW229240   0.268   1.961   0.917
 5737SOL     OW29241   7.802   5.530   4.917
 5737SOL    HW129242   7.863   5.534   4.839
 5737SOL    HW229243   7.707   5.527   4.885
 5738SOL     OW29244   5.718   6.709   0.634
 5738SOL    HW129245   5.670   6.728   0.720
 5738SOL    HW229246   5.749   6.796   0.594
 5739SOL     OW29247   4.222   6.573   5.551
 5739SOL    HW129248   4.219   6.494   5.612
 5739SOL    HW229249   4.191   6.545   5.460
 5740SOL     OW29250   7.808   5.368   0.369
 5740SOL    HW129251   7.852   5.281   0.350
 5740SOL    HW229252   7.724   5.353   0.421
 5741SOL     OW29253   6.102   4.266   0.266
 5741SOL    HW129254   6.051   4.276   0.351
 5741SOL    HW229255   6.149   4.351   0.244
 5742SOL     OW29256   8.893   2.111   6.178
 5742SOL    HW129257   8.926   2.106   6.272
 5742SOL    HW229258   8.878   2.207   6.154
 5743SOL     OW29259   4.592   7.958   5.290
 5743SOL    HW129260   4.518   7.892   5.275
 5743SOL    HW229261   4.648   7.927   5.367
 5744SOL     OW29262   0.159   7.297   0.965
 5744SOL    HW129263   0.130   7.202   0.951
 5744SOL    HW229264   0.104   7.338   1.038
 5745SOL     OW29265   6.671   4.212   1.192
 5745SOL    HW129266   6.625   4.256   1.116
 5745SOL    HW229267   6.641   4.253   1.278
 5746SOL     OW29268   2.388   6.632   6.367
 5746SOL    HW129269   2.434   6.703   6.420
 5746SOL    HW229270   2.305   6.603   6.414
 5747SOL     OW29271   5.601   0.260   6.468
 5747SOL    HW129272   5.607   0.356   6.441
 5747SOL    HW229273   5.574   0.253   6.564
 5748SOL     OW29274   0.424   1.298   6.551
 5748SOL    HW129275   0.499   1.304   6.486
 5748SOL    HW229276   0.341   1.334   6.509
 5749SOL     OW29277   7.861   3.780   1.196
 5749SOL    HW129278   7.812   3.811   1.115
 5749SOL    HW229279   7.930   3.712   1.169
 5750SOL     OW29280   3.608   7.441   2.168
 5750SOL    HW129281   3.663   7.444   2.251
 5750SOL    HW229282   3.651   7.381   2.101
 5751SOL     OW29283   2.895   3.049   6.637
 5751SOL    HW129284   2.904   2.977   6.568
 5751SOL    HW229285   2.911   3.138   6.595
 5752SOL     OW29286   8.496   8.225   0.649
 5752SOL    HW129287   8.590   8.205   0.619
 5752SOL    HW229288   8.432   8.185   0.584
 5753SOL     OW29289   7.678   4.961   6.575
 5753SOL    HW129290   7.692   4.975   6.477
 5753SOL    HW229291   7.649   4.866   6.592
 5754SOL     OW29292   5.324   8.090   1.542
 5754SOL    HW129293   5.386   8.144   1.485
 5754SOL    HW229294   5.346   8.104   1.638
 5755SOL     OW29295   1.030   3.517   0.010
 5755SOL    HW129296   1.021   3.617   0.009
 5755SOL    HW229297   0.952   3.477   0.057
 5756SOL     OW29298   5.804   1.265   0.574
 5756SOL    HW129299   5.893   1.274   0.620
 5756SOL    HW229300   5.814   1.206   0.494
 5757SOL     OW29301   5.419   8.272   1.379
 5757SOL    HW129302   5.379   8.358   1.411
 5757SOL    HW229303   5.386   8.252   1.286
 5758SOL     OW29304   5.508   8.191   0.283
 5758SOL    HW129305   5.596   8.179   0.236
 5758SOL    HW229306   5.524   8.217   0.378
 5759SOL     OW29307   3.760   4.737   1.388
 5759SOL    HW129308   3.670   4.779   1.374
 5759SOL    HW229309   3.779   4.730   1.486
 5760SOL     OW29310   4.984   7.068   5.566
 5760SOL    HW129311   4.925   7.047   5.488
 5760SOL    HW229312   4.965   7.005   5.641
 5761SOL     OW29313   5.994   1.515   6.398
 5761SOL    HW129314   6.063   1.448   6.369
 5761SOL    HW229315   6.010   1.540   6.493
 5762SOL     OW29316   8.786   7.183   6.234
 5762SOL    HW129317   8.700   7.167   6.185
 5762SOL    HW229318   8.774   7.165   6.331
 5763SOL     OW29319   0.574   0.933   5.360
 5763SOL    HW129320   0.589   0.925   5.261
 5763SOL    HW229321   0.661   0.928   5.408
 5764SOL     OW29322   8.059   3.452   6.423
 5764SOL    HW129323   8.117   3.474   6.345
 5764SOL    HW229324   8.071   3.521   6.494
 5765SOL     OW29325   9.329   3.120   6.245
 5765SOL    HW129326   9.303   3.152   6.336
 5765SOL    HW229327   9.264   3.051   6.214
 5766SOL     OW29328   9.440   4.931   1.023
 5766SOL    HW129329   9.507   4.957   1.094
 5766SOL    HW229330   9.407   4.839   1.041
 5767SOL     OW29331   4.851   1.477   6.165
 5767SOL    HW129332   4.872   1.443   6.257
 5767SOL    HW229333   4.829   1.574   6.170
 5768SOL     OW29334   0.377   7.067   0.743
 5768SOL    HW129335   0.390   7.045   0.840
 5768SOL    HW229336   0.352   6.983   0.694
 5769SOL     OW29337   2.027   2.869   6.625
 5769SOL    HW129338   2.049   2.782   6.667
 5769SOL    HW229339   2.098   2.892   6.558
 5770SOL     OW29340   8.874   3.955   0.128
 5770SOL    HW129341   8.893   4.050   0.151
 5770SOL    HW229342   8.945   3.896   0.166
 5771SOL     OW29343   1.006   6.625   0.054
 5771SOL    HW129344   0.986   6.585   0.143
 5771SOL    HW229345   0.972   6.719   0.051
 5772SOL     OW29346   1.183   8.347   0.463
 5772SOL    HW129347   1.210   8.440   0.488
 5772SOL    HW229348   1.143   8.301   0.542
 5773SOL     OW29349   6.979   4.289   1.335
 5773SOL    HW129350   7.072   4.321   1.354
 5773SOL    HW229351   6.983   4.199   1.291
 5774SOL     OW29352   1.423   4.899   6.166
 5774SOL    HW129353   1.415   4.807   6.127
 5774SOL    HW229354   1.508   4.942   6.133
 5775SOL     OW29355   7.879   7.502   6.467
 5775SOL    HW129356   7.921   7.588   6.437
 5775SOL    HW229357   7.813   7.521   6.540
 5776SOL     OW29358   7.098   5.631   1.005
 5776SOL    HW129359   7.107   5.636   0.906
 5776SOL    HW229360   7.155   5.557   1.040
 5777SOL     OW29361   0.513   5.708   5.843
 5777SOL    HW129362   0.566   5.717   5.759
 5777SOL    HW229363   0.551   5.634   5.898
 5778SOL     OW29364   4.998   6.273   5.942
 5778SOL    HW129365   5.016   6.309   6.033
 5778SOL    HW229366   5.079   6.227   5.907
 5779SOL     OW29367   4.040   5.533   2.031
 5779SOL    HW129368   4.003   5.619   2.067
 5779SOL    HW229369   3.969   5.463   2.034
 5780SOL     OW29370   3.499   6.309   0.905
 5780SOL    HW129371   3.509   6.324   1.003
 5780SOL    HW229372   3.436   6.233   0.889
 5781SOL     OW29373   2.199   5.606   0.932
 5781SOL    HW129374   2.207   5.645   1.023
 5781SOL    HW229375   2.115   5.638   0.888
 5782SOL     OW29376   3.402   4.716   1.486
 5782SOL    HW129377   3.375   4.735   1.581
 5782SOL    HW229378   3.439   4.799   1.445
 5783SOL     OW29379   6.685   6.298   1.527
 5783SOL    HW129380   6.741   6.217   1.542
 5783SOL    HW229381   6.642   6.325   1.613
 5784SOL     OW29382   8.930   3.346   6.732
 5784SOL    HW129383   8.985   3.266   6.712
 5784SOL    HW229384   8.947   3.417   6.662
 5785SOL     OW29385   8.903   7.436   1.103
 5785SOL    HW129386   8.970   7.508   1.117
 5785SOL    HW229387   8.847   7.424   1.185
 5786SOL     OW29388   2.086   4.127   1.909
 5786SOL    HW129389   2.015   4.187   1.946
 5786SOL    HW229390   2.051   4.079   1.828
 5787SOL     OW29391   1.247   6.673   0.161
 5787SOL    HW129392   1.159   6.632   0.139
 5787SOL    HW229393   1.305   6.673   0.080
 5788SOL     OW29394   1.861   2.756   0.558
 5788SOL    HW129395   1.804   2.731   0.636
 5788SOL    HW229396   1.957   2.741   0.580
 5789SOL     OW29397   5.927   3.125   1.487
 5789SOL    HW129398   5.924   3.067   1.568
 5789SOL    HW229399   5.834   3.151   1.461
 5790SOL     OW29400   4.137   0.859   1.459
 5790SOL    HW129401   4.143   0.901   1.550
 5790SOL    HW229402   4.050   0.885   1.416
 5791SOL     OW29403   0.589   1.920   0.141
 5791SOL    HW129404   0.637   1.973   0.071
 5791SOL    HW229405   0.535   1.981   0.198
 5792SOL     OW29406   0.792   7.643   5.973
 5792SOL    HW129407   0.880   7.685   5.953
 5792SOL    HW229408   0.743   7.698   6.041
 5793SOL     OW29409   4.531   6.523   0.471
 5793SOL    HW129410   4.533   6.601   0.409
 5793SOL    HW229411   4.553   6.439   0.421
 5794SOL     OW29412   3.973   3.100   6.200
 5794SOL    HW129413   4.006   3.027   6.141
 5794SOL    HW229414   4.047   3.134   6.257
 5795SOL     OW29415   8.914   4.007   6.083
 5795SOL    HW129416   8.947   4.101   6.082
 5795SOL    HW229417   8.817   4.005   6.062
 5796SOL     OW29418   2.684   7.523   5.886
 5796SOL    HW129419   2.741   7.540   5.805
 5796SOL    HW229420   2.587   7.527   5.860
 5797SOL     OW29421   6.787   0.915   5.818
 5797SOL    HW129422   6.775   0.958   5.729
 5797SOL    HW229423   6.871   0.951   5.861
 5798SOL     OW29424   7.324   6.007   0.576
 5798SOL    HW129425   7.372   5.956   0.647
 5798SOL    HW229426   7.242   5.958   0.549
 5799SOL     OW29427   6.455   1.923   0.149
 5799SOL    HW129428   6.499   1.901   0.237
 5799SOL    HW229429   6.522   1.963   0.087
 5800SOL     OW29430   4.941   1.317   5.932
 5800SOL    HW129431   4.875   1.361   5.994
 5800SOL    HW229432   5.030   1.361   5.942
 5801SOL     OW29433   5.215   2.244   5.592
 5801SOL    HW129434   5.201   2.210   5.499
 5801SOL    HW229435   5.193   2.341   5.596
 5802SOL     OW29436   4.151   2.016   5.962
 5802SOL    HW129437   4.120   1.921   5.969
 5802SOL    HW229438   4.229   2.030   6.023
 5803SOL     OW29439   3.345   6.930   1.432
 5803SOL    HW129440   3.401   6.940   1.514
 5803SOL    HW229441   3.401   6.890   1.359
 5804SOL     OW29442   8.791   6.751   5.629
 5804SOL    HW129443   8.863   6.795   5.575
 5804SOL    HW229444   8.824   6.663   5.663
 5805SOL     OW29445   0.488   7.091   5.113
 5805SOL    HW129446   0.389   7.076   5.121
 5805SOL    HW229447   0.508   7.189   5.119
 5806SOL     OW29448   0.583   6.532   1.427
 5806SOL    HW129449   0.527   6.578   1.495
 5806SOL    HW229450   0.680   6.547   1.448
 5807SOL     OW29451   3.541   8.360   1.312
 5807SOL    HW129452   3.578   8.326   1.226
 5807SOL    HW229453   3.547   8.288   1.381
 5808SOL     OW29454   4.664   4.770   0.794
 5808SOL    HW129455   4.588   4.713   0.762
 5808SOL    HW229456   4.685   4.747   0.889
 5809SOL     OW29457   1.180   2.835   5.259
 5809SOL    HW129458   1.197   2.740   5.287
 5809SOL    HW229459   1.246   2.896   5.302
 5810SOL     OW29460   6.052   0.660   1.887
 5810SOL    HW129461   5.992   0.737   1.909
 5810SOL    HW229462   6.138   0.669   1.938
 5811SOL     OW29463   8.168   7.678   0.193
 5811SOL    HW129464   8.205   7.622   0.267
 5811SOL    HW229465   8.243   7.728   0.149
 5812SOL     OW29466   9.044   6.861   1.392
 5812SOL    HW129467   8.976   6.811   1.338
 5812SOL    HW229468   9.063   6.810   1.476
 5813SOL     OW29469   1.243   4.288   5.627
 5813SOL    HW129470   1.341   4.272   5.643
 5813SOL    HW229471   1.226   4.295   5.529
 5814SOL     OW29472   4.837   4.596   6.581
 5814SOL    HW129473   4.815   4.549   6.495
 5814SOL    HW229474   4.849   4.529   6.654
 5815SOL     OW29475   9.115   7.669   0.993
 5815SOL    HW129476   9.139   7.604   0.920
 5815SOL    HW229477   9.178   7.657   1.070
 5816SOL     OW29478   4.608   5.730   1.558
 5816SOL    HW129479   4.550   5.776   1.491
 5816SOL    HW229480   4.597   5.775   1.647
 5817SOL     OW29481   1.904   6.439   5.033
 5817SOL    HW129482   1.895   6.363   4.969
 5817SOL    HW229483   2.000   6.452   5.056
 5818SOL     OW29484   5.495   5.823   1.053
 5818SOL    HW129485   5.588   5.845   1.023
 5818SOL    HW229486   5.429   5.869   0.994
 5819SOL     OW29487   3.257   5.821   5.825
 5819SOL    HW129488   3.354   5.845   5.834
 5819SOL    HW229489   3.212   5.831   5.914
 5820SOL     OW29490   7.175   5.618   0.747
 5820SOL    HW129491   7.274   5.607   0.758
 5820SOL    HW229492   7.151   5.715   0.760
 5821SOL     OW29493   1.755   4.744   6.262
 5821SOL    HW129494   1.741   4.766   6.358
 5821SOL    HW229495   1.758   4.828   6.208
 5822SOL     OW29496   0.118   3.062   6.160
 5822SOL    HW129497   0.022   3.084   6.176
 5822SOL    HW229498   0.124   2.976   6.109
 5823SOL     OW29499   6.568   4.038   0.949
 5823SOL    HW129500   6.548   4.130   0.984
 5823SOL    HW229501   6.621   4.045   0.864
 5824SOL     OW29502   0.023   0.207   1.505
 5824SOL    HW129503   0.055   0.269   1.434
 5824SOL    HW229504   0.014   0.257   1.591
 5825SOL     OW29505   4.335   2.852   1.354
 5825SOL    HW129506   4.388   2.892   1.429
 5825SOL    HW229507   4.252   2.905   1.339
 5826SOL     OW29508   4.992   0.700   0.551
 5826SOL    HW129509   4.997   0.604   0.522
 5826SOL    HW229510   4.897   0.731   0.547
 5827SOL     OW29511   8.892   2.606   0.566
 5827SOL    HW129512   8.837   2.682   0.600
 5827SOL    HW229513   8.848   2.519   0.591
 5828SOL     OW29514   6.881   5.822   6.676
 5828SOL    HW129515   6.902   5.920   6.681
 5828SOL    HW229516   6.864   5.797   6.581
 5829SOL     OW29517   7.025   2.984   0.459
 5829SOL    HW129518   7.124   2.968   0.464
 5829SOL    HW229519   6.979   2.899   0.437
 5830SOL     OW29520   1.940   4.427   0.218
 5830SOL    HW129521   2.029   4.385   0.199
 5830SOL    HW229522   1.891   4.443   0.132
 5831SOL     OW29523   1.935   2.621   4.778
 5831SOL    HW129524   1.866   2.549   4.777
 5831SOL    HW229525   1.895   2.706   4.811
 5832SOL     OW29526   8.080   4.677   6.683
 5832SOL    HW129527   8.019   4.612   6.639
 5832SOL    HW229528   8.031   4.763   6.699
 5833SOL     OW29529   8.093   6.016   6.546
 5833SOL    HW129530   8.066   5.942   6.607
 5833SOL    HW229531   8.181   5.995   6.504
 5834SOL     OW29532   8.305   6.801   5.705
 5834SOL    HW129533   8.309   6.710   5.665
 5834SOL    HW229534   8.252   6.861   5.645
 5835SOL     OW29535   1.743   0.291   1.513
 5835SOL    HW129536   1.758   0.199   1.551
 5835SOL    HW229537   1.659   0.329   1.551
 5836SOL     OW29538   3.412   2.458   6.195
 5836SOL    HW129539   3.323   2.458   6.242
 5836SOL    HW229540   3.485   2.471   6.263
 5837SOL     OW29541   9.336   2.361   6.153
 5837SOL    HW129542   9.249   2.389   6.194
 5837SOL    HW229543   9.325   2.357   6.053
 5838SOL     OW29544   4.856   0.714   5.296
 5838SOL    HW129545   4.815   0.748   5.212
 5838SOL    HW229546   4.947   0.754   5.307
 5839SOL     OW29547   4.886   6.088   0.316
 5839SOL    HW129548   4.904   6.069   0.413
 5839SOL    HW229549   4.960   6.050   0.261
 5840SOL     OW29550   0.324   6.567   4.390
 5840SOL    HW129551   0.399   6.511   4.354
 5840SOL    HW229552   0.270   6.602   4.313
 5841SOL     OW29553   3.600   2.397   1.870
 5841SOL    HW129554   3.609   2.486   1.914
 5841SOL    HW229555   3.607   2.325   1.940
 5842SOL     OW29556   4.624   5.815   1.203
 5842SOL    HW129557   4.699   5.847   1.262
 5842SOL    HW229558   4.600   5.721   1.227
 5843SOL     OW29559   7.400   5.422   0.781
 5843SOL    HW129560   7.404   5.339   0.837
 5843SOL    HW229561   7.329   5.411   0.711
 5844SOL     OW29562   1.616   2.324   5.925
 5844SOL    HW129563   1.616   2.413   5.970
 5844SOL    HW229564   1.544   2.321   5.856
 5845SOL     OW29565   5.137   4.852   0.742
 5845SOL    HW129566   5.043   4.884   0.751
 5845SOL    HW229567   5.187   4.871   0.827
 5846SOL     OW29568   4.026   1.267   0.563
 5846SOL    HW129569   4.064   1.336   0.502
 5846SOL    HW229570   4.087   1.188   0.566
 5847SOL     OW29571   8.885   7.399   5.089
 5847SOL    HW129572   8.829   7.334   5.140
 5847SOL    HW229573   8.831   7.439   5.015
 5848SOL     OW29574   6.356   1.557   1.985
 5848SOL    HW129575   6.365   1.606   2.071
 5848SOL    HW229576   6.433   1.494   1.974
 5849SOL     OW29577   3.410   5.624   6.287
 5849SOL    HW129578   3.425   5.714   6.246
 5849SOL    HW229579   3.315   5.595   6.272
 5850SOL     OW29580   7.468   0.696   6.713
 5850SOL    HW129581   7.553   0.680   6.763
 5850SOL    HW229582   7.488   0.699   6.615
 5851SOL     OW29583   8.720   4.728   6.025
 5851SOL    HW129584   8.800   4.760   5.974
 5851SOL    HW229585   8.750   4.684   6.110
 5852SOL     OW29586   2.717   5.188   0.517
 5852SOL    HW129587   2.621   5.163   0.531
 5852SOL    HW229588   2.771   5.154   0.594
 5853SOL     OW29589   7.203   6.741   0.523
 5853SOL    HW129590   7.146   6.811   0.565
 5853SOL    HW229591   7.247   6.686   0.595
 5854SOL     OW29592   7.882   1.854   0.691
 5854SOL    HW129593   7.909   1.900   0.775
 5854SOL    HW229594   7.963   1.818   0.645
 5855SOL     OW29595   2.659   1.230   5.991
 5855SOL    HW129596   2.602   1.155   6.022
 5855SOL    HW229597   2.755   1.204   5.996
 5856SOL     OW29598   5.101   6.797   0.091
 5856SOL    HW129599   5.142   6.855   0.161
 5856SOL    HW229600   5.060   6.854   0.020
 5857SOL     OW29601   5.837   5.383   6.684
 5857SOL    HW129602   5.741   5.379   6.659
 5857SOL    HW229603   5.847   5.368   6.783
 5858SOL     OW29604   3.286   0.309   6.662
 5858SOL    HW129605   3.340   0.226   6.673
 5858SOL    HW229606   3.204   0.304   6.717
 5859SOL     OW29607   6.933   7.458   6.069
 5859SOL    HW129608   6.957   7.553   6.085
 5859SOL    HW229609   6.846   7.437   6.113
 5860SOL     OW29610   9.253   3.121   1.242
 5860SOL    HW129611   9.181   3.104   1.309
 5860SOL    HW229612   9.343   3.117   1.287
 5861SOL     OW29613   4.899   4.921   0.325
 5861SOL    HW129614   4.951   4.959   0.249
 5861SOL    HW229615   4.802   4.916   0.300
 5862SOL     OW29616   3.667   2.179   5.971
 5862SOL    HW129617   3.672   2.086   5.933
 5862SOL    HW229618   3.760   2.210   5.991
 5863SOL     OW29619   9.170   4.434   6.716
 5863SOL    HW129620   9.248   4.492   6.693
 5863SOL    HW229621   9.166   4.356   6.654
 5864SOL     OW29622   8.086   7.673   5.217
 5864SOL    HW129623   8.055   7.730   5.141
 5864SOL    HW229624   8.166   7.620   5.189
 5865SOL     OW29625   2.242   2.219   6.567
 5865SOL    HW129626   2.216   2.306   6.525
 5865SOL    HW229627   2.164   2.156   6.563
 5866SOL     OW29628   6.098   0.554   6.436
 5866SOL    HW129629   6.198   0.561   6.437
 5866SOL    HW229630   6.072   0.461   6.410
 5867SOL     OW29631   9.046   5.030   6.068
 5867SOL    HW129632   8.983   5.015   6.144
 5867SOL    HW229633   9.054   4.946   6.014
 5868SOL     OW29634   7.462   5.514   4.835
 5868SOL    HW129635   7.516   5.571   4.772
 5868SOL    HW229636   7.365   5.521   4.812
 5869SOL     OW29637   7.445   2.230   0.323
 5869SOL    HW129638   7.359   2.223   0.273
 5869SOL    HW229639   7.496   2.310   0.289
 5870SOL     OW29640   9.166   5.565   0.778
 5870SOL    HW129641   9.166   5.498   0.853
 5870SOL    HW229642   9.183   5.656   0.815
 5871SOL     OW29643   8.243   6.932   0.234
 5871SOL    HW129644   8.152   6.966   0.211
 5871SOL    HW229645   8.251   6.836   0.205
 5872SOL     OW29646   3.967   5.337   0.704
 5872SOL    HW129647   3.878   5.303   0.735
 5872SOL    HW229648   3.994   5.416   0.760
 5873SOL     OW29649   7.487   7.782   5.787
 5873SOL    HW129650   7.466   7.752   5.694
 5873SOL    HW229651   7.495   7.881   5.790
 5874SOL     OW29652   2.040   5.602   0.275
 5874SOL    HW129653   1.999   5.580   0.364
 5874SOL    HW229654   2.071   5.518   0.231
 5875SOL     OW29655   7.231   6.939   0.953
 5875SOL    HW129656   7.243   6.880   1.032
 5875SOL    HW229657   7.222   7.034   0.983
 5876SOL     OW29658   1.950   3.748   5.356
 5876SOL    HW129659   1.967   3.805   5.276
 5876SOL    HW229660   1.909   3.661   5.327
 5877SOL     OW29661   1.945   2.367   6.046
 5877SOL    HW129662   1.887   2.427   6.101
 5877SOL    HW229663   1.889   2.314   5.983
 5878SOL     OW29664   1.169   6.805   6.379
 5878SOL    HW129665   1.247   6.866   6.392
 5878SOL    HW229666   1.201   6.716   6.345
 5879SOL     OW29667   8.147   6.693   5.282
 5879SOL    HW129668   8.203   6.773   5.302
 5879SOL    HW229669   8.101   6.662   5.365
 5880SOL     OW29670   2.841   1.333   0.429
 5880SOL    HW129671   2.901   1.380   0.493
 5880SOL    HW229672   2.847   1.234   0.444
 5881SOL     OW29673   8.276   7.535   5.779
 5881SOL    HW129674   8.373   7.512   5.781
 5881SOL    HW229675   8.222   7.452   5.766
 5882SOL     OW29676   6.814   7.195   1.126
 5882SOL    HW129677   6.846   7.172   1.218
 5882SOL    HW229678   6.806   7.111   1.072
 5883SOL     OW29679   0.287   7.718   0.813
 5883SOL    HW129680   0.281   7.703   0.911
 5883SOL    HW229681   0.318   7.812   0.796
 5884SOL     OW29682   7.630   3.560   1.156
 5884SOL    HW129683   7.649   3.652   1.121
 5884SOL    HW229684   7.680   3.546   1.242
 5885SOL     OW29685   7.760   6.036   1.017
 5885SOL    HW129686   7.761   5.955   1.076
 5885SOL    HW229687   7.688   6.099   1.049
 5886SOL     OW29688   4.512   0.366   5.735
 5886SOL    HW129689   4.576   0.435   5.769
 5886SOL    HW229690   4.529   0.349   5.638
 5887SOL     OW29691   7.805   0.062   5.742
 5887SOL    HW129692   7.708   0.078   5.729
 5887SOL    HW229693   7.857   0.140   5.708
 5888SOL     OW29694   5.665   4.711   0.183
 5888SOL    HW129695   5.706   4.795   0.218
 5888SOL    HW229696   5.732   4.636   0.187
 5889SOL     OW29697   8.079   5.188   0.746
 5889SOL    HW129698   8.002   5.133   0.714
 5889SOL    HW229699   8.160   5.168   0.691
 5890SOL     OW29700   1.530   5.774   5.704
 5890SOL    HW129701   1.582   5.761   5.620
 5890SOL    HW229702   1.516   5.686   5.749
 5891SOL     OW29703   4.582   7.590   5.126
 5891SOL    HW129704   4.651   7.577   5.055
 5891SOL    HW229705   4.497   7.621   5.084
 5892SOL     OW29706   2.278   5.527   5.681
 5892SOL    HW129707   2.298   5.620   5.713
 5892SOL    HW229708   2.324   5.460   5.740
 5893SOL     OW29709   2.164   4.781   5.659
 5893SOL    HW129710   2.155   4.765   5.757
 5893SOL    HW229711   2.245   4.733   5.625
 5894SOL     OW29712   2.483   3.622   5.708
 5894SOL    HW129713   2.567   3.569   5.721
 5894SOL    HW229714   2.507   3.717   5.688
 5895SOL     OW29715   5.418   6.938   0.645
 5895SOL    HW129716   5.368   6.962   0.562
 5895SOL    HW229717   5.421   7.016   0.706
 5896SOL     OW29718   2.906   0.135   0.539
 5896SOL    HW129719   2.813   0.142   0.573
 5896SOL    HW229720   2.906   0.086   0.451
 5897SOL     OW29721   5.649   8.287   2.125
 5897SOL    HW129722   5.644   8.189   2.105
 5897SOL    HW229723   5.745   8.314   2.132
 5898SOL     OW29724   6.478   8.035   5.837
 5898SOL    HW129725   6.422   7.955   5.858
 5898SOL    HW229726   6.435   8.088   5.764
 5899SOL     OW29727   8.871   2.779   0.253
 5899SOL    HW129728   8.950   2.784   0.191
 5899SOL    HW229729   8.793   2.825   0.211
 5900SOL     OW29730   3.198   8.424   6.355
 5900SOL    HW129731   3.205   8.361   6.278
 5900SOL    HW229732   3.117   8.482   6.344
 5901SOL     OW29733   2.482   2.416   1.092
 5901SOL    HW129734   2.430   2.478   1.033
 5901SOL    HW229735   2.483   2.325   1.052
 5902SOL     OW29736   1.608   7.727   0.754
 5902SOL    HW129737   1.653   7.703   0.840
 5902SOL    HW229738   1.509   7.713   0.763
 5903SOL     OW29739   1.982   4.686   5.449
 5903SOL    HW129740   1.997   4.683   5.351
 5903SOL    HW229741   2.065   4.720   5.495
 5904SOL     OW29742   2.709   1.953   0.089
 5904SOL    HW129743   2.744   1.879   0.147
 5904SOL    HW229744   2.732   1.934  -0.007
 5905SOL     OW29745   8.801   6.280   0.385
 5905SOL    HW129746   8.799   6.181   0.398
 5905SOL    HW229747   8.806   6.326   0.474
 5906SOL     OW29748   5.676   1.175   1.062
 5906SOL    HW129749   5.703   1.210   1.152
 5906SOL    HW229750   5.718   1.086   1.047
 5907SOL     OW29751   6.264   2.258   0.471
 5907SOL    HW129752   6.283   2.254   0.373
 5907SOL    HW229753   6.180   2.207   0.492
 5908SOL     OW29754   1.936   6.274   1.370
 5908SOL    HW129755   2.004   6.201   1.378
 5908SOL    HW229756   1.863   6.244   1.308
 5909SOL     OW29757   3.288   6.762   5.080
 5909SOL    HW129758   3.226   6.834   5.112
 5909SOL    HW229759   3.380   6.799   5.072
 5910SOL     OW29760   7.169   5.451   5.061
 5910SOL    HW129761   7.187   5.420   4.968
 5910SOL    HW229762   7.079   5.495   5.065
 5911SOL     OW29763   6.156   3.714   6.115
 5911SOL    HW129764   6.251   3.683   6.125
 5911SOL    HW229765   6.132   3.716   6.018
 5912SOL     OW29766   6.557   5.807   0.284
 5912SOL    HW129767   6.620   5.730   0.282
 5912SOL    HW229768   6.592   5.877   0.347
 5913SOL     OW29769   0.732   5.525   4.904
 5913SOL    HW129770   0.784   5.553   4.986
 5913SOL    HW229771   0.663   5.458   4.930
 5914SOL     OW29772   4.131   5.738   5.900
 5914SOL    HW129773   4.137   5.833   5.870
 5914SOL    HW229774   4.073   5.686   5.836
 5915SOL     OW29775   0.170   2.105   5.224
 5915SOL    HW129776   0.217   2.118   5.312
 5915SOL    HW229777   0.236   2.111   5.150
 5916SOL     OW29778   9.157   6.623   6.090
 5916SOL    HW129779   9.156   6.544   6.152
 5916SOL    HW229780   9.091   6.691   6.122
 5917SOL     OW29781   1.253   6.102   0.340
 5917SOL    HW129782   1.157   6.105   0.311
 5917SOL    HW229783   1.312   6.098   0.259
 5918SOL     OW29784   1.091   7.071   6.124
 5918SOL    HW129785   1.121   7.166   6.120
 5918SOL    HW229786   1.170   7.010   6.120
 5919SOL     OW29787   7.875   2.005   6.225
 5919SOL    HW129788   7.841   2.082   6.279
 5919SOL    HW229789   7.954   2.036   6.171
 5920SOL     OW29790   6.213   7.480   0.697
 5920SOL    HW129791   6.281   7.451   0.630
 5920SOL    HW229792   6.149   7.544   0.654
 5921SOL     OW29793   7.482   6.361   0.642
 5921SOL    HW129794   7.455   6.319   0.556
 5921SOL    HW229795   7.515   6.290   0.705
 5922SOL     OW29796   4.327   7.889   1.332
 5922SOL    HW129797   4.400   7.896   1.400
 5922SOL    HW229798   4.362   7.840   1.251
 5923SOL     OW29799   9.127   1.511   0.911
 5923SOL    HW129800   9.039   1.555   0.924
 5923SOL    HW229801   9.124   1.418   0.946
 5924SOL     OW29802   1.591   0.995   0.098
 5924SOL    HW129803   1.667   1.057   0.117
 5924SOL    HW229804   1.528   1.039   0.034
 5925SOL     OW29805   9.361   6.659   5.237
 5925SOL    HW129806   9.385   6.752   5.264
 5925SOL    HW229807   9.426   6.595   5.279
 5926SOL     OW29808   2.531   6.432   0.710
 5926SOL    HW129809   2.493   6.358   0.655
 5926SOL    HW229810   2.628   6.443   0.688
 5927SOL     OW29811   2.598   7.488   0.381
 5927SOL    HW129812   2.540   7.565   0.356
 5927SOL    HW229813   2.639   7.504   0.470
 5928SOL     OW29814   4.918   2.912   0.186
 5928SOL    HW129815   4.908   2.815   0.205
 5928SOL    HW229816   4.861   2.937   0.107
 5929SOL     OW29817   1.284   6.901   0.907
 5929SOL    HW129818   1.296   6.803   0.893
 5929SOL    HW229819   1.285   6.921   1.005
 5930SOL     OW29820   3.257   8.203   6.636
 5930SOL    HW129821   3.193   8.189   6.560
 5930SOL    HW229822   3.274   8.301   6.648
 5931SOL     OW29823   7.491   3.925   1.136
 5931SOL    HW129824   7.538   4.004   1.175
 5931SOL    HW229825   7.394   3.927   1.163
 5932SOL     OW29826   2.865   6.677   1.152
 5932SOL    HW129827   2.852   6.656   1.055
 5932SOL    HW229828   2.887   6.774   1.163
 5933SOL     OW29829   4.859   3.892   6.164
 5933SOL    HW129830   4.787   3.831   6.132
 5933SOL    HW229831   4.933   3.895   6.097
 5934SOL     OW29832   7.860   5.057   0.578
 5934SOL    HW129833   7.831   5.046   0.673
 5934SOL    HW229834   7.784   5.034   0.518
 5935SOL     OW29835   3.087   1.857   0.444
 5935SOL    HW129836   3.172   1.870   0.495
 5935SOL    HW229837   3.101   1.885   0.349
 5936SOL     OW29838   0.863   1.500   0.297
 5936SOL    HW129839   0.853   1.557   0.216
 5936SOL    HW229840   0.842   1.554   0.378
 5937SOL     OW29841   3.687   0.383   0.807
 5937SOL    HW129842   3.722   0.471   0.773
 5937SOL    HW229843   3.588   0.380   0.795
 5938SOL     OW29844   3.022   7.356   6.540
 5938SOL    HW129845   3.085   7.396   6.474
 5938SOL    HW229846   3.034   7.399   6.629
 5939SOL     OW29847   3.253   2.760   1.059
 5939SOL    HW129848   3.169   2.775   1.112
 5939SOL    HW229849   3.254   2.667   1.024
 5940SOL     OW29850   1.018   3.677   0.715
 5940SOL    HW129851   0.960   3.602   0.685
 5940SOL    HW229852   1.053   3.658   0.807
 5941SOL     OW29853   5.741   1.916   0.410
 5941SOL    HW129854   5.684   1.872   0.341
 5941SOL    HW229855   5.685   1.943   0.488
 5942SOL     OW29856   8.207   3.017   0.503
 5942SOL    HW129857   8.254   3.093   0.459
 5942SOL    HW229858   8.239   3.008   0.597
 5943SOL     OW29859   9.403   1.619   0.000
 5943SOL    HW129860   9.393   1.535   0.054
 5943SOL    HW229861   9.480   1.610  -0.062
 5944SOL     OW29862   5.317   0.214   5.708
 5944SOL    HW129863   5.276   0.296   5.749
 5944SOL    HW229864   5.261   0.134   5.731
 5945SOL     OW29865   3.918   3.512   6.629
 5945SOL    HW129866   3.952   3.445   6.695
 5945SOL    HW229867   3.834   3.478   6.587
 5946SOL     OW29868   5.598   5.588   0.430
 5946SOL    HW129869   5.502   5.560   0.431
 5946SOL    HW229870   5.641   5.562   0.517
 5947SOL     OW29871   5.905   5.592   6.354
 5947SOL    HW129872   5.993   5.545   6.360
 5947SOL    HW229873   5.834   5.536   6.396
 5948SOL     OW29874   5.082   6.428   1.206
 5948SOL    HW129875   5.030   6.343   1.209
 5948SOL    HW229876   5.023   6.502   1.175
 5949SOL     OW29877   4.378   5.124   6.535
 5949SOL    HW129878   4.328   5.209   6.521
 5949SOL    HW229879   4.314   5.051   6.560
 5950SOL     OW29880   2.258   4.211   0.816
 5950SOL    HW129881   2.277   4.246   0.724
 5950SOL    HW229882   2.255   4.288   0.880
 5951SOL     OW29883   4.107   0.737   6.289
 5951SOL    HW129884   4.057   0.819   6.315
 5951SOL    HW229885   4.062   0.656   6.328
 5952SOL     OW29886   2.024   6.856   0.599
 5952SOL    HW129887   1.934   6.869   0.641
 5952SOL    HW229888   2.087   6.816   0.665
 5953SOL     OW29889   8.279   6.380   0.028
 5953SOL    HW129890   8.283   6.369   0.127
 5953SOL    HW229891   8.187   6.407   0.000
 5954SOL     OW29892   3.486   3.103   0.082
 5954SOL    HW129893   3.508   3.065   0.172
 5954SOL    HW229894   3.548   3.179   0.062
 5955SOL     OW29895   1.332   6.339   0.117
 5955SOL    HW129896   1.393   6.264   0.142
 5955SOL    HW229897   1.301   6.386   0.199
 5956SOL     OW29898   1.218   7.175   5.329
 5956SOL    HW129899   1.160   7.185   5.410
 5956SOL    HW229900   1.175   7.113   5.265
 5957SOL     OW29901   3.886   5.148   5.775
 5957SOL    HW129902   3.833   5.211   5.718
 5957SOL    HW229903   3.982   5.176   5.775
 5958SOL     OW29904   0.354   6.816   4.185
 5958SOL    HW129905   0.334   6.893   4.125
 5958SOL    HW229906   0.321   6.837   4.277
 5959SOL     OW29907   1.221   3.320   5.688
 5959SOL    HW129908   1.123   3.333   5.703
 5959SOL    HW229909   1.270   3.403   5.715
 5960SOL     OW29910   4.362   1.755   6.245
 5960SOL    HW129911   4.418   1.720   6.320
 5960SOL    HW229912   4.421   1.777   6.168
 5961SOL     OW29913   7.097   6.053   1.858
 5961SOL    HW129914   7.011   6.028   1.815
 5961SOL    HW229915   7.140   6.128   1.807
 5962SOL     OW29916   4.471   6.775   0.384
 5962SOL    HW129917   4.455   6.827   0.467
 5962SOL    HW229918   4.433   6.824   0.306
 5963SOL     OW29919   3.488   3.794   6.702
 5963SOL    HW129920   3.520   3.778   6.795
 5963SOL    HW229921   3.526   3.880   6.668
 5964SOL     OW29922   2.217   8.249   0.708
 5964SOL    HW129923   2.316   8.246   0.694
 5964SOL    HW229924   2.193   8.207   0.795
 5965SOL     OW29925   7.187   5.328   0.636
 5965SOL    HW129926   7.103   5.308   0.586
 5965SOL    HW229927   7.171   5.405   0.699
 5966SOL     OW29928   0.429   8.021   6.391
 5966SOL    HW129929   0.526   8.012   6.412
 5966SOL    HW229930   0.389   7.930   6.378
 5967SOL     OW29931   5.362   4.431   6.471
 5967SOL    HW129932   5.289   4.469   6.413
 5967SOL    HW229933   5.418   4.368   6.416
 5968SOL     OW29934   0.091   0.313   6.301
 5968SOL    HW129935   0.054   0.390   6.352
 5968SOL    HW229936   0.109   0.341   6.207
 5969SOL     OW29937   2.920   2.458   1.442
 5969SOL    HW129938   2.919   2.387   1.512
 5969SOL    HW229939   2.874   2.540   1.477
 5970SOL     OW29940   4.998   4.244   1.468
 5970SOL    HW129941   4.939   4.163   1.473
 5970SOL    HW229942   5.062   4.233   1.392
 5971SOL     OW29943   2.079   0.135   0.811
 5971SOL    HW129944   2.054   0.217   0.862
 5971SOL    HW229945   2.074   0.055   0.872
 5972SOL     OW29946   3.520   5.602   5.885
 5972SOL    HW129947   3.609   5.557   5.893
 5972SOL    HW229948   3.532   5.701   5.892
 5973SOL     OW29949   7.436   4.133   1.629
 5973SOL    HW129950   7.508   4.086   1.679
 5973SOL    HW229951   7.443   4.232   1.646
 5974SOL     OW29952   6.667   4.107   6.267
 5974SOL    HW129953   6.714   4.064   6.345
 5974SOL    HW229954   6.672   4.046   6.188
 5975SOL     OW29955   3.812   7.359   5.971
 5975SOL    HW129956   3.872   7.436   5.992
 5975SOL    HW229957   3.801   7.303   6.053
 5976SOL     OW29958   4.719   8.300   0.860
 5976SOL    HW129959   4.634   8.305   0.912
 5976SOL    HW229960   4.796   8.325   0.919
 5977SOL     OW29961   3.962   0.811   5.840
 5977SOL    HW129962   4.006   0.883   5.786
 5977SOL    HW229963   3.910   0.852   5.915
 5978SOL     OW29964   3.986   6.220   5.614
 5978SOL    HW129965   3.942   6.262   5.534
 5978SOL    HW229966   3.998   6.122   5.597
 5979SOL     OW29967   2.775   4.450   0.790
 5979SOL    HW129968   2.873   4.470   0.789
 5979SOL    HW229969   2.750   4.400   0.707
 5980SOL     OW29970   5.031   3.503   6.121
 5980SOL    HW129971   5.041   3.599   6.147
 5980SOL    HW229972   4.985   3.497   6.032
 5981SOL     OW29973   7.986   0.664   0.639
 5981SOL    HW129974   8.053   0.737   0.632
 5981SOL    HW229975   7.922   0.685   0.713
 5982SOL     OW29976   3.113   2.660   0.406
 5982SOL    HW129977   3.121   2.629   0.311
 5982SOL    HW229978   3.200   2.702   0.434
 5983SOL     OW29979   2.650   2.561   0.753
 5983SOL    HW129980   2.684   2.596   0.665
 5983SOL    HW229981   2.612   2.637   0.806
 5984SOL     OW29982   1.410   4.984   6.458
 5984SOL    HW129983   1.358   5.069   6.452
 5984SOL    HW229984   1.430   4.950   6.366
 5985SOL     OW29985   4.532   5.116   5.436
 5985SOL    HW129986   4.529   5.055   5.516
 5985SOL    HW229987   4.539   5.061   5.353
 5986SOL     OW29988   2.562   4.346   5.490
 5986SOL    HW129989   2.555   4.405   5.410
 5986SOL    HW229990   2.562   4.250   5.462
 5987SOL     OW29991   3.361   6.764   1.229
 5987SOL    HW129992   3.289   6.799   1.169
 5987SOL    HW229993   3.324   6.689   1.284
 5988SOL     OW29994   6.069   1.835   1.709
 5988SOL    HW129995   6.040   1.796   1.622
 5988SOL    HW229996   6.150   1.892   1.695
 5989SOL     OW29997   6.149   6.228   1.971
 5989SOL    HW129998   6.088   6.189   2.040
 5989SOL    HW229999   6.233   6.260   2.016
 5990SOL     OW30000   8.630   2.445   6.084
 5990SOL    HW130001   8.569   2.380   6.130
 5990SOL    HW230002   8.576   2.500   6.020
 5991SOL     OW30003   2.032   7.831   0.232
 5991SOL    HW130004   1.961   7.777   0.186
 5991SOL    HW230005   2.121   7.810   0.191
 5992SOL     OW30006   2.610   2.458   5.218
 5992SOL    HW130007   2.584   2.539   5.165
 5992SOL    HW230008   2.563   2.378   5.181
 5993SOL     OW30009   0.406   0.707   5.365
 5993SOL    HW130010   0.492   0.755   5.351
 5993SOL    HW230011   0.330   0.765   5.334
 5994SOL     OW30012   8.154   0.973   0.856
 5994SOL    HW130013   8.101   1.043   0.905
 5994SOL    HW230014   8.243   1.011   0.831
 5995SOL     OW30015   7.776   2.064   1.445
 5995SOL    HW130016   7.749   2.140   1.385
 5995SOL    HW230017   7.843   2.007   1.397
 5996SOL     OW30018   5.141   2.955   0.776
 5996SOL    HW130019   5.237   2.967   0.803
 5996SOL    HW230020   5.091   2.911   0.850
 5997SOL     OW30021   4.617   5.297   1.798
 5997SOL    HW130022   4.655   5.222   1.743
 5997SOL    HW230023   4.627   5.275   1.895
 5998SOL     OW30024   8.149   6.983   5.468
 5998SOL    HW130025   8.096   7.056   5.511
 5998SOL    HW230026   8.124   6.975   5.372
 5999SOL     OW30027   0.269   1.917   6.515
 5999SOL    HW130028   0.294   1.976   6.592
 5999SOL    HW230029   0.312   1.951   6.432
 6000SOL     OW30030   4.826   0.300   6.582
 6000SOL    HW130031   4.873   0.320   6.667
 6000SOL    HW230032   4.747   0.241   6.600
 6001SOL     OW30033   1.280   1.623   6.572
 6001SOL    HW130034   1.349   1.555   6.547
 6001SOL    HW230035   1.302   1.710   6.529
 6002SOL     OW30036   3.944   1.111   1.389
 6002SOL    HW130037   3.913   1.047   1.320
 6002SOL    HW230038   4.042   1.129   1.377
 6003SOL     OW30039   2.731   0.111   6.605
 6003SOL    HW130040   2.715   0.149   6.514
 6003SOL    HW230041   2.659   0.140   6.667
 6004SOL     OW30042   8.580   2.235   1.340
 6004SOL    HW130043   8.612   2.302   1.272
 6004SOL    HW230044   8.602   2.268   1.432
 6005SOL     OW30045   5.012   6.084   5.135
 6005SOL    HW130046   4.975   6.170   5.170
 6005SOL    HW230047   5.091   6.103   5.077
 6006SOL     OW30048   7.470   5.827   6.324
 6006SOL    HW130049   7.501   5.919   6.345
 6006SOL    HW230050   7.423   5.789   6.404
 6007SOL     OW30051   0.605   8.052   5.174
 6007SOL    HW130052   0.640   7.962   5.147
 6007SOL    HW230053   0.644   8.076   5.263
 6008SOL     OW30054   2.467   6.206   6.529
 6008SOL    HW130055   2.492   6.248   6.442
 6008SOL    HW230056   2.487   6.269   6.604
 6009SOL     OW30057   2.281   6.772   5.218
 6009SOL    HW130058   2.302   6.870   5.209
 6009SOL    HW230059   2.259   6.734   5.128
 6010SOL     OW30060   7.197   7.535   6.395
 6010SOL    HW130061   7.114   7.578   6.359
 6010SOL    HW230062   7.277   7.586   6.364
 6011SOL     OW30063   4.641   3.431   6.060
 6011SOL    HW130064   4.716   3.432   5.994
 6011SOL    HW230065   4.570   3.368   6.029
 6012SOL     OW30066   5.809   6.419   5.444
 6012SOL    HW130067   5.885   6.425   5.379
 6012SOL    HW230068   5.765   6.508   5.452
 6013SOL     OW30069   3.519   6.153   4.889
 6013SOL    HW130070   3.541   6.058   4.914
 6013SOL    HW230071   3.601   6.209   4.897
 6014SOL     OW30072   9.486   6.186   4.991
 6014SOL    HW130073   9.547   6.265   4.987
 6014SOL    HW230074   9.394   6.213   4.962
 6015SOL     OW30075   0.586   4.894   0.862
 6015SOL    HW130076   0.659   4.955   0.893
 6015SOL    HW230077   0.621   4.832   0.792
 6016SOL     OW30078   3.619   4.508   1.031
 6016SOL    HW130079   3.530   4.479   0.996
 6016SOL    HW230080   3.677   4.428   1.045
 6017SOL     OW30081   5.173   2.340   0.833
 6017SOL    HW130082   5.161   2.425   0.782
 6017SOL    HW230083   5.100   2.331   0.901
 6018SOL     OW30084   1.295   0.561   0.907
 6018SOL    HW130085   1.319   0.480   0.854
 6018SOL    HW230086   1.219   0.540   0.968
 6019SOL     OW30087   1.655   5.649   4.779
 6019SOL    HW130088   1.603   5.703   4.714
 6019SOL    HW230089   1.600   5.571   4.810
 6020SOL     OW30090   0.471   6.925   6.473
 6020SOL    HW130091   0.422   6.870   6.540
 6020SOL    HW230092   0.412   7.000   6.442
 6021SOL     OW30093   5.206   0.020   6.150
 6021SOL    HW130094   5.196  -0.065   6.099
 6021SOL    HW230095   5.120   0.070   6.150
 6022SOL     OW30096   2.338   0.538   0.477
 6022SOL    HW130097   2.332   0.548   0.577
 6022SOL    HW230098   2.328   0.441   0.453
 6023SOL     OW30099   4.125   3.065   0.397
 6023SOL    HW130100   4.178   3.116   0.330
 6023SOL    HW230101   4.187   3.012   0.455
 6024SOL     OW30102   2.964   6.550   0.547
 6024SOL    HW130103   2.910   6.487   0.603
 6024SOL    HW230104   3.061   6.535   0.564
 6025SOL     OW30105   2.673   1.556   0.523
 6025SOL    HW130106   2.763   1.593   0.548
 6025SOL    HW230107   2.685   1.477   0.463
 6026SOL     OW30108   1.359   0.655   4.700
 6026SOL    HW130109   1.311   0.569   4.717
 6026SOL    HW230110   1.310   0.706   4.629
 6027SOL     OW30111   6.466   4.346   0.187
 6027SOL    HW130112   6.441   4.292   0.107
 6027SOL    HW230113   6.445   4.294   0.270
 6028SOL     OW30114   3.698   2.574   5.196
 6028SOL    HW130115   3.734   2.667   5.184
 6028SOL    HW230116   3.699   2.527   5.108
 6029SOL     OW30117   5.306   6.182   6.325
 6029SOL    HW130118   5.404   6.181   6.345
 6029SOL    HW230119   5.257   6.129   6.394
 6030SOL     OW30120   4.020   7.506   0.408
 6030SOL    HW130121   4.095   7.565   0.437
 6030SOL    HW230122   4.057   7.425   0.363
 6031SOL     OW30123   6.852   2.343   0.202
 6031SOL    HW130124   6.775   2.370   0.261
 6031SOL    HW230125   6.938   2.359   0.250
 6032SOL     OW30126   3.411   0.632   5.546
 6032SOL    HW130127   3.390   0.720   5.588
 6032SOL    HW230128   3.478   0.584   5.602
 6033SOL     OW30129   3.351   7.749   6.564
 6033SOL    HW130130   3.285   7.762   6.638
 6033SOL    HW230131   3.397   7.661   6.577
 6034SOL     OW30132   3.793   1.142   5.831
 6034SOL    HW130133   3.830   1.088   5.907
 6034SOL    HW230134   3.693   1.130   5.827
 6035SOL     OW30135   1.154   2.510   1.221
 6035SOL    HW130136   1.088   2.572   1.180
 6035SOL    HW230137   1.128   2.491   1.316
 6036SOL     OW30138   1.411   2.448   6.247
 6036SOL    HW130139   1.392   2.534   6.295
 6036SOL    HW230140   1.343   2.380   6.274
 6037SOL     OW30141   2.733   2.978   6.260
 6037SOL    HW130142   2.724   3.073   6.289
 6037SOL    HW230143   2.649   2.928   6.284
 6038SOL     OW30144   8.483   0.452   0.088
 6038SOL    HW130145   8.397   0.402   0.104
 6038SOL    HW230146   8.504   0.450  -0.010
 6039SOL     OW30147   6.354   5.212   5.551
 6039SOL    HW130148   6.299   5.145   5.501
 6039SOL    HW230149   6.402   5.271   5.487
 6040SOL     OW30150   5.708   0.113   6.279
 6040SOL    HW130151   5.650   0.158   6.348
 6040SOL    HW230152   5.800   0.102   6.316
 6041SOL     OW30153   2.065   3.969   5.887
 6041SOL    HW130154   2.133   3.940   5.820
 6041SOL    HW230155   2.019   3.888   5.924
 6042SOL     OW30156   1.409   7.230   5.515
 6042SOL    HW130157   1.402   7.324   5.549
 6042SOL    HW230158   1.363   7.223   5.426
 6043SOL     OW30159   2.417   0.910   5.727
 6043SOL    HW130160   2.409   0.976   5.652
 6043SOL    HW230161   2.488   0.941   5.790
 6044SOL     OW30162   5.646   1.204   1.378
 6044SOL    HW130163   5.588   1.276   1.416
 6044SOL    HW230164   5.595   1.118   1.378
 6045SOL     OW30165   5.913   5.082   1.706
 6045SOL    HW130166   5.959   5.169   1.690
 6045SOL    HW230167   5.908   5.065   1.805
 6046SOL     OW30168   8.087   8.254   5.515
 6046SOL    HW130169   8.186   8.267   5.516
 6046SOL    HW230170   8.048   8.298   5.434
 6047SOL     OW30171   6.891   2.449   1.134
 6047SOL    HW130172   6.919   2.427   1.041
 6047SOL    HW230173   6.806   2.401   1.156
 6048SOL     OW30174   6.656   7.836   0.422
 6048SOL    HW130175   6.566   7.879   0.432
 6048SOL    HW230176   6.724   7.906   0.405
 6049SOL     OW30177   2.342   2.534   6.107
 6049SOL    HW130178   2.288   2.473   6.164
 6049SOL    HW230179   2.429   2.555   6.154
 6050SOL     OW30180   8.673   6.757   4.578
 6050SOL    HW130181   8.727   6.788   4.499
 6050SOL    HW230182   8.643   6.663   4.564
 6051SOL     OW30183   8.364   7.663   6.149
 6051SOL    HW130184   8.366   7.587   6.084
 6051SOL    HW230185   8.315   7.635   6.232
 6052SOL     OW30186   6.898   1.239   5.889
 6052SOL    HW130187   6.979   1.266   5.836
 6052SOL    HW230188   6.831   1.197   5.827
 6053SOL     OW30189   1.111   0.942   0.397
 6053SOL    HW130190   1.070   1.018   0.346
 6053SOL    HW230191   1.196   0.914   0.352
 6054SOL     OW30192   6.902   4.322   5.268
 6054SOL    HW130193   6.908   4.339   5.169
 6054SOL    HW230194   6.879   4.227   5.284
 6055SOL     OW30195   9.287   4.141   6.259
 6055SOL    HW130196   9.211   4.195   6.296
 6055SOL    HW230197   9.273   4.126   6.161
 6056SOL     OW30198   7.789   5.490   6.701
 6056SOL    HW130199   7.799   5.540   6.615
 6056SOL    HW230200   7.879   5.475   6.741
 6057SOL     OW30201   2.347   4.953   4.957
 6057SOL    HW130202   2.441   4.933   4.928
 6057SOL    HW230203   2.284   4.894   4.906
 6058SOL     OW30204   9.225   6.292   4.912
 6058SOL    HW130205   9.273   6.318   4.828
 6058SOL    HW230206   9.129   6.272   4.891
 6059SOL     OW30207   0.896   4.908   5.105
 6059SOL    HW130208   0.981   4.863   5.130
 6059SOL    HW230209   0.862   4.870   5.019
 6060SOL     OW30210   4.497   0.203   1.936
 6060SOL    HW130211   4.447   0.283   1.904
 6060SOL    HW230212   4.569   0.232   1.999
 6061SOL     OW30213   4.951   6.488   5.284
 6061SOL    HW130214   5.035   6.440   5.309
 6061SOL    HW230215   4.893   6.427   5.229
 6062SOL     OW30216   0.560   4.614   1.201
 6062SOL    HW130217   0.591   4.549   1.271
 6062SOL    HW230218   0.593   4.705   1.224
 6063SOL     OW30219   3.890   7.458   5.119
 6063SOL    HW130220   3.898   7.495   5.027
 6063SOL    HW230221   3.907   7.360   5.117
 6064SOL     OW30222   2.117   4.655   6.037
 6064SOL    HW130223   2.076   4.655   6.128
 6064SOL    HW230224   2.146   4.748   6.013
 6065SOL     OW30225   7.905   1.807   1.425
 6065SOL    HW130226   7.889   1.726   1.483
 6065SOL    HW230227   7.977   1.863   1.465
 6066SOL     OW30228   7.756   1.858   6.015
 6066SOL    HW130229   7.763   1.929   6.085
 6066SOL    HW230230   7.754   1.768   6.060
 6067SOL     OW30231   6.610   7.313   0.094
 6067SOL    HW130232   6.651   7.222   0.088
 6067SOL    HW230233   6.549   7.327   0.016
 6068SOL     OW30234   5.982   1.841   6.567
 6068SOL    HW130235   6.063   1.881   6.611
 6068SOL    HW230236   5.977   1.872   6.472
 6069SOL     OW30237   5.633   5.985   0.883
 6069SOL    HW130238   5.601   6.077   0.862
 6069SOL    HW230239   5.725   5.989   0.922
 6070SOL     OW30240   3.154   4.306   0.177
 6070SOL    HW130241   3.217   4.381   0.158
 6070SOL    HW230242   3.073   4.315   0.119
 6071SOL     OW30243   6.985   2.102   6.192
 6071SOL    HW130244   6.982   2.038   6.269
 6071SOL    HW230245   7.009   2.053   6.108
 6072SOL     OW30246   0.893   3.210   6.331
 6072SOL    HW130247   0.906   3.112   6.344
 6072SOL    HW230248   0.822   3.243   6.395
 6073SOL     OW30249   5.693   7.170   5.309
 6073SOL    HW130250   5.690   7.249   5.247
 6073SOL    HW230251   5.789   7.147   5.327
 6074SOL     OW30252   1.459   4.847   0.251
 6074SOL    HW130253   1.439   4.833   0.154
 6074SOL    HW230254   1.541   4.903   0.260
 6075SOL     OW30255   4.059   7.051   1.197
 6075SOL    HW130256   4.002   6.985   1.149
 6075SOL    HW230257   4.072   7.132   1.140
 6076SOL     OW30258   4.132   1.814   5.513
 6076SOL    HW130259   4.201   1.752   5.475
 6076SOL    HW230260   4.059   1.827   5.446
 6077SOL     OW30261   4.146   7.197   6.700
 6077SOL    HW130262   4.232   7.149   6.683
 6077SOL    HW230263   4.111   7.234   6.614
 6078SOL     OW30264   2.296   0.206   1.828
 6078SOL    HW130265   2.264   0.261   1.905
 6078SOL    HW230266   2.328   0.118   1.861
 6079SOL     OW30267   0.176   5.941   0.119
 6079SOL    HW130268   0.131   5.857   0.089
 6079SOL    HW230269   0.272   5.923   0.138
 6080SOL     OW30270   1.211   7.382   0.952
 6080SOL    HW130271   1.177   7.342   1.037
 6080SOL    HW230272   1.135   7.392   0.887
 6081SOL     OW30273   6.100   5.304   0.507
 6081SOL    HW130274   6.135   5.314   0.413
 6081SOL    HW230275   6.079   5.394   0.544
 6082SOL     OW30276   7.538   6.991   0.572
 6082SOL    HW130277   7.507   7.026   0.660
 6082SOL    HW230278   7.631   6.956   0.581
 6083SOL     OW30279   7.410   8.316   0.877
 6083SOL    HW130280   7.362   8.343   0.961
 6083SOL    HW230281   7.371   8.365   0.799
 6084SOL     OW30282   1.074   1.810   1.770
 6084SOL    HW130283   1.055   1.845   1.678
 6084SOL    HW230284   1.132   1.875   1.819
 6085SOL     OW30285   5.576   3.831   0.259
 6085SOL    HW130286   5.663   3.784   0.271
 6085SOL    HW230287   5.508   3.767   0.223
 6086SOL     OW30288   1.051   1.977   5.945
 6086SOL    HW130289   1.075   2.066   5.984
 6086SOL    HW230290   1.090   1.969   5.853
 6087SOL     OW30291   4.714   3.185   0.408
 6087SOL    HW130292   4.712   3.159   0.504
 6087SOL    HW230293   4.777   3.261   0.395
 6088SOL     OW30294   6.924   6.275   6.418
 6088SOL    HW130295   6.932   6.295   6.516
 6088SOL    HW230296   6.829   6.255   6.396
 6089SOL     OW30297   7.422   0.356   6.375
 6089SOL    HW130298   7.323   0.354   6.359
 6089SOL    HW230299   7.454   0.264   6.399
 6090SOL     OW30300   2.358   7.034   5.218
 6090SOL    HW130301   2.299   7.109   5.190
 6090SOL    HW230302   2.436   7.027   5.155
 6091SOL     OW30303   5.998   1.263   5.540
 6091SOL    HW130304   5.933   1.204   5.491
 6091SOL    HW230305   6.087   1.217   5.546
 6092SOL     OW30306   3.216   0.532   0.292
 6092SOL    HW130307   3.148   0.462   0.313
 6092SOL    HW230308   3.264   0.507   0.208
 6093SOL     OW30309   5.938   3.055   5.524
 6093SOL    HW130310   5.891   2.967   5.515
 6093SOL    HW230311   5.899   3.120   5.458
 6094SOL     OW30312   8.032   2.628   6.264
 6094SOL    HW130313   8.094   2.638   6.187
 6094SOL    HW230314   8.071   2.674   6.344
 6095SOL     OW30315   0.533   0.876   0.719
 6095SOL    HW130316   0.587   0.936   0.660
 6095SOL    HW230317   0.482   0.811   0.662
 6096SOL     OW30318   6.731   5.601   0.293
 6096SOL    HW130319   6.705   5.521   0.348
 6096SOL    HW230320   6.764   5.571   0.204
 6097SOL     OW30321   6.572   0.163   0.824
 6097SOL    HW130322   6.649   0.157   0.887
 6097SOL    HW230323   6.543   0.071   0.798
 6098SOL     OW30324   1.040   6.396   5.296
 6098SOL    HW130325   1.135   6.423   5.308
 6098SOL    HW230326   1.027   6.304   5.333
 6099SOL     OW30327   1.038   7.459   0.757
 6099SOL    HW130328   0.948   7.416   0.756
 6099SOL    HW230329   1.065   7.482   0.663
 6100SOL     OW30330   5.801   1.781   2.031
 6100SOL    HW130331   5.861   1.706   2.056
 6100SOL    HW230332   5.706   1.750   2.032
 6101SOL     OW30333   2.704   0.180   6.305
 6101SOL    HW130334   2.681   0.117   6.231
 6101SOL    HW230335   2.731   0.268   6.265
 6102SOL     OW30336   0.856   5.191   0.978
 6102SOL    HW130337   0.923   5.182   1.052
 6102SOL    HW230338   0.898   5.162   0.892
 6103SOL     OW30339   8.884   1.593   1.035
 6103SOL    HW130340   8.857   1.689   1.042
 6103SOL    HW230341   8.808   1.534   1.063
 6104SOL     OW30342   2.929   2.857   6.442
 6104SOL    HW130343   2.857   2.893   6.382
 6104SOL    HW230344   2.988   2.795   6.390
 6105SOL     OW30345   9.423   7.788   6.399
 6105SOL    HW130346   9.378   7.818   6.483
 6105SOL    HW230347   9.432   7.866   6.336
 6106SOL     OW30348   0.789   4.550   0.278
 6106SOL    HW130349   0.725   4.548   0.355
 6106SOL    HW230350   0.781   4.465   0.227
 6107SOL     OW30351   5.459   7.900   5.812
 6107SOL    HW130352   5.385   7.937   5.756
 6107SOL    HW230353   5.529   7.971   5.825
 6108SOL     OW30354   3.340   8.293   0.969
 6108SOL    HW130355   3.248   8.299   1.008
 6108SOL    HW230356   3.371   8.384   0.941
 6109SOL     OW30357   0.841   1.411   6.479
 6109SOL    HW130358   0.817   1.502   6.443
 6109SOL    HW230359   0.939   1.395   6.466
 6110SOL     OW30360   1.177   2.471   0.499
 6110SOL    HW130361   1.175   2.570   0.515
 6110SOL    HW230362   1.267   2.435   0.524
 6111SOL     OW30363   3.246   2.188   0.917
 6111SOL    HW130364   3.237   2.257   0.846
 6111SOL    HW230365   3.264   2.232   1.005
 6112SOL     OW30366   2.787   7.508   0.938
 6112SOL    HW130367   2.852   7.466   1.002
 6112SOL    HW230368   2.726   7.569   0.988
 6113SOL     OW30369   0.995   6.077   0.254
 6113SOL    HW130370   0.928   6.119   0.315
 6113SOL    HW230371   0.968   6.090   0.159
 6114SOL     OW30372   1.695   6.459   0.776
 6114SOL    HW130373   1.684   6.508   0.690
 6114SOL    HW230374   1.605   6.439   0.815
 6115SOL     OW30375   1.444   8.388   0.143
 6115SOL    HW130376   1.370   8.387   0.076
 6115SOL    HW230377   1.426   8.319   0.214
 6116SOL     OW30378   6.555   7.992   1.508
 6116SOL    HW130379   6.610   7.910   1.495
 6116SOL    HW230380   6.528   8.001   1.604
 6117SOL     OW30381   2.824   5.536   5.553
 6117SOL    HW130382   2.821   5.511   5.457
 6117SOL    HW230383   2.885   5.473   5.602
 6118SOL     OW30384   9.351   7.557   4.848
 6118SOL    HW130385   9.352   7.641   4.902
 6118SOL    HW230386   9.257   7.522   4.842
 6119SOL     OW30387   8.065   6.572   0.366
 6119SOL    HW130388   8.052   6.495   0.429
 6119SOL    HW230389   8.011   6.556   0.283
 6120SOL     OW30390   1.061   7.974   1.154
 6120SOL    HW130391   1.044   7.995   1.250
 6120SOL    HW230392   1.124   7.896   1.148
 6121SOL     OW30393   3.906   6.382   1.095
 6121SOL    HW130394   3.849   6.312   1.139
 6121SOL    HW230395   3.998   6.345   1.079
 6122SOL     OW30396   6.002   7.734   5.538
 6122SOL    HW130397   5.926   7.672   5.558
 6122SOL    HW230398   6.013   7.742   5.439
 6123SOL     OW30399   2.081   8.073   0.404
 6123SOL    HW130400   2.070   7.983   0.361
 6123SOL    HW230401   2.177   8.100   0.399
 6124SOL     OW30402   0.431   0.657   6.534
 6124SOL    HW130403   0.523   0.696   6.539
 6124SOL    HW230404   0.400   0.633   6.626
 6125SOL     OW30405   4.900   8.181   4.952
 6125SOL    HW130406   4.846   8.265   4.966
 6125SOL    HW230407   4.842   8.101   4.966
 6126SOL     OW30408   5.265   7.245   6.460
 6126SOL    HW130409   5.276   7.155   6.501
 6126SOL    HW230410   5.171   7.256   6.429
 6127SOL     OW30411   4.959   5.531   5.490
 6127SOL    HW130412   4.954   5.462   5.417
 6127SOL    HW230413   4.998   5.615   5.454
 6128SOL     OW30414   7.674   4.916   0.140
 6128SOL    HW130415   7.750   4.856   0.165
 6128SOL    HW230416   7.694   4.962   0.054
 6129SOL     OW30417   7.832   0.610   5.984
 6129SOL    HW130418   7.837   0.511   5.968
 6129SOL    HW230419   7.751   0.647   5.939
 6130SOL     OW30420   4.214   0.425   6.279
 6130SOL    HW130421   4.148   0.355   6.251
 6130SOL    HW230422   4.265   0.457   6.199
 6131SOL     OW30423   2.636   1.077   0.062
 6131SOL    HW130424   2.620   1.126   0.148
 6131SOL    HW230425   2.548   1.046   0.025
 6132SOL     OW30426   0.872   6.466   0.890
 6132SOL    HW130427   0.800   6.495   0.826
 6132SOL    HW230428   0.889   6.538   0.957
 6133SOL     OW30429   0.483   7.493   4.427
 6133SOL    HW130430   0.531   7.581   4.429
 6133SOL    HW230431   0.410   7.497   4.359
 6134SOL     OW30432   6.239   7.006   0.854
 6134SOL    HW130433   6.191   6.920   0.837
 6134SOL    HW230434   6.209   7.074   0.787
 6135SOL     OW30435   6.974   7.225   6.566
 6135SOL    HW130436   6.948   7.321   6.560
 6135SOL    HW230437   6.999   7.203   6.661
 6136SOL     OW30438   5.504   5.336   6.423
 6136SOL    HW130439   5.512   5.361   6.519
 6136SOL    HW230440   5.517   5.237   6.413
 6137SOL     OW30441   5.190   7.486   1.258
 6137SOL    HW130442   5.257   7.487   1.332
 6137SOL    HW230443   5.139   7.400   1.260
 6138SOL     OW30444   7.139   1.638   5.908
 6138SOL    HW130445   7.060   1.631   5.847
 6138SOL    HW230446   7.220   1.658   5.854
 6139SOL     OW30447   1.118   1.752   0.175
 6139SOL    HW130448   1.038   1.723   0.228
 6139SOL    HW230449   1.161   1.831   0.220
 6140SOL     OW30450   5.412   6.650   2.080
 6140SOL    HW130451   5.345   6.718   2.110
 6140SOL    HW230452   5.503   6.678   2.110
 6141SOL     OW30453   6.888   4.223   1.001
 6141SOL    HW130454   6.823   4.237   1.075
 6141SOL    HW230455   6.914   4.311   0.961
 6142SOL     OW30456   5.350   1.393   6.676
 6142SOL    HW130457   5.351   1.338   6.759
 6142SOL    HW230458   5.314   1.484   6.697
 6143SOL     OW30459   5.217   0.254   1.354
 6143SOL    HW130460   5.212   0.345   1.395
 6143SOL    HW230461   5.208   0.185   1.425
 6144SOL     OW30462   8.661   1.552   5.716
 6144SOL    HW130463   8.594   1.512   5.777
 6144SOL    HW230464   8.615   1.590   5.636
 6145SOL     OW30465   1.120   1.839   0.554
 6145SOL    HW130466   1.146   1.834   0.458
 6145SOL    HW230467   1.189   1.793   0.610
 6146SOL     OW30468   3.491   8.387   5.899
 6146SOL    HW130469   3.424   8.426   5.963
 6146SOL    HW230470   3.581   8.386   5.943
 6147SOL     OW30471   6.335   6.573   6.391
 6147SOL    HW130472   6.301   6.497   6.446
 6147SOL    HW230473   6.418   6.544   6.342
 6148SOL     OW30474   9.420   5.845   6.694
 6148SOL    HW130475   9.443   5.943   6.689
 6148SOL    HW230476   9.404   5.820   6.790
 6149SOL     OW30477   4.650   4.368   0.644
 6149SOL    HW130478   4.714   4.360   0.720
 6149SOL    HW230479   4.689   4.428   0.574
 6150SOL     OW30480   7.170   6.688   1.780
 6150SOL    HW130481   7.231   6.626   1.830
 6150SOL    HW230482   7.116   6.741   1.845
 6151SOL     OW30483   4.810   7.694   0.434
 6151SOL    HW130484   4.883   7.673   0.499
 6151SOL    HW230485   4.826   7.784   0.393
 6152SOL     OW30486   2.648   4.730   0.251
 6152SOL    HW130487   2.720   4.662   0.240
 6152SOL    HW230488   2.639   4.783   0.166
 6153SOL     OW30489   2.986   5.367   5.676
 6153SOL    HW130490   3.026   5.275   5.667
 6153SOL    HW230491   3.026   5.413   5.755
 6154SOL     OW30492   2.612   2.819   5.984
 6154SOL    HW130493   2.618   2.739   5.923
 6154SOL    HW230494   2.587   2.789   6.076
 6155SOL     OW30495   1.899   4.860   0.445
 6155SOL    HW130496   1.927   4.827   0.355
 6155SOL    HW230497   1.858   4.951   0.436
 6156SOL     OW30498   8.981   6.840   0.679
 6156SOL    HW130499   8.906   6.895   0.715
 6156SOL    HW230500   9.068   6.881   0.707
 6157SOL     OW30501   0.689   7.336   1.036
 6157SOL    HW130502   0.685   7.398   0.957
 6157SOL    HW230503   0.597   7.302   1.056
 6158SOL     OW30504   5.296   4.013   0.437
 6158SOL    HW130505   5.276   3.979   0.345
 6158SOL    HW230506   5.210   4.033   0.485
 6159SOL     OW30507   5.185   2.538   6.459
 6159SOL    HW130508   5.276   2.519   6.494
 6159SOL    HW230509   5.120   2.470   6.494
 6160SOL     OW30510   2.503   4.750   1.118
 6160SOL    HW130511   2.454   4.724   1.035
 6160SOL    HW230512   2.471   4.839   1.150
 6161SOL     OW30513   2.051   5.124   6.179
 6161SOL    HW130514   2.010   5.215   6.180
 6161SOL    HW230515   2.009   5.069   6.107
 6162SOL     OW30516   2.968   7.031   1.095
 6162SOL    HW130517   3.040   7.099   1.109
 6162SOL    HW230518   2.930   7.005   1.184
 6163SOL     OW30519   4.367   1.286   0.450
 6163SOL    HW130520   4.435   1.316   0.383
 6163SOL    HW230521   4.288   1.348   0.448
 6164SOL     OW30522   9.474   5.546   4.721
 6164SOL    HW130523   9.542   5.580   4.785
 6164SOL    HW230524   9.512   5.544   4.628
 6165SOL     OW30525   5.294   6.985   6.622
 6165SOL    HW130526   5.276   6.907   6.562
 6165SOL    HW230527   5.392   6.990   6.642
 6166SOL     OW30528   6.089   8.143   6.595
 6166SOL    HW130529   6.048   8.053   6.610
 6166SOL    HW230530   6.166   8.155   6.657
 6167SOL     OW30531   9.435   2.240   5.281
 6167SOL    HW130532   9.376   2.229   5.201
 6167SOL    HW230533   9.516   2.181   5.272
 6168SOL     OW30534   3.672   4.199   0.201
 6168SOL    HW130535   3.583   4.155   0.214
 6168SOL    HW230536   3.667   4.261   0.123
 6169SOL     OW30537   2.309   5.674   4.941
 6169SOL    HW130538   2.402   5.665   4.904
 6169SOL    HW230539   2.293   5.770   4.966
 6170SOL     OW30540   2.513   6.300   6.045
 6170SOL    HW130541   2.495   6.340   5.955
 6170SOL    HW230542   2.467   6.212   6.052
 6171SOL     OW30543   2.799   7.274   1.623
 6171SOL    HW130544   2.808   7.330   1.541
 6171SOL    HW230545   2.764   7.331   1.698
 6172SOL     OW30546   3.125   2.349   5.637
 6172SOL    HW130547   3.121   2.259   5.594
 6172SOL    HW230548   3.118   2.420   5.566
 6173SOL     OW30549   4.741   0.359   0.854
 6173SOL    HW130550   4.812   0.415   0.811
 6173SOL    HW230551   4.657   0.365   0.800
 6174SOL     OW30552   9.301   0.865   0.785
 6174SOL    HW130553   9.282   0.859   0.883
 6174SOL    HW230554   9.292   0.774   0.744
 6175SOL     OW30555   4.145   4.638   6.383
 6175SOL    HW130556   4.108   4.701   6.314
 6175SOL    HW230557   4.072   4.612   6.447
 6176SOL     OW30558   3.361   6.080   0.981
 6176SOL    HW130559   3.336   6.124   1.068
 6176SOL    HW230560   3.298   6.107   0.910
 6177SOL     OW30561   3.098   2.965   1.380
 6177SOL    HW130562   3.044   2.946   1.462
 6177SOL    HW230563   3.195   2.950   1.400
 6178SOL     OW30564   7.083   4.699   0.471
 6178SOL    HW130565   6.990   4.727   0.448
 6178SOL    HW230566   7.147   4.739   0.405
 6179SOL     OW30567   7.319   6.537   5.008
 6179SOL    HW130568   7.386   6.570   4.943
 6179SOL    HW230569   7.237   6.507   4.959
 6180SOL     OW30570   2.080   6.172   0.424
 6180SOL    HW130571   2.093   6.135   0.331
 6180SOL    HW230572   2.150   6.241   0.442
 6181SOL     OW30573   6.834   5.259   5.131
 6181SOL    HW130574   6.832   5.341   5.187
 6181SOL    HW230575   6.906   5.268   5.061
 6182SOL     OW30576   4.158   7.642   6.607
 6182SOL    HW130577   4.082   7.577   6.617
 6182SOL    HW230578   4.153   7.711   6.679
 6183SOL     OW30579   1.789   8.454   1.275
 6183SOL    HW130580   1.876   8.405   1.274
 6183SOL    HW230581   1.714   8.387   1.267
 6184SOL     OW30582   0.707   3.295   5.716
 6184SOL    HW130583   0.776   3.290   5.789
 6184SOL    HW230584   0.704   3.207   5.668
 6185SOL     OW30585   0.578   7.375   3.898
 6185SOL    HW130586   0.674   7.377   3.926
 6185SOL    HW230587   0.527   7.445   3.948
 6186SOL     OW30588   5.402   1.891   1.595
 6186SOL    HW130589   5.351   1.975   1.574
 6186SOL    HW230590   5.338   1.814   1.597
 6187SOL     OW30591   3.580   2.494   5.982
 6187SOL    HW130592   3.515   2.474   6.055
 6187SOL    HW230593   3.555   2.442   5.900
 6188SOL     OW30594   2.663   4.404   0.221
 6188SOL    HW130595   2.595   4.354   0.276
 6188SOL    HW230596   2.621   4.430   0.134
 6189SOL     OW30597   6.373   2.664   5.897
 6189SOL    HW130598   6.292   2.605   5.895
 6189SOL    HW230599   6.454   2.612   5.872
 6190SOL     OW30600   5.863   4.910   0.558
 6190SOL    HW130601   5.901   4.995   0.594
 6190SOL    HW230602   5.883   4.835   0.620
 6191SOL     OW30603   5.986   8.440   0.686
 6191SOL    HW130604   5.898   8.485   0.670
 6191SOL    HW230605   5.971   8.345   0.711
 6192SOL     OW30606   5.305   1.540   0.906
 6192SOL    HW130607   5.316   1.441   0.910
 6192SOL    HW230608   5.352   1.576   0.826
 6193SOL     OW30609   1.073   2.494   6.419
 6193SOL    HW130610   1.085   2.504   6.518
 6193SOL    HW230611   1.136   2.424   6.385
 6194SOL     OW30612   1.694   4.644   5.896
 6194SOL    HW130613   1.621   4.663   5.961
 6194SOL    HW230614   1.670   4.682   5.806
 6195SOL     OW30615   3.441   7.484   6.529
 6195SOL    HW130616   3.363   7.456   6.473
 6195SOL    HW230617   3.454   7.418   6.603
 6196SOL     OW30618   1.170   2.859   0.024
 6196SOL    HW130619   1.204   2.917  -0.050
 6196SOL    HW230620   1.244   2.802   0.058
 6197SOL     OW30621   3.042   7.848   5.307
 6197SOL    HW130622   3.133   7.890   5.306
 6197SOL    HW230623   3.002   7.855   5.216
 6198SOL     OW30624   2.907   7.141   0.477
 6198SOL    HW130625   2.932   7.075   0.407
 6198SOL    HW230626   2.816   7.120   0.513
 6199SOL     OW30627   0.252   2.417   5.512
 6199SOL    HW130628   0.203   2.342   5.556
 6199SOL    HW230629   0.347   2.392   5.499
 6200SOL     OW30630   0.260   8.176   0.637
 6200SOL    HW130631   0.240   8.189   0.540
 6200SOL    HW230632   0.243   8.081   0.662
 6201SOL     OW30633   1.815   3.521   5.293
 6201SOL    HW130634   1.837   3.479   5.381
 6201SOL    HW230635   1.831   3.455   5.220
 6202SOL     OW30636   7.726   1.615   0.153
 6202SOL    HW130637   7.639   1.664   0.142
 6202SOL    HW230638   7.798   1.679   0.178
 6203SOL     OW30639   3.027   4.352   5.916
 6203SOL    HW130640   3.052   4.315   6.006
 6203SOL    HW230641   3.043   4.282   5.846
 6204SOL     OW30642   3.126   4.203   6.150
 6204SOL    HW130643   3.063   4.134   6.184
 6204SOL    HW230644   3.149   4.267   6.223
 6205SOL     OW30645   5.179   3.267   1.426
 6205SOL    HW130646   5.152   3.305   1.514
 6205SOL    HW230647   5.265   3.218   1.436
 6206SOL     OW30648   1.830   2.212   6.355
 6206SOL    HW130649   1.785   2.280   6.298
 6206SOL    HW230650   1.833   2.243   6.450
 6207SOL     OW30651   3.904   6.773   1.384
 6207SOL    HW130652   3.908   6.697   1.449
 6207SOL    HW230653   3.916   6.737   1.291
 6208SOL     OW30654   1.142   5.376   0.419
 6208SOL    HW130655   1.168   5.307   0.487
 6208SOL    HW230656   1.092   5.450   0.463
 6209SOL     OW30657   7.527   0.885   0.489
 6209SOL    HW130658   7.593   0.819   0.526
 6209SOL    HW230659   7.548   0.976   0.524
 6210SOL     OW30660   5.255   2.406   1.918
 6210SOL    HW130661   5.349   2.397   1.952
 6210SOL    HW230662   5.192   2.414   1.995
 6211SOL     OW30663   2.470   2.953   5.589
 6211SOL    HW130664   2.461   2.917   5.496
 6211SOL    HW230665   2.558   3.000   5.598
 6212SOL     OW30666   3.264   3.650   0.713
 6212SOL    HW130667   3.250   3.623   0.617
 6212SOL    HW230668   3.361   3.649   0.734
 6213SOL     OW30669   5.141   8.188   6.499
 6213SOL    HW130670   5.234   8.175   6.465
 6213SOL    HW230671   5.115   8.284   6.488
 6214SOL     OW30672   5.194   4.954   5.547
 6214SOL    HW130673   5.236   5.042   5.570
 6214SOL    HW230674   5.101   4.968   5.513
 6215SOL     OW30675   8.205   1.097   6.645
 6215SOL    HW130676   8.265   1.036   6.593
 6215SOL    HW230677   8.237   1.100   6.740
 6216SOL     OW30678   8.278   3.751   0.131
 6216SOL    HW130679   8.237   3.718   0.216
 6216SOL    HW230680   8.298   3.673   0.071
 6217SOL     OW30681   3.321   0.432   0.525
 6217SOL    HW130682   3.308   0.334   0.513
 6217SOL    HW230683   3.277   0.481   0.450
 6218SOL     OW30684   3.246   7.776   6.317
 6218SOL    HW130685   3.281   7.753   6.408
 6218SOL    HW230686   3.195   7.698   6.281
 6219SOL     OW30687   6.468   7.271   5.272
 6219SOL    HW130688   6.372   7.251   5.294
 6219SOL    HW230689   6.499   7.209   5.200
 6220SOL     OW30690   3.586   5.322   1.330
 6220SOL    HW130691   3.621   5.415   1.317
 6220SOL    HW230692   3.563   5.308   1.426
 6221SOL     OW30693   5.310   6.432   5.936
 6221SOL    HW130694   5.229   6.486   5.955
 6221SOL    HW230695   5.286   6.335   5.937
 6222SOL     OW30696   8.972   2.172   5.063
 6222SOL    HW130697   8.877   2.187   5.038
 6222SOL    HW230698   8.990   2.212   5.153
 6223SOL     OW30699   6.349   8.239   6.321
 6223SOL    HW130700   6.276   8.295   6.361
 6223SOL    HW230701   6.437   8.270   6.356
 6224SOL     OW30702   2.234   0.704   5.764
 6224SOL    HW130703   2.227   0.655   5.677
 6224SOL    HW230704   2.314   0.764   5.762
 6225SOL     OW30705   4.142   3.825   6.480
 6225SOL    HW130706   4.172   3.735   6.511
 6225SOL    HW230707   4.170   3.840   6.385
 6226SOL     OW30708   2.449   2.691   5.037
 6226SOL    HW130709   2.548   2.703   5.040
 6226SOL    HW230710   2.411   2.743   4.960
 6227SOL     OW30711   1.913   0.074   6.245
 6227SOL    HW130712   1.947   0.137   6.314
 6227SOL    HW230713   1.981   0.065   6.172
 6228SOL     OW30714   5.371   8.306   2.109
 6228SOL    HW130715   5.470   8.311   2.120
 6228SOL    HW230716   5.330   8.394   2.132
 6229SOL     OW30717   9.013   2.925   0.489
 6229SOL    HW130718   8.979   3.019   0.486
 6229SOL    HW230719   8.956   2.868   0.429
 6230SOL     OW30720   3.404   6.855   5.784
 6230SOL    HW130721   3.386   6.758   5.768
 6230SOL    HW230722   3.324   6.909   5.758
 6231SOL     OW30723   5.243   2.097   0.742
 6231SOL    HW130724   5.223   2.183   0.789
 6231SOL    HW230725   5.249   2.023   0.810
 6232SOL     OW30726   6.616   1.862   1.595
 6232SOL    HW130727   6.602   1.864   1.693
 6232SOL    HW230728   6.539   1.816   1.551
 6233SOL     OW30729   6.345   3.486   6.425
 6233SOL    HW130730   6.374   3.581   6.417
 6233SOL    HW230731   6.425   3.427   6.436
 6234SOL     OW30732   2.122   6.646   6.457
 6234SOL    HW130733   2.067   6.708   6.401
 6234SOL    HW230734   2.062   6.579   6.501
 6235SOL     OW30735   4.020   0.525   0.248
 6235SOL    HW130736   4.115   0.548   0.229
 6235SOL    HW230737   4.004   0.429   0.225
 6236SOL     OW30738   6.832   7.203   1.713
 6236SOL    HW130739   6.792   7.113   1.698
 6236SOL    HW230740   6.908   7.196   1.779
 6237SOL     OW30741   8.192   4.378   5.657
 6237SOL    HW130742   8.134   4.297   5.646
 6237SOL    HW230743   8.279   4.351   5.697
 6238SOL     OW30744   1.248   7.982   6.257
 6238SOL    HW130745   1.281   7.996   6.164
 6238SOL    HW230746   1.303   7.911   6.301
 6239SOL     OW30747   6.007   7.609   6.646
 6239SOL    HW130748   5.980   7.554   6.725
 6239SOL    HW230749   5.990   7.556   6.562
 6240SOL     OW30750   5.205   0.989   6.426
 6240SOL    HW130751   5.303   1.009   6.431
 6240SOL    HW230752   5.169   0.978   6.519
 6241SOL     OW30753   2.682   5.021   6.401
 6241SOL    HW130754   2.715   4.988   6.490
 6241SOL    HW230755   2.649   5.115   6.410
 6242SOL     OW30756   6.320   3.912   1.056
 6242SOL    HW130757   6.362   3.992   1.015
 6242SOL    HW230758   6.239   3.886   1.004
 6243SOL     OW30759   4.284   3.208   0.737
 6243SOL    HW130760   4.257   3.243   0.827
 6243SOL    HW230761   4.217   3.237   0.669
 6244SOL     OW30762   6.595   0.602   1.330
 6244SOL    HW130763   6.678   0.547   1.331
 6244SOL    HW230764   6.551   0.600   1.419
 6245SOL     OW30765   5.962   4.480   1.320
 6245SOL    HW130766   6.012   4.527   1.393
 6245SOL    HW230767   5.983   4.382   1.324
 6246SOL     OW30768   3.190   2.576   5.812
 6246SOL    HW130769   3.138   2.493   5.791
 6246SOL    HW230770   3.176   2.643   5.739
 6247SOL     OW30771   1.304   3.233   6.485
 6247SOL    HW130772   1.331   3.171   6.411
 6247SOL    HW230773   1.224   3.197   6.532
 6248SOL     OW30774   1.680   4.629   0.157
 6248SOL    HW130775   1.725   4.699   0.100
 6248SOL    HW230776   1.621   4.674   0.224
 6249SOL     OW30777   0.383   5.839   0.790
 6249SOL    HW130778   0.417   5.851   0.697
 6249SOL    HW230779   0.459   5.814   0.850
 6250SOL     OW30780   8.180   1.153   0.485
 6250SOL    HW130781   8.092   1.187   0.451
 6250SOL    HW230782   8.227   1.226   0.534
 6251SOL     OW30783   4.448   1.613   0.248
 6251SOL    HW130784   4.377   1.682   0.257
 6251SOL    HW230785   4.535   1.658   0.224
 6252SOL     OW30786   8.471   3.301   5.735
 6252SOL    HW130787   8.405   3.233   5.702
 6252SOL    HW230788   8.502   3.276   5.826
 6253SOL     OW30789   2.277   5.049   0.254
 6253SOL    HW130790   2.210   5.053   0.180
 6253SOL    HW230791   2.249   4.979   0.320
 6254SOL     OW30792   0.579   0.884   5.104
 6254SOL    HW130793   0.568   0.966   5.049
 6254SOL    HW230794   0.520   0.811   5.067
 6255SOL     OW30795   1.751   2.677   5.190
 6255SOL    HW130796   1.753   2.593   5.137
 6255SOL    HW230797   1.806   2.747   5.144
 6256SOL     OW30798   9.066   7.160   6.178
 6256SOL    HW130799   9.087   7.126   6.086
 6256SOL    HW230800   8.975   7.201   6.178
 6257SOL     OW30801   6.779   4.284   0.178
 6257SOL    HW130802   6.760   4.188   0.200
 6257SOL    HW230803   6.698   4.325   0.135
 6258SOL     OW30804   7.348   5.859   6.059
 6258SOL    HW130805   7.273   5.920   6.085
 6258SOL    HW230806   7.393   5.824   6.141
 6259SOL     OW30807   0.651   2.562   6.593
 6259SOL    HW130808   0.561   2.583   6.556
 6259SOL    HW230809   0.660   2.601   6.685
 6260SOL     OW30810   8.247   8.039   6.592
 6260SOL    HW130811   8.188   8.085   6.525
 6260SOL    HW230812   8.330   8.006   6.546
 6261SOL     OW30813   8.171   3.584   5.965
 6261SOL    HW130814   8.178   3.516   5.893
 6261SOL    HW230815   8.128   3.667   5.929
 6262SOL     OW30816   2.186   3.932   0.799
 6262SOL    HW130817   2.153   4.026   0.810
 6262SOL    HW230818   2.186   3.908   0.702
 6263SOL     OW30819   0.649   2.353   0.991
 6263SOL    HW130820   0.621   2.270   1.040
 6263SOL    HW230821   0.583   2.426   1.009
 6264SOL     OW30822   5.191   7.106   0.990
 6264SOL    HW130823   5.281   7.095   0.947
 6264SOL    HW230824   5.121   7.117   0.919
 6265SOL     OW30825   3.519   3.031   0.352
 6265SOL    HW130826   3.609   2.996   0.377
 6265SOL    HW230827   3.491   3.100   0.419
 6266SOL     OW30828   8.383   6.371   0.555
 6266SOL    HW130829   8.382   6.471   0.556
 6266SOL    HW230830   8.476   6.339   0.574
 6267SOL     OW30831   2.408   5.976   0.835
 6267SOL    HW130832   2.424   5.885   0.797
 6267SOL    HW230833   2.442   5.980   0.929
 6268SOL     OW30834   6.230   4.299   5.541
 6268SOL    HW130835   6.268   4.360   5.611
 6268SOL    HW230836   6.241   4.204   5.570
 6269SOL     OW30837   3.011   0.665   5.836
 6269SOL    HW130838   3.024   0.581   5.889
 6269SOL    HW230839   3.077   0.734   5.865
 6270SOL     OW30840   6.249   2.073   5.947
 6270SOL    HW130841   6.281   1.980   5.968
 6270SOL    HW230842   6.324   2.124   5.905
 6271SOL     OW30843   6.500   3.753   0.226
 6271SOL    HW130844   6.452   3.724   0.309
 6271SOL    HW230845   6.462   3.840   0.194
 6272SOL     OW30846   3.203   0.809   5.935
 6272SOL    HW130847   3.298   0.810   5.967
 6272SOL    HW230848   3.144   0.848   6.006
 6273SOL     OW30849   3.738   0.081   6.287
 6273SOL    HW130850   3.788   0.002   6.321
 6273SOL    HW230851   3.729   0.075   6.187
 6274SOL     OW30852   7.740   7.784   6.667
 6274SOL    HW130853   7.777   7.757   6.757
 6274SOL    HW230854   7.668   7.852   6.680
 6275SOL     OW30855   2.385   1.439   5.584
 6275SOL    HW130856   2.325   1.511   5.549
 6275SOL    HW230857   2.395   1.367   5.515
 6276SOL     OW30858   4.314   4.866   1.857
 6276SOL    HW130859   4.400   4.816   1.845
 6276SOL    HW230860   4.329   4.943   1.920
 6277SOL     OW30861   7.439   6.091   5.876
 6277SOL    HW130862   7.375   6.101   5.800
 6277SOL    HW230863   7.407   6.019   5.937
 6278SOL     OW30864   3.358   2.509   0.933
 6278SOL    HW130865   3.361   2.432   0.998
 6278SOL    HW230866   3.298   2.486   0.857
 6279SOL     OW30867   7.823   4.727   1.087
 6279SOL    HW130868   7.901   4.665   1.081
 6279SOL    HW230869   7.804   4.748   1.183
 6280SOL     OW30870   4.492   3.813   6.508
 6280SOL    HW130871   4.425   3.761   6.454
 6280SOL    HW230872   4.497   3.906   6.473
 6281SOL     OW30873   5.508   5.058   6.492
 6281SOL    HW130874   5.493   4.988   6.422
 6281SOL    HW230875   5.531   5.014   6.579
 6282SOL     OW30876   3.767   3.885   6.724
 6282SOL    HW130877   3.700   3.958   6.726
 6282SOL    HW230878   3.756   3.832   6.639
 6283SOL     OW30879   5.638   2.230   0.074
 6283SOL    HW130880   5.724   2.270   0.105
 6283SOL    HW230881   5.644   2.130   0.080
 6284SOL     OW30882   5.702   4.526   6.631
 6284SOL    HW130883   5.619   4.581   6.618
 6284SOL    HW230884   5.732   4.533   6.726
 6285SOL     OW30885   8.117   0.245   0.469
 6285SOL    HW130886   8.097   0.176   0.539
 6285SOL    HW230887   8.051   0.319   0.476
 6286SOL     OW30888   7.084   1.333   5.707
 6286SOL    HW130889   7.104   1.299   5.615
 6286SOL    HW230890   7.053   1.428   5.701
 6287SOL     OW30891   3.908   7.546   6.325
 6287SOL    HW130892   3.868   7.552   6.234
 6287SOL    HW230893   3.836   7.558   6.394
 6288SOL     OW30894   8.793   6.360   6.158
 6288SOL    HW130895   8.701   6.398   6.171
 6288SOL    HW230896   8.838   6.350   6.247
 6289SOL     OW30897   0.912   0.088   6.708
 6289SOL    HW130898   0.886   0.185   6.703
 6289SOL    HW230899   0.981   0.068   6.638
 6290SOL     OW30900   0.142   5.864   6.099
 6290SOL    HW130901   0.172   5.807   6.022
 6290SOL    HW230902   0.068   5.817   6.148
 6291SOL     OW30903   5.807   0.983   0.735
 6291SOL    HW130904   5.761   0.951   0.817
 6291SOL    HW230905   5.851   1.071   0.754
 6292SOL     OW30906   2.670   3.736   5.922
 6292SOL    HW130907   2.619   3.818   5.947
 6292SOL    HW230908   2.768   3.752   5.935
 6293SOL     OW30909   5.262   4.227   6.075
 6293SOL    HW130910   5.227   4.140   6.109
 6293SOL    HW230911   5.267   4.224   5.975
 6294SOL     OW30912   2.601   7.801   6.238
 6294SOL    HW130913   2.558   7.732   6.297
 6294SOL    HW230914   2.530   7.862   6.201
 6295SOL     OW30915   1.649   7.160   0.676
 6295SOL    HW130916   1.594   7.183   0.756
 6295SOL    HW230917   1.618   7.072   0.639
 6296SOL     OW30918   3.928   3.309   5.751
 6296SOL    HW130919   3.848   3.302   5.692
 6296SOL    HW230920   3.994   3.237   5.727
 6297SOL     OW30921   0.949   4.506   0.957
 6297SOL    HW130922   0.945   4.450   1.040
 6297SOL    HW230923   0.869   4.565   0.954
 6298SOL     OW30924   2.888   5.859   6.541
 6298SOL    HW130925   2.918   5.930   6.605
 6298SOL    HW230926   2.800   5.885   6.501
 6299SOL     OW30927   3.785   4.082   5.754
 6299SOL    HW130928   3.738   3.994   5.751
 6299SOL    HW230929   3.734   4.150   5.702
 6300SOL     OW30930   7.430   1.780   0.472
 6300SOL    HW130931   7.435   1.728   0.557
 6300SOL    HW230932   7.509   1.842   0.467
 6301SOL     OW30933   6.154   5.425   6.310
 6301SOL    HW130934   6.166   5.408   6.212
 6301SOL    HW230935   6.180   5.343   6.362
 6302SOL     OW30936   6.119   0.980   0.059
 6302SOL    HW130937   6.033   1.031   0.061
 6302SOL    HW230938   6.106   0.895   0.009
 6303SOL     OW30939   1.230   6.629   5.507
 6303SOL    HW130940   1.198   6.704   5.448
 6303SOL    HW230941   1.265   6.555   5.450
 6304SOL     OW30942   1.464   5.507   1.454
 6304SOL    HW130943   1.496   5.575   1.520
 6304SOL    HW230944   1.508   5.419   1.472
 6305SOL     OW30945   0.856   5.188   5.396
 6305SOL    HW130946   0.906   5.273   5.417
 6305SOL    HW230947   0.909   5.110   5.428
 6306SOL     OW30948   5.113   3.712   6.279
 6306SOL    HW130949   5.203   3.753   6.291
 6306SOL    HW230950   5.068   3.702   6.368
 6307SOL     OW30951   3.861   0.958   1.666
 6307SOL    HW130952   3.960   0.949   1.661
 6307SOL    HW230953   3.828   0.920   1.752
 6308SOL     OW30954   4.117   1.066   6.021
 6308SOL    HW130955   4.110   1.107   6.112
 6308SOL    HW230956   4.207   1.085   5.982
 6309SOL     OW30957   8.464   2.181   5.615
 6309SOL    HW130958   8.411   2.190   5.698
 6309SOL    HW230959   8.414   2.125   5.549
 6310SOL     OW30960   1.736   0.895   4.929
 6310SOL    HW130961   1.675   0.873   4.853
 6310SOL    HW230962   1.807   0.825   4.936
 6311SOL     OW30963   5.788   6.876   6.555
 6311SOL    HW130964   5.788   6.785   6.594
 6311SOL    HW230965   5.752   6.873   6.462
 6312SOL     OW30966   6.275   5.767   5.333
 6312SOL    HW130967   6.229   5.695   5.281
 6312SOL    HW230968   6.221   5.788   5.414
 6313SOL     OW30969   5.700   0.183   0.860
 6313SOL    HW130970   5.685   0.213   0.766
 6313SOL    HW230971   5.664   0.251   0.923
 6314SOL     OW30972   7.789   5.382   5.149
 6314SOL    HW130973   7.821   5.292   5.119
 6314SOL    HW230974   7.785   5.443   5.070
 6315SOL     OW30975   1.723   5.585   6.342
 6315SOL    HW130976   1.709   5.562   6.245
 6315SOL    HW230977   1.800   5.648   6.350
 6316SOL     OW30978   0.882   7.428   0.199
 6316SOL    HW130979   0.909   7.351   0.142
 6316SOL    HW230980   0.868   7.397   0.293
 6317SOL     OW30981   2.998   0.306   1.429
 6317SOL    HW130982   2.902   0.321   1.404
 6317SOL    HW230983   3.027   0.216   1.397
 6318SOL     OW30984   6.000   3.560   1.115
 6318SOL    HW130985   6.097   3.580   1.101
 6318SOL    HW230986   5.978   3.568   1.212
 6319SOL     OW30987   9.028   4.273   1.089
 6319SOL    HW130988   8.940   4.267   1.041
 6319SOL    HW230989   9.088   4.338   1.041
 6320SOL     OW30990   2.807   3.114   0.729
 6320SOL    HW130991   2.772   3.163   0.649
 6320SOL    HW230992   2.867   3.174   0.782
 6321SOL     OW30993   2.042   0.557   0.141
 6321SOL    HW130994   2.095   0.615   0.203
 6321SOL    HW230995   2.047   0.595   0.049
 6322SOL     OW30996   3.062   0.837   2.238
 6322SOL    HW130997   3.160   0.834   2.257
 6322SOL    HW230998   3.018   0.904   2.298
 6323SOL     OW30999   3.225   6.520   6.210
 6323SOL    HW131000   3.127   6.512   6.224
 6323SOL    HW231001   3.259   6.600   6.259
 6324SOL     OW31002   6.043   7.567   1.658
 6324SOL    HW131003   6.133   7.552   1.698
 6324SOL    HW231004   5.977   7.588   1.731
 6325SOL     OW31005   7.975   6.929   1.474
 6325SOL    HW131006   7.988   7.028   1.470
 6325SOL    HW231007   7.892   6.908   1.527
 6326SOL     OW31008   3.737   3.718   6.511
 6326SOL    HW131009   3.735   3.621   6.531
 6326SOL    HW231010   3.831   3.745   6.487
 6327SOL     OW31011   2.560   0.621   5.786
 6327SOL    HW131012   2.475   0.569   5.775
 6327SOL    HW231013   2.556   0.704   5.730
 6328SOL     OW31014   4.603   4.999   1.072
 6328SOL    HW131015   4.680   4.934   1.078
 6328SOL    HW231016   4.639   5.092   1.067
 6329SOL     OW31017   0.259   7.409   6.508
 6329SOL    HW131018   0.178   7.430   6.453
 6329SOL    HW231019   0.322   7.486   6.506
 6330SOL     OW31020   1.237   4.010   0.822
 6330SOL    HW131021   1.230   4.109   0.837
 6330SOL    HW231022   1.202   3.962   0.903
 6331SOL     OW31023   7.435   7.139   5.920
 6331SOL    HW131024   7.518   7.185   5.951
 6331SOL    HW231025   7.372   7.128   5.997
 6332SOL     OW31026   5.672   5.322   1.102
 6332SOL    HW131027   5.687   5.411   1.057
 6332SOL    HW231028   5.656   5.336   1.199
 6333SOL     OW31029   5.873   7.517   5.357
 6333SOL    HW131030   5.788   7.519   5.304
 6333SOL    HW231031   5.941   7.576   5.313
 6334SOL     OW31032   3.493   4.898   6.004
 6334SOL    HW131033   3.466   4.847   5.922
 6334SOL    HW231034   3.411   4.932   6.051
 6335SOL     OW31035   3.807   6.310   6.295
 6335SOL    HW131036   3.894   6.302   6.247
 6335SOL    HW231037   3.814   6.268   6.385
 6336SOL     OW31038   2.643   4.578   5.748
 6336SOL    HW131039   2.736   4.560   5.717
 6336SOL    HW231040   2.599   4.492   5.774
 6337SOL     OW31041   8.437   7.353   5.457
 6337SOL    HW131042   8.431   7.450   5.436
 6337SOL    HW231043   8.519   7.314   5.415
 6338SOL     OW31044   2.447   0.350   1.035
 6338SOL    HW131045   2.428   0.321   0.941
 6338SOL    HW231046   2.373   0.409   1.067
 6339SOL     OW31047   3.651   2.405   4.944
 6339SOL    HW131048   3.695   2.365   4.864
 6339SOL    HW231049   3.553   2.414   4.926
 6340SOL     OW31050   3.075   0.270   5.273
 6340SOL    HW131051   3.126   0.309   5.350
 6340SOL    HW231052   3.079   0.171   5.278
 6341SOL     OW31053   0.055   6.650   0.767
 6341SOL    HW131054   0.105   6.701   0.837
 6341SOL    HW231055   0.095   6.559   0.757
 6342SOL     OW31056   5.052   7.884   0.361
 6342SOL    HW131057   5.092   7.792   0.367
 6342SOL    HW231058   5.120   7.948   0.328
 6343SOL     OW31059   0.698   2.922   0.000
 6343SOL    HW131060   0.650   2.834   0.004
 6343SOL    HW231061   0.721   2.951   0.093
 6344SOL     OW31062   5.906   5.184   6.075
 6344SOL    HW131063   5.877   5.143   6.162
 6344SOL    HW231064   5.860   5.137   6.000
 6345SOL     OW31065   8.657   3.156   0.986
 6345SOL    HW131066   8.697   3.073   0.947
 6345SOL    HW231067   8.717   3.191   1.058
 6346SOL     OW31068   8.320   5.330   0.344
 6346SOL    HW131069   8.398   5.389   0.323
 6346SOL    HW231070   8.236   5.375   0.316
 6347SOL     OW31071   3.981   3.751   5.921
 6347SOL    HW131072   4.028   3.665   5.901
 6347SOL    HW231073   4.044   3.812   5.970
 6348SOL     OW31074   0.258   6.453   6.609
 6348SOL    HW131075   0.267   6.459   6.708
 6348SOL    HW231076   0.173   6.497   6.581
 6349SOL     OW31077   8.278   8.409   6.413
 6349SOL    HW131078   8.241   8.405   6.320
 6349SOL    HW231079   8.286   8.504   6.441
 6350SOL     OW31080   1.488   7.890   1.138
 6350SOL    HW131081   1.547   7.956   1.092
 6350SOL    HW231082   1.469   7.921   1.231
 6351SOL     OW31083   3.590   8.292   0.536
 6351SOL    HW131084   3.504   8.311   0.488
 6351SOL    HW231085   3.623   8.201   0.512
 6352SOL     OW31086   1.686   2.933   0.413
 6352SOL    HW131087   1.745   3.010   0.388
 6352SOL    HW231088   1.733   2.874   0.479
 6353SOL     OW31089   8.974   5.765   5.526
 6353SOL    HW131090   8.986   5.864   5.527
 6353SOL    HW231091   9.026   5.725   5.602
 6354SOL     OW31092   2.760   1.465   0.049
 6354SOL    HW131093   2.848   1.462   0.003
 6354SOL    HW231094   2.706   1.384   0.024
 6355SOL     OW31095   2.183   5.072   5.117
 6355SOL    HW131096   2.112   5.002   5.112
 6355SOL    HW231097   2.259   5.047   5.056
 6356SOL     OW31098   2.458   4.215   1.411
 6356SOL    HW131099   2.399   4.134   1.421
 6356SOL    HW231100   2.553   4.187   1.405
 6357SOL     OW31101   6.401   7.103   5.836
 6357SOL    HW131102   6.385   7.135   5.929
 6357SOL    HW231103   6.493   7.129   5.807
 6358SOL     OW31104   7.349   0.142   0.587
 6358SOL    HW131105   7.360   0.044   0.603
 6358SOL    HW231106   7.435   0.188   0.607
 6359SOL     OW31107   0.387   0.056   0.063
 6359SOL    HW131108   0.328   0.011  -0.004
 6359SOL    HW231109   0.332   0.121   0.117
 6360SOL     OW31110   8.734   6.147   4.726
 6360SOL    HW131111   8.811   6.206   4.703
 6360SOL    HW231112   8.763   6.080   4.795
 6361SOL     OW31113   8.080   1.563   0.014
 6361SOL    HW131114   8.018   1.513  -0.046
 6361SOL    HW231115   8.156   1.600  -0.040
 6362SOL     OW31116   6.222   1.738   5.604
 6362SOL    HW131117   6.182   1.828   5.587
 6362SOL    HW231118   6.148   1.670   5.611
 6363SOL     OW31119   4.477   2.713   6.248
 6363SOL    HW131120   4.422   2.675   6.174
 6363SOL    HW231121   4.552   2.768   6.210
 6364SOL     OW31122   2.832   4.412   5.605
 6364SOL    HW131123   2.760   4.362   5.557
 6364SOL    HW231124   2.920   4.369   5.586
 6365SOL     OW31125   7.172   4.758   0.924
 6365SOL    HW131126   7.181   4.681   0.987
 6365SOL    HW231127   7.258   4.808   0.920
 6366SOL     OW31128   3.429   5.311   0.035
 6366SOL    HW131129   3.437   5.404   0.070
 6366SOL    HW231130   3.341   5.300  -0.010
 6367SOL     OW31131   4.525   7.106   0.905
 6367SOL    HW131132   4.459   7.155   0.962
 6367SOL    HW231133   4.489   7.015   0.885
 6368SOL     OW31134   0.456   1.664   0.140
 6368SOL    HW131135   0.414   1.669   0.231
 6368SOL    HW231136   0.506   1.749   0.122
 6369SOL     OW31137   1.917   6.589   1.264
 6369SOL    HW131138   1.977   6.655   1.219
 6369SOL    HW231139   1.887   6.520   1.198
 6370SOL     OW31140   7.156   7.958   5.427
 6370SOL    HW131141   7.226   8.025   5.455
 6370SOL    HW231142   7.127   7.979   5.334
 6371SOL     OW31143   1.905   0.779   6.520
 6371SOL    HW131144   1.885   0.869   6.557
 6371SOL    HW231145   1.890   0.779   6.421
 6372SOL     OW31146   7.220   6.208   1.670
 6372SOL    HW131147   7.268   6.121   1.668
 6372SOL    HW231148   7.271   6.276   1.617
 6373SOL     OW31149   7.304   0.567   0.414
 6373SOL    HW131150   7.231   0.612   0.465
 6373SOL    HW231151   7.390   0.614   0.432
 6374SOL     OW31152   7.814   5.655   6.115
 6374SOL    HW131153   7.829   5.559   6.138
 6374SOL    HW231154   7.776   5.662   6.023
 6375SOL     OW31155   4.645   4.099   0.844
 6375SOL    HW131156   4.717   4.138   0.786
 6375SOL    HW231157   4.596   4.028   0.792
 6376SOL     OW31158   6.034   2.866   0.759
 6376SOL    HW131159   6.108   2.798   0.756
 6376SOL    HW231160   5.947   2.820   0.776
 6377SOL     OW31161   5.706   2.436   1.439
 6377SOL    HW131162   5.654   2.353   1.459
 6377SOL    HW231163   5.647   2.502   1.392
 6378SOL     OW31164   7.220   7.093   6.087
 6378SOL    HW131165   7.152   7.147   6.137
 6378SOL    HW231166   7.243   7.011   6.139
 6379SOL     OW31167   0.091   7.375   5.238
 6379SOL    HW131168   0.008   7.361   5.292
 6379SOL    HW231169   0.103   7.299   5.175
 6380SOL     OW31170   8.958   3.588   6.296
 6380SOL    HW131171   8.890   3.662   6.292
 6380SOL    HW231172   8.996   3.574   6.205
 6381SOL     OW31173   9.355   7.323   5.344
 6381SOL    HW131174   9.283   7.354   5.282
 6381SOL    HW231175   9.336   7.356   5.436
 6382SOL     OW31176   2.679   4.869   5.142
 6382SOL    HW131177   2.637   4.884   5.052
 6382SOL    HW231178   2.769   4.913   5.144
 6383SOL     OW31179   0.142   4.871   0.429
 6383SOL    HW131180   0.061   4.868   0.489
 6383SOL    HW231181   0.123   4.820   0.345
 6384SOL     OW31182   6.486   7.297   6.237
 6384SOL    HW131183   6.441   7.234   6.173
 6384SOL    HW231184   6.456   7.276   6.330
 6385SOL     OW31185   4.423   8.332   6.732
 6385SOL    HW131186   4.397   8.237   6.750
 6385SOL    HW231187   4.458   8.339   6.638
 6386SOL     OW31188   7.354   4.900   0.594
 6386SOL    HW131189   7.405   4.853   0.666
 6386SOL    HW231190   7.323   4.989   0.627
 6387SOL     OW31191   4.729   6.846   5.929
 6387SOL    HW131192   4.745   6.763   5.982
 6387SOL    HW231193   4.638   6.841   5.886
 6388SOL     OW31194   8.548   7.843   5.013
 6388SOL    HW131195   8.613   7.906   5.053
 6388SOL    HW231196   8.596   7.783   4.948
 6389SOL     OW31197   2.361   1.089   6.168
 6389SOL    HW131198   2.380   0.995   6.140
 6389SOL    HW231199   2.313   1.089   6.256
 6390SOL     OW31200   9.081   1.925   6.683
 6390SOL    HW131201   8.996   1.881   6.652
 6390SOL    HW231202   9.063   2.020   6.707
 6391SOL     OW31203   2.921   1.101   6.055
 6391SOL    HW131204   3.009   1.148   6.045
 6391SOL    HW231205   2.931   1.024   6.117
 6392SOL     OW31206   2.962   4.712   1.341
 6392SOL    HW131207   2.888   4.760   1.294
 6392SOL    HW231208   2.925   4.667   1.423
 6393SOL     OW31209   7.748   6.148   0.108
 6393SOL    HW131210   7.721   6.232   0.154
 6393SOL    HW231211   7.808   6.169   0.031
 6394SOL     OW31212   8.364   2.045   1.724
 6394SOL    HW131213   8.458   2.018   1.703
 6394SOL    HW231214   8.341   2.016   1.817
 6395SOL     OW31215   0.833   1.022   0.984
 6395SOL    HW131216   0.815   1.059   1.076
 6395SOL    HW231217   0.770   1.064   0.919
 6396SOL     OW31218   1.893   7.090   0.312
 6396SOL    HW131219   1.840   7.174   0.310
 6396SOL    HW231220   1.852   7.026   0.378
 6397SOL     OW31221   4.760   4.789   1.369
 6397SOL    HW131222   4.856   4.778   1.397
 6397SOL    HW231223   4.700   4.759   1.444
 6398SOL     OW31224   8.211   1.794   6.065
 6398SOL    HW131225   8.126   1.843   6.045
 6398SOL    HW231226   8.249   1.757   5.980
 6399SOL     OW31227   8.406   6.142   6.712
 6399SOL    HW131228   8.491   6.137   6.764
 6399SOL    HW231229   8.358   6.227   6.736
 6400SOL     OW31230   1.174   8.486   5.639
 6400SOL    HW131231   1.211   8.471   5.548
 6400SOL    HW231232   1.152   8.583   5.651
 6401SOL     OW31233   8.706   3.062   0.351
 6401SOL    HW131234   8.798   3.101   0.352
 6401SOL    HW231235   8.669   3.065   0.258
 6402SOL     OW31236   6.433   6.378   6.014
 6402SOL    HW131237   6.337   6.378   5.987
 6402SOL    HW231238   6.475   6.291   5.990
 6403SOL     OW31239   4.992   2.656   1.438
 6403SOL    HW131240   4.903   2.700   1.448
 6403SOL    HW231241   5.039   2.655   1.526
 6404SOL     OW31242   7.411   0.427   0.995
 6404SOL    HW131243   7.327   0.443   1.048
 6404SOL    HW231244   7.438   0.331   1.005
 6405SOL     OW31245   8.811   0.191   6.715
 6405SOL    HW131246   8.819   0.121   6.645
 6405SOL    HW231247   8.737   0.254   6.692
 6406SOL     OW31248   4.592   4.122   0.500
 6406SOL    HW131249   4.530   4.070   0.559
 6406SOL    HW231250   4.602   4.215   0.534
 6407SOL     OW31251   2.042   3.743   5.622
 6407SOL    HW131252   1.993   3.768   5.539
 6407SOL    HW231253   1.981   3.753   5.701
 6408SOL     OW31254   6.966   7.769   0.672
 6408SOL    HW131255   6.978   7.750   0.769
 6408SOL    HW231256   7.032   7.716   0.619
 6409SOL     OW31257   0.449   2.948   0.295
 6409SOL    HW131258   0.437   2.868   0.236
 6409SOL    HW231259   0.505   3.016   0.250
 6410SOL     OW31260   6.236   1.375   6.394
 6410SOL    HW131261   6.316   1.430   6.417
 6410SOL    HW231262   6.239   1.288   6.444
 6411SOL     OW31263   5.646   0.486   5.495
 6411SOL    HW131264   5.628   0.392   5.524
 6411SOL    HW231265   5.582   0.511   5.422
 6412SOL     OW31266   0.521   5.832   6.196
 6412SOL    HW131267   0.601   5.773   6.192
 6412SOL    HW231268   0.439   5.775   6.207
 6413SOL     OW31269   3.914   0.595   6.410
 6413SOL    HW131270   3.870   0.507   6.393
 6413SOL    HW231271   3.921   0.611   6.509
 6414SOL     OW31272   7.082   1.591   1.515
 6414SOL    HW131273   7.169   1.627   1.480
 6414SOL    HW231274   7.015   1.664   1.520
 6415SOL     OW31275   4.450   0.307   6.369
 6415SOL    HW131276   4.364   0.349   6.341
 6415SOL    HW231277   4.522   0.331   6.303
 6416SOL     OW31278   3.640   8.259   1.051
 6416SOL    HW131279   3.549   8.233   1.018
 6416SOL    HW231280   3.710   8.208   1.001
 6417SOL     OW31281   6.350   2.363   6.383
 6417SOL    HW131282   6.395   2.357   6.294
 6417SOL    HW231283   6.294   2.446   6.387
 6418SOL     OW31284   2.764   2.915   0.923
 6418SOL    HW131285   2.773   2.956   0.832
 6418SOL    HW231286   2.679   2.864   0.929
 6419SOL     OW31287   6.269   5.212   5.191
 6419SOL    HW131288   6.205   5.233   5.116
 6419SOL    HW231289   6.316   5.126   5.171
 6420SOL     OW31290   1.250   8.465   5.391
 6420SOL    HW131291   1.174   8.448   5.328
 6420SOL    HW231292   1.303   8.381   5.402
 6421SOL     OW31293   9.282   0.797   1.256
 6421SOL    HW131294   9.334   0.712   1.245
 6421SOL    HW231295   9.185   0.775   1.265
 6422SOL     OW31296   4.034   5.365   6.246
 6422SOL    HW131297   3.990   5.317   6.170
 6422SOL    HW231298   4.102   5.429   6.210
 6423SOL     OW31299   0.579   3.733   0.513
 6423SOL    HW131300   0.638   3.718   0.433
 6423SOL    HW231301   0.616   3.684   0.592
 6424SOL     OW31302   4.791   6.939   5.317
 6424SOL    HW131303   4.734   6.906   5.392
 6424SOL    HW231304   4.814   6.863   5.256
 6425SOL     OW31305   7.875   4.047   1.697
 6425SOL    HW131306   7.891   4.062   1.600
 6425SOL    HW231307   7.910   3.956   1.723
 6426SOL     OW31308   3.364   5.531   1.058
 6426SOL    HW131309   3.444   5.524   1.118
 6426SOL    HW231310   3.384   5.595   0.983
 6427SOL     OW31311   6.680   3.652   0.545
 6427SOL    HW131312   6.658   3.566   0.590
 6427SOL    HW231313   6.614   3.722   0.573
 6428SOL     OW31314   3.690   3.653   1.050
 6428SOL    HW131315   3.755   3.579   1.067
 6428SOL    HW231316   3.640   3.673   1.134
 6429SOL     OW31317   3.496   3.102   5.945
 6429SOL    HW131318   3.458   3.029   6.002
 6429SOL    HW231319   3.479   3.081   5.849
 6430SOL     OW31320   7.303   6.551   0.826
 6430SOL    HW131321   7.353   6.489   0.766
 6430SOL    HW231322   7.345   6.641   0.823
 6431SOL     OW31323   1.846   5.339   0.191
 6431SOL    HW131324   1.754   5.359   0.158
 6431SOL    HW231325   1.857   5.240   0.202
 6432SOL     OW31326   5.069   3.341   0.562
 6432SOL    HW131327   5.159   3.297   0.570
 6432SOL    HW231328   4.998   3.271   0.561
 6433SOL     OW31329   4.819   8.100   6.407
 6433SOL    HW131330   4.826   8.161   6.486
 6433SOL    HW231331   4.886   8.027   6.416
 6434SOL     OW31332   7.369   8.328   0.132
 6434SOL    HW131333   7.312   8.332   0.214
 6434SOL    HW231334   7.338   8.253   0.074
 6435SOL     OW31335   1.748   0.851   5.462
 6435SOL    HW131336   1.835   0.827   5.504
 6435SOL    HW231337   1.756   0.848   5.363
 6436SOL     OW31338   2.335   7.966   4.429
 6436SOL    HW131339   2.405   8.013   4.375
 6436SOL    HW231340   2.340   7.868   4.413
 6437SOL     OW31341   3.793   2.728   1.736
 6437SOL    HW131342   3.810   2.644   1.786
 6437SOL    HW231343   3.746   2.794   1.795
 6438SOL     OW31344   4.905   3.825   6.428
 6438SOL    HW131345   4.916   3.846   6.331
 6438SOL    HW231346   4.934   3.904   6.482
 6439SOL     OW31347   9.052   2.162   6.393
 6439SOL    HW131348   9.039   2.232   6.463
 6439SOL    HW231349   9.148   2.160   6.365
 6440SOL     OW31350   5.567   7.005   6.676
 6440SOL    HW131351   5.605   7.096   6.695
 6440SOL    HW231352   5.632   6.953   6.621
 6441SOL     OW31353   7.982   5.500   6.443
 6441SOL    HW131354   8.051   5.543   6.385
 6441SOL    HW231355   7.908   5.463   6.385
 6442SOL     OW31356   7.490   3.962   5.766
 6442SOL    HW131357   7.421   3.974   5.695
 6442SOL    HW231358   7.551   3.887   5.741
 6443SOL     OW31359   0.173   4.058   0.669
 6443SOL    HW131360   0.163   3.968   0.627
 6443SOL    HW231361   0.109   4.065   0.747
 6444SOL     OW31362   4.914   3.551   0.088
 6444SOL    HW131363   4.874   3.503   0.166
 6444SOL    HW231364   4.892   3.648   0.093
 6445SOL     OW31365   2.458   7.042   6.027
 6445SOL    HW131366   2.384   7.098   5.990
 6445SOL    HW231367   2.421   6.957   6.064
 6446SOL     OW31368   1.142   0.091   6.546
 6446SOL    HW131369   1.200   0.055   6.619
 6446SOL    HW231370   1.182   0.176   6.511
 6447SOL     OW31371   5.717   1.885   6.437
 6447SOL    HW131372   5.815   1.883   6.459
 6447SOL    HW231373   5.697   1.969   6.385
 6448SOL     OW31374   6.255   2.214   6.723
 6448SOL    HW131375   6.330   2.244   6.665
 6448SOL    HW231376   6.290   2.190   6.814
 6449SOL     OW31377   3.166   6.126   1.923
 6449SOL    HW131378   3.072   6.158   1.923
 6449SOL    HW231379   3.176   6.053   1.991
 6450SOL     OW31380   6.554   4.727   5.509
 6450SOL    HW131381   6.459   4.696   5.505
 6450SOL    HW231382   6.571   4.794   5.437
 6451SOL     OW31383   4.496   1.565   6.409
 6451SOL    HW131384   4.434   1.549   6.486
 6451SOL    HW231385   4.589   1.579   6.444
 6452SOL     OW31386   5.565   6.118   1.850
 6452SOL    HW131387   5.593   6.207   1.886
 6452SOL    HW231388   5.647   6.064   1.829
 6453SOL     OW31389   2.850   7.310   0.131
 6453SOL    HW131390   2.792   7.236   0.099
 6453SOL    HW231391   2.886   7.360   0.052
 6454SOL     OW31392   2.742   2.094   0.512
 6454SOL    HW131393   2.768   2.069   0.605
 6454SOL    HW231394   2.726   2.012   0.458
 6455SOL     OW31395   3.984   4.858   5.766
 6455SOL    HW131396   4.063   4.851   5.826
 6455SOL    HW231397   3.959   4.954   5.753
 6456SOL     OW31398   6.654   0.519   5.986
 6456SOL    HW131399   6.732   0.555   6.038
 6456SOL    HW231400   6.583   0.590   5.981
 6457SOL     OW31401   1.636   6.894   6.705
 6457SOL    HW131402   1.735   6.889   6.690
 6457SOL    HW231403   1.597   6.967   6.648
 6458SOL     OW31404   7.971   7.241   6.559
 6458SOL    HW131405   8.055   7.260   6.611
 6458SOL    HW231406   7.924   7.327   6.540
 6459SOL     OW31407   7.540   2.737   0.198
 6459SOL    HW131408   7.520   2.827   0.160
 6459SOL    HW231409   7.568   2.746   0.293
 6460SOL     OW31410   9.369   5.050   5.602
 6460SOL    HW131411   9.319   5.018   5.522
 6460SOL    HW231412   9.346   5.145   5.620
 6461SOL     OW31413   1.274   7.096   6.626
 6461SOL    HW131414   1.183   7.130   6.602
 6461SOL    HW231415   1.274   7.062   6.720
 6462SOL     OW31416   5.563   5.006   1.345
 6462SOL    HW131417   5.608   4.968   1.426
 6462SOL    HW231418   5.525   5.096   1.366
 6463SOL     OW31419   8.779   6.281   1.060
 6463SOL    HW131420   8.745   6.192   1.091
 6463SOL    HW231421   8.757   6.351   1.128
 6464SOL     OW31422   3.411   7.147   6.094
 6464SOL    HW131423   3.311   7.140   6.090
 6464SOL    HW231424   3.451   7.072   6.042
 6465SOL     OW31425   2.710   8.104   0.014
 6465SOL    HW131426   2.707   8.204   0.015
 6465SOL    HW231427   2.653   8.069  -0.061
 6466SOL     OW31428   6.360   8.169   5.625
 6466SOL    HW131429   6.396   8.194   5.534
 6466SOL    HW231430   6.268   8.207   5.636
 6467SOL     OW31431   2.100   7.130   0.564
 6467SOL    HW131432   2.018   7.178   0.597
 6467SOL    HW231433   2.085   7.032   0.568
 6468SOL     OW31434   7.779   0.793   0.533
 6468SOL    HW131435   7.757   0.864   0.601
 6468SOL    HW231436   7.837   0.723   0.576
 6469SOL     OW31437   3.849   5.976   6.137
 6469SOL    HW131438   3.773   5.927   6.179
 6469SOL    HW231439   3.929   5.972   6.197
 6470SOL     OW31440   3.999   7.264   1.076
 6470SOL    HW131441   3.951   7.242   1.161
 6470SOL    HW231442   3.980   7.358   1.050
 6471SOL     OW31443   3.510   6.369   1.171
 6471SOL    HW131444   3.542   6.423   1.249
 6471SOL    HW231445   3.452   6.294   1.203
 6472SOL     OW31446   8.991   0.261   0.452
 6472SOL    HW131447   9.063   0.330   0.449
 6472SOL    HW231448   8.902   0.306   0.458
 6473SOL     OW31449   4.783   2.077   5.427
 6473SOL    HW131450   4.694   2.032   5.435
 6473SOL    HW231451   4.798   2.137   5.505
 6474SOL     OW31452   0.302   2.818   5.978
 6474SOL    HW131453   0.205   2.833   5.961
 6474SOL    HW231454   0.352   2.904   5.967
 6475SOL     OW31455   1.504   0.029   0.371
 6475SOL    HW131456   1.472  -0.007   0.283
 6475SOL    HW231457   1.459   0.117   0.388
 6476SOL     OW31458   0.710   0.313   0.215
 6476SOL    HW131459   0.697   0.349   0.308
 6476SOL    HW231460   0.756   0.224   0.221
 6477SOL     OW31461   0.960   3.822   6.357
 6477SOL    HW131462   0.949   3.915   6.392
 6477SOL    HW231463   1.057   3.798   6.358
 6478SOL     OW31464   7.288   3.988   5.582
 6478SOL    HW131465   7.272   4.065   5.521
 6478SOL    HW231466   7.235   3.909   5.551
 6479SOL     OW31467   1.817   6.037   6.612
 6479SOL    HW131468   1.884   5.971   6.576
 6479SOL    HW231469   1.794   6.103   6.541
 6480SOL     OW31470   3.042   7.511   5.764
 6480SOL    HW131471   3.070   7.498   5.859
 6480SOL    HW231472   3.041   7.609   5.743
 6481SOL     OW31473   6.470   7.966   6.377
 6481SOL    HW131474   6.429   7.879   6.351
 6481SOL    HW231475   6.413   8.042   6.344
 6482SOL     OW31476   1.306   3.038   0.235
 6482SOL    HW131477   1.306   2.996   0.326
 6482SOL    HW231478   1.367   2.987   0.175
 6483SOL     OW31479   0.417   1.285   6.134
 6483SOL    HW131480   0.319   1.265   6.125
 6483SOL    HW231481   0.468   1.223   6.074
 6484SOL     OW31482   2.690   1.181   1.088
 6484SOL    HW131483   2.689   1.276   1.056
 6484SOL    HW231484   2.599   1.157   1.123
 6485SOL     OW31485   4.388   4.793   1.065
 6485SOL    HW131486   4.430   4.718   1.013
 6485SOL    HW231487   4.457   4.861   1.088
 6486SOL     OW31488   7.373   6.396   6.263
 6486SOL    HW131489   7.408   6.371   6.172
 6486SOL    HW231490   7.434   6.461   6.306
 6487SOL     OW31491   5.739   1.354   0.079
 6487SOL    HW131492   5.698   1.387  -0.006
 6487SOL    HW231493   5.747   1.254   0.076
 6488SOL     OW31494   6.105   8.137   0.350
 6488SOL    HW131495   6.018   8.138   0.399
 6488SOL    HW231496   6.145   8.046   0.356
 6489SOL     OW31497   8.100   4.726   1.316
 6489SOL    HW131498   8.067   4.715   1.409
 6489SOL    HW231499   8.116   4.823   1.298
 6490SOL     OW31500   6.812   0.644   6.524
 6490SOL    HW131501   6.716   0.669   6.510
 6490SOL    HW231502   6.817   0.552   6.564
 6491SOL     OW31503   4.961   6.525   6.592
 6491SOL    HW131504   4.987   6.615   6.625
 6491SOL    HW231505   5.008   6.506   6.506
 6492SOL     OW31506   0.645   0.184   5.612
 6492SOL    HW131507   0.654   0.099   5.665
 6492SOL    HW231508   0.624   0.162   5.517
 6493SOL     OW31509   7.280   5.101   6.000
 6493SOL    HW131510   7.372   5.062   6.004
 6493SOL    HW231511   7.281   5.184   5.946
 6494SOL     OW31512   0.229   8.020   1.300
 6494SOL    HW131513   0.322   8.038   1.332
 6494SOL    HW231514   0.177   7.974   1.372
 6495SOL     OW31515   3.621   4.513   6.646
 6495SOL    HW131516   3.609   4.559   6.734
 6495SOL    HW231517   3.533   4.482   6.611
 6496SOL     OW31518   6.751   0.377   5.372
 6496SOL    HW131519   6.677   0.379   5.305
 6496SOL    HW231520   6.775   0.282   5.392
 6497SOL     OW31521   0.387   4.290   5.178
 6497SOL    HW131522   0.334   4.210   5.152
 6497SOL    HW231523   0.485   4.272   5.165
 6498SOL     OW31524   4.913   4.693   6.256
 6498SOL    HW131525   4.850   4.756   6.299
 6498SOL    HW231526   4.948   4.733   6.171
 6499SOL     OW31527   3.190   6.337   6.599
 6499SOL    HW131528   3.239   6.326   6.513
 6499SOL    HW231529   3.255   6.354   6.673
 6500SOL     OW31530   2.750   8.150   0.811
 6500SOL    HW131531   2.761   8.050   0.805
 6500SOL    HW231532   2.819   8.195   0.755
 6501SOL     OW31533   4.813   5.091   6.048
 6501SOL    HW131534   4.763   5.131   6.125
 6501SOL    HW231535   4.857   5.006   6.077
 6502SOL     OW31536   1.275   0.401   4.709
 6502SOL    HW131537   1.216   0.392   4.628
 6502SOL    HW231538   1.301   0.310   4.741
 6503SOL     OW31539   8.017   6.003   5.373
 6503SOL    HW131540   8.013   6.088   5.427
 6503SOL    HW231541   7.927   5.984   5.334
 6504SOL     OW31542   6.718   0.853   1.289
 6504SOL    HW131543   6.672   0.784   1.345
 6504SOL    HW231544   6.807   0.874   1.329
 6505SOL     OW31545   3.568   2.619   0.730
 6505SOL    HW131546   3.501   2.595   0.800
 6505SOL    HW231547   3.586   2.717   0.733
 6506SOL     OW31548   4.253   7.458   6.103
 6506SOL    HW131549   4.225   7.520   6.176
 6506SOL    HW231550   4.352   7.461   6.093
 6507SOL     OW31551   3.223   5.551   6.534
 6507SOL    HW131552   3.322   5.553   6.530
 6507SOL    HW231553   3.192   5.460   6.562
 6508SOL     OW31554   3.125   7.557   0.822
 6508SOL    HW131555   3.085   7.619   0.755
 6508SOL    HW231556   3.080   7.468   0.818
 6509SOL     OW31557   8.938   0.126   0.761
 6509SOL    HW131558   8.875   0.113   0.684
 6509SOL    HW231559   9.024   0.079   0.741
 6510SOL     OW31560   0.408   7.225   5.981
 6510SOL    HW131561   0.384   7.175   5.898
 6510SOL    HW231562   0.495   7.190   6.016
 6511SOL     OW31563   4.221   0.195   4.612
 6511SOL    HW131564   4.302   0.166   4.560
 6511SOL    HW231565   4.140   0.191   4.553
 6512SOL     OW31566   1.422   3.162   6.191
 6512SOL    HW131567   1.342   3.215   6.162
 6512SOL    HW231568   1.447   3.097   6.120
 6513SOL     OW31569   1.182   5.889   5.440
 6513SOL    HW131570   1.086   5.867   5.457
 6513SOL    HW231571   1.212   5.958   5.506
 6514SOL     OW31572   3.616   7.627   0.085
 6514SOL    HW131573   3.706   7.586   0.070
 6514SOL    HW231574   3.562   7.568   0.146
 6515SOL     OW31575   4.558   1.841   6.059
 6515SOL    HW131576   4.652   1.865   6.085
 6515SOL    HW231577   4.516   1.918   6.011
 6516SOL     OW31578   3.674   2.760   6.379
 6516SOL    HW131579   3.717   2.820   6.311
 6516SOL    HW231580   3.670   2.807   6.467
 6517SOL     OW31581   3.412   4.394   5.621
 6517SOL    HW131582   3.372   4.380   5.711
 6517SOL    HW231583   3.349   4.447   5.564
 6518SOL     OW31584   7.271   7.617   4.946
 6518SOL    HW131585   7.253   7.712   4.973
 6518SOL    HW231586   7.334   7.616   4.868
 6519SOL     OW31587   5.464   4.120   6.650
 6519SOL    HW131588   5.524   4.047   6.619
 6519SOL    HW231589   5.506   4.209   6.630
 6520SOL     OW31590   8.614   0.800   5.970
 6520SOL    HW131591   8.518   0.821   5.992
 6520SOL    HW231592   8.647   0.865   5.901
 6521SOL     OW31593   3.614   0.137   1.290
 6521SOL    HW131594   3.594   0.039   1.283
 6521SOL    HW231595   3.534   0.190   1.262
 6522SOL     OW31596   3.854   3.681   0.778
 6522SOL    HW131597   3.787   3.610   0.799
 6522SOL    HW231598   3.808   3.754   0.727
 6523SOL     OW31599   8.162   4.360   0.934
 6523SOL    HW131600   8.173   4.364   0.835
 6523SOL    HW231601   8.236   4.305   0.974
 6524SOL     OW31602   4.257   1.885   0.968
 6524SOL    HW131603   4.266   1.804   1.025
 6524SOL    HW231604   4.162   1.917   0.970
 6525SOL     OW31605   3.772   0.802   6.282
 6525SOL    HW131606   3.821   0.717   6.304
 6525SOL    HW231607   3.680   0.798   6.321
 6526SOL     OW31608   2.433   8.182   6.092
 6526SOL    HW131609   2.500   8.204   6.163
 6526SOL    HW231610   2.478   8.186   6.002
 6527SOL     OW31611   4.413   8.125   1.160
 6527SOL    HW131612   4.340   8.116   1.092
 6527SOL    HW231613   4.407   8.050   1.225
 6528SOL     OW31614   2.753   3.709   6.278
 6528SOL    HW131615   2.694   3.783   6.247
 6528SOL    HW231616   2.846   3.723   6.244
 6529SOL     OW31617   3.922   2.297   5.602
 6529SOL    HW131618   3.825   2.275   5.598
 6529SOL    HW231619   3.968   2.264   5.520
 6530SOL     OW31620   5.191   4.703   1.315
 6530SOL    HW131621   5.209   4.796   1.283
 6530SOL    HW231622   5.126   4.706   1.391
 6531SOL     OW31623   4.134   7.501   1.299
 6531SOL    HW131624   4.207   7.519   1.364
 6531SOL    HW231625   4.058   7.455   1.345
 6532SOL     OW31626   6.688   1.456   1.328
 6532SOL    HW131627   6.603   1.404   1.318
 6532SOL    HW231628   6.708   1.467   1.425
 6533SOL     OW31629   1.275   0.849   0.161
 6533SOL    HW131630   1.282   0.750   0.160
 6533SOL    HW231631   1.301   0.886   0.072
 6534SOL     OW31632   7.349   2.346   6.511
 6534SOL    HW131633   7.441   2.349   6.470
 6534SOL    HW231634   7.348   2.277   6.584
 6535SOL     OW31635   8.040   3.127   0.241
 6535SOL    HW131636   8.086   3.061   0.300
 6535SOL    HW231637   7.942   3.125   0.258
 6536SOL     OW31638   4.017   1.910   0.046
 6536SOL    HW131639   4.032   1.845   0.120
 6536SOL    HW231640   3.958   1.983   0.077
 6537SOL     OW31641   6.277   6.197   0.390
 6537SOL    HW131642   6.303   6.151   0.305
 6537SOL    HW231643   6.356   6.244   0.428
 6538SOL     OW31644   3.041   1.124   2.049
 6538SOL    HW131645   2.962   1.175   2.016
 6538SOL    HW231646   3.084   1.076   1.972
 6539SOL     OW31647   0.078   7.385   4.871
 6539SOL    HW131648  -0.001   7.442   4.849
 6539SOL    HW231649   0.128   7.363   4.787
 6540SOL     OW31650   2.261   7.878   5.794
 6540SOL    HW131651   2.357   7.892   5.816
 6540SOL    HW231652   2.214   7.966   5.790
 6541SOL     OW31653   4.191   3.344   0.260
 6541SOL    HW131654   4.191   3.419   0.193
 6541SOL    HW231655   4.286   3.319   0.281
 6542SOL     OW31656   7.606   0.243   0.616
 6542SOL    HW131657   7.685   0.265   0.674
 6542SOL    HW231658   7.582   0.323   0.561
 6543SOL     OW31659   7.899   0.169   0.087
 6543SOL    HW131660   7.819   0.131   0.041
 6543SOL    HW231661   7.971   0.187   0.019
 6544SOL     OW31662   0.715   4.449   6.249
 6544SOL    HW131663   0.746   4.429   6.156
 6544SOL    HW231664   0.713   4.548   6.263
 6545SOL     OW31665   6.098   5.510   1.456
 6545SOL    HW131666   6.087   5.450   1.535
 6545SOL    HW231667   6.129   5.601   1.486
 6546SOL     OW31668   1.625   0.249   1.921
 6546SOL    HW131669   1.535   0.293   1.917
 6546SOL    HW231670   1.653   0.223   1.829
 6547SOL     OW31671   0.644   6.792   0.581
 6547SOL    HW131672   0.718   6.834   0.632
 6547SOL    HW231673   0.652   6.692   0.588
 6548SOL     OW31674   0.392   2.420   5.840
 6548SOL    HW131675   0.363   2.494   5.780
 6548SOL    HW231676   0.334   2.339   5.825
 6549SOL     OW31677   2.537   0.733   0.394
 6549SOL    HW131678   2.465   0.664   0.396
 6549SOL    HW231679   2.623   0.691   0.367
 6550SOL     OW31680   0.713   6.435   5.404
 6550SOL    HW131681   0.792   6.496   5.411
 6550SOL    HW231682   0.744   6.342   5.383
 6551SOL     OW31683   6.008   7.670   0.659
 6551SOL    HW131684   6.060   7.715   0.730
 6551SOL    HW231685   5.938   7.733   0.623
 6552SOL     OW31686   3.347   0.739   0.868
 6552SOL    HW131687   3.364   0.829   0.910
 6552SOL    HW231688   3.249   0.721   0.868
 6553SOL     OW31689   9.274   4.062   6.002
 6553SOL    HW131690   9.363   4.058   5.955
 6553SOL    HW231691   9.225   3.976   5.986
 6554SOL     OW31692   1.877   3.255   6.511
 6554SOL    HW131693   1.855   3.306   6.594
 6554SOL    HW231694   1.977   3.244   6.505
 6555SOL     OW31695   0.981   5.041   0.777
 6555SOL    HW131696   1.002   5.006   0.686
 6555SOL    HW231697   0.950   4.966   0.836
 6556SOL     OW31698   8.009   0.085   6.342
 6556SOL    HW131699   7.954   0.001   6.349
 6556SOL    HW231700   7.952   0.159   6.306
 6557SOL     OW31701   5.965   2.816   0.143
 6557SOL    HW131702   6.064   2.803   0.139
 6557SOL    HW231703   5.945   2.910   0.174
 6558SOL     OW31704   1.542   5.736   0.670
 6558SOL    HW131705   1.468   5.762   0.733
 6558SOL    HW231706   1.525   5.778   0.581
 6559SOL     OW31707   6.779   8.376   0.914
 6559SOL    HW131708   6.696   8.362   0.859
 6559SOL    HW231709   6.858   8.338   0.866
 6560SOL     OW31710   6.501   7.433   5.041
 6560SOL    HW131711   6.555   7.367   4.989
 6560SOL    HW231712   6.466   7.389   5.123
 6561SOL     OW31713   5.204   5.304   6.123
 6561SOL    HW131714   5.114   5.295   6.080
 6561SOL    HW231715   5.195   5.290   6.221
 6562SOL     OW31716   4.541   4.369   6.275
 6562SOL    HW131717   4.463   4.427   6.248
 6562SOL    HW231718   4.600   4.420   6.337
 6563SOL     OW31719   2.680   2.551   6.496
 6563SOL    HW131720   2.697   2.601   6.581
 6563SOL    HW231721   2.766   2.511   6.464
 6564SOL     OW31722   5.494   6.409   6.683
 6564SOL    HW131723   5.430   6.481   6.712
 6564SOL    HW231724   5.576   6.412   6.740
 6565SOL     OW31725   0.100   0.875   5.424
 6565SOL    HW131726   0.080   0.781   5.396
 6565SOL    HW231727   0.154   0.874   5.508
 6566SOL     OW31728   2.454   1.608   1.110
 6566SOL    HW131729   2.399   1.677   1.063
 6566SOL    HW231730   2.439   1.615   1.209
 6567SOL     OW31731   7.595   6.089   1.301
 6567SOL    HW131732   7.605   6.043   1.389
 6567SOL    HW231733   7.640   6.178   1.305
 6568SOL     OW31734   8.794   7.447   0.011
 6568SOL    HW131735   8.846   7.369  -0.022
 6568SOL    HW231736   8.857   7.519   0.040
 6569SOL     OW31737   8.741   3.334   0.781
 6569SOL    HW131738   8.681   3.314   0.858
 6569SOL    HW231739   8.797   3.254   0.760
 6570SOL     OW31740   6.275   1.529   6.732
 6570SOL    HW131741   6.336   1.608   6.733
 6570SOL    HW231742   6.181   1.560   6.716
 6571SOL     OW31743   8.020   7.200   1.400
 6571SOL    HW131744   8.056   7.216   1.492
 6571SOL    HW231745   8.054   7.271   1.338
 6572SOL     OW31746   2.470   5.853   0.077
 6572SOL    HW131747   2.512   5.851   0.168
 6572SOL    HW231748   2.529   5.905   0.015
 6573SOL     OW31749   6.284   5.643   0.796
 6573SOL    HW131750   6.333   5.652   0.883
 6573SOL    HW231751   6.341   5.595   0.730
 6574SOL     OW31752   1.989   0.420   5.649
 6574SOL    HW131753   1.945   0.509   5.654
 6574SOL    HW231754   2.080   0.429   5.608
 6575SOL     OW31755   8.311   1.799   1.360
 6575SOL    HW131756   8.383   1.867   1.345
 6575SOL    HW231757   8.352   1.715   1.397
 6576SOL     OW31758   3.199   1.256   6.458
 6576SOL    HW131759   3.134   1.183   6.478
 6576SOL    HW231760   3.233   1.295   6.543
 6577SOL     OW31761   5.839   4.483   0.173
 6577SOL    HW131762   5.849   4.402   0.116
 6577SOL    HW231763   5.809   4.457   0.264
 6578SOL     OW31764   7.073   8.363   5.727
 6578SOL    HW131765   7.099   8.420   5.649
 6578SOL    HW231766   6.985   8.319   5.708
 6579SOL     OW31767   4.347   6.285   0.905
 6579SOL    HW131768   4.320   6.353   0.837
 6579SOL    HW231769   4.278   6.281   0.977
 6580SOL     OW31770   7.247   2.866   6.468
 6580SOL    HW131771   7.179   2.939   6.472
 6580SOL    HW231772   7.246   2.814   6.553
 6581SOL     OW31773   5.078   8.080   5.896
 6581SOL    HW131774   5.140   8.007   5.867
 6581SOL    HW231775   5.131   8.156   5.933
 6582SOL     OW31776   7.316   6.999   5.729
 6582SOL    HW131777   7.355   7.029   5.816
 6582SOL    HW231778   7.379   6.935   5.684
 6583SOL     OW31779   1.025   3.432   6.251
 6583SOL    HW131780   1.087   3.459   6.325
 6583SOL    HW231781   0.959   3.365   6.285
 6584SOL     OW31782   7.746   7.396   5.803
 6584SOL    HW131783   7.710   7.329   5.867
 6584SOL    HW231784   7.793   7.469   5.854
 6585SOL     OW31785   3.910   2.140   2.096
 6585SOL    HW131786   3.933   2.117   2.191
 6585SOL    HW231787   3.967   2.217   2.066
 6586SOL     OW31788   6.860   4.066   6.482
 6586SOL    HW131789   6.793   4.060   6.556
 6586SOL    HW231790   6.949   4.033   6.515
 6587SOL     OW31791   3.103   3.185   1.092
 6587SOL    HW131792   3.159   3.112   1.130
 6587SOL    HW231793   3.006   3.166   1.110
 6588SOL     OW31794   4.766   5.926   0.764
 6588SOL    HW131795   4.758   6.026   0.767
 6588SOL    HW231796   4.720   5.887   0.844
 6589SOL     OW31797   7.742   1.254   6.328
 6589SOL    HW131798   7.819   1.228   6.269
 6589SOL    HW231799   7.684   1.175   6.344
 6590SOL     OW31800   3.989   3.159   5.191
 6590SOL    HW131801   3.963   3.139   5.285
 6590SOL    HW231802   3.910   3.147   5.131
 6591SOL     OW31803   7.511   7.392   1.151
 6591SOL    HW131804   7.575   7.451   1.101
 6591SOL    HW231805   7.560   7.341   1.222
 6592SOL     OW31806   0.878   4.791   1.205
 6592SOL    HW131807   0.937   4.738   1.266
 6592SOL    HW231808   0.792   4.811   1.251
 6593SOL     OW31809   1.433   4.302   0.443
 6593SOL    HW131810   1.335   4.312   0.457
 6593SOL    HW231811   1.450   4.276   0.348
 6594SOL     OW31812   8.012   2.360   6.148
 6594SOL    HW131813   8.049   2.426   6.214
 6594SOL    HW231814   8.060   2.273   6.157
 6595SOL     OW31815   6.215   4.698   1.039
 6595SOL    HW131816   6.121   4.680   1.070
 6595SOL    HW231817   6.213   4.750   0.954
 6596SOL     OW31818   7.428   5.466   5.901
 6596SOL    HW131819   7.448   5.470   5.999
 6596SOL    HW231820   7.343   5.415   5.887
 6597SOL     OW31821   8.722   4.515   6.489
 6597SOL    HW131822   8.626   4.534   6.510
 6597SOL    HW231823   8.758   4.586   6.428
 6598SOL     OW31824   9.273   3.462   5.447
 6598SOL    HW131825   9.331   3.439   5.369
 6598SOL    HW231826   9.210   3.536   5.421
 6599SOL     OW31827   7.755   5.014   6.283
 6599SOL    HW131828   7.742   5.093   6.223
 6599SOL    HW231829   7.776   4.933   6.229
 6600SOL     OW31830   2.109   8.420   5.235
 6600SOL    HW131831   2.056   8.348   5.191
 6600SOL    HW231832   2.161   8.470   5.165
 6601SOL     OW31833   2.463   4.355   5.753
 6601SOL    HW131834   2.489   4.330   5.659
 6601SOL    HW231835   2.517   4.301   5.817
 6602SOL     OW31836   0.422   1.056   6.703
 6602SOL    HW131837   0.481   0.998   6.646
 6602SOL    HW231838   0.406   1.143   6.656
 6603SOL     OW31839   6.773   2.338   0.702
 6603SOL    HW131840   6.831   2.304   0.628
 6603SOL    HW231841   6.745   2.433   0.681
 6604SOL     OW31842   7.035   1.750   0.834
 6604SOL    HW131843   7.075   1.836   0.864
 6604SOL    HW231844   6.952   1.768   0.781
 6605SOL     OW31845   2.160   2.210   5.818
 6605SOL    HW131846   2.150   2.274   5.742
 6605SOL    HW231847   2.104   2.242   5.895
 6606SOL     OW31848   8.162   4.995   1.275
 6606SOL    HW131849   8.120   5.071   1.325
 6606SOL    HW231850   8.226   5.031   1.207
 6607SOL     OW31851   0.718   2.249   0.134
 6607SOL    HW131852   0.742   2.221   0.227
 6607SOL    HW231853   0.801   2.274   0.084
 6608SOL     OW31854   3.949   0.541   0.982
 6608SOL    HW131855   3.941   0.559   1.080
 6608SOL    HW231856   3.866   0.572   0.936
 6609SOL     OW31857   0.077   2.444   6.279
 6609SOL    HW131858  -0.010   2.434   6.229
 6609SOL    HW231859   0.080   2.377   6.354
 6610SOL     OW31860   4.612   6.925   1.333
 6610SOL    HW131861   4.590   6.918   1.430
 6610SOL    HW231862   4.657   6.840   1.303
 6611SOL     OW31863   4.199   3.416   0.545
 6611SOL    HW131864   4.281   3.471   0.561
 6611SOL    HW231865   4.187   3.402   0.447
 6612SOL     OW31866   2.100   3.161   6.157
 6612SOL    HW131867   2.075   3.250   6.119
 6612SOL    HW231868   2.018   3.104   6.167
 6613SOL     OW31869   2.355   5.453   0.245
 6613SOL    HW131870   2.280   5.425   0.186
 6613SOL    HW231871   2.386   5.375   0.299
 6614SOL     OW31872   2.608   3.547   6.092
 6614SOL    HW131873   2.669   3.563   6.169
 6614SOL    HW231874   2.605   3.628   6.033
 6615SOL     OW31875   1.682   0.587   6.189
 6615SOL    HW131876   1.625   0.649   6.135
 6615SOL    HW231877   1.768   0.633   6.212
 6616SOL     OW31878   1.479   4.181   0.889
 6616SOL    HW131879   1.468   4.185   0.988
 6616SOL    HW231880   1.396   4.144   0.847
 6617SOL     OW31881   0.969   2.091   6.411
 6617SOL    HW131882   0.964   1.996   6.442
 6617SOL    HW231883   0.899   2.107   6.341
 6618SOL     OW31884   4.096   5.478   5.467
 6618SOL    HW131885   4.116   5.498   5.371
 6618SOL    HW231886   4.105   5.380   5.484
 6619SOL     OW31887   5.072   6.561   5.897
 6619SOL    HW131888   4.979   6.526   5.887
 6619SOL    HW231889   5.074   6.631   5.968
 6620SOL     OW31890   1.006   6.625   0.623
 6620SOL    HW131891   1.104   6.609   0.611
 6620SOL    HW231892   0.978   6.599   0.716
 6621SOL     OW31893   0.877   1.773   0.308
 6621SOL    HW131894   0.800   1.770   0.371
 6621SOL    HW231895   0.843   1.782   0.214
 6622SOL     OW31896   1.495   2.946   0.006
 6622SOL    HW131897   1.460   2.861   0.045
 6622SOL    HW231898   1.570   2.925  -0.057
 6623SOL     OW31899   3.569   5.862   6.267
 6623SOL    HW131900   3.517   5.944   6.244
 6623SOL    HW231901   3.630   5.882   6.344
 6624SOL     OW31902   1.586   3.856   0.983
 6624SOL    HW131903   1.515   3.901   1.037
 6624SOL    HW231904   1.613   3.770   1.027
 6625SOL     OW31905   8.717   6.392   5.356
 6625SOL    HW131906   8.697   6.298   5.327
 6625SOL    HW231907   8.805   6.420   5.317
 6626SOL     OW31908   2.180   1.908   6.722
 6626SOL    HW131909   2.260   1.893   6.780
 6626SOL    HW231910   2.121   1.977   6.764
 6627SOL     OW31911   3.131   3.784   1.679
 6627SOL    HW131912   3.135   3.882   1.658
 6627SOL    HW231913   3.049   3.745   1.637
 6628SOL     OW31914   6.037   1.523   0.424
 6628SOL    HW131915   6.013   1.523   0.327
 6628SOL    HW231916   5.959   1.555   0.478
 6629SOL     OW31917   4.479   7.163   1.301
 6629SOL    HW131918   4.505   7.066   1.302
 6629SOL    HW231919   4.454   7.192   1.393
 6630SOL     OW31920   6.606   1.542   2.204
 6630SOL    HW131921   6.522   1.597   2.212
 6630SOL    HW231922   6.682   1.601   2.176
 6631SOL     OW31923   2.944   2.067   6.270
 6631SOL    HW131924   2.892   1.987   6.240
 6631SOL    HW231925   2.921   2.089   6.365
 6632SOL     OW31926   5.172   1.791   0.927
 6632SOL    HW131927   5.220   1.704   0.941
 6632SOL    HW231928   5.090   1.775   0.871
 6633SOL     OW31929   8.727   8.392   6.543
 6633SOL    HW131930   8.637   8.365   6.507
 6633SOL    HW231931   8.749   8.335   6.622
 6634SOL     OW31932   4.262   0.873   5.345
 6634SOL    HW131933   4.343   0.870   5.286
 6634SOL    HW231934   4.228   0.780   5.358
 6635SOL     OW31935   6.176   6.713   5.388
 6635SOL    HW131936   6.227   6.628   5.405
 6635SOL    HW231937   6.082   6.690   5.360
 6636SOL     OW31938   2.423   8.282   6.548
 6636SOL    HW131939   2.334   8.320   6.521
 6636SOL    HW231940   2.448   8.318   6.639
 6637SOL     OW31941   1.699   5.527   6.076
 6637SOL    HW131942   1.780   5.538   6.018
 6637SOL    HW231943   1.670   5.431   6.076
 6638SOL     OW31944   3.074   1.961   0.108
 6638SOL    HW131945   3.172   1.981   0.106
 6638SOL    HW231946   3.061   1.862   0.119
 6639SOL     OW31947   5.785   5.054   6.286
 6639SOL    HW131948   5.860   4.992   6.307
 6639SOL    HW231949   5.727   5.064   6.367
 6640SOL     OW31950   3.846   8.449   1.223
 6640SOL    HW131951   3.806   8.416   1.137
 6640SOL    HW231952   3.808   8.539   1.245
 6641SOL     OW31953   5.258   6.555   0.628
 6641SOL    HW131954   5.254   6.562   0.728
 6641SOL    HW231955   5.314   6.477   0.602
 6642SOL     OW31956   2.492   7.804   0.785
 6642SOL    HW131957   2.540   7.720   0.812
 6642SOL    HW231958   2.394   7.794   0.803
 6643SOL     OW31959   3.050   4.105   0.533
 6643SOL    HW131960   3.070   4.118   0.630
 6643SOL    HW231961   3.067   4.191   0.483
 6644SOL     OW31962   9.392   4.166   6.642
 6644SOL    HW131963   9.445   4.240   6.683
 6644SOL    HW231964   9.419   4.078   6.682
 6645SOL     OW31965   1.740   3.734   6.271
 6645SOL    HW131966   1.825   3.781   6.294
 6645SOL    HW231967   1.759   3.655   6.213
 6646SOL     OW31968   7.430   7.686   6.279
 6646SOL    HW131969   7.428   7.765   6.217
 6646SOL    HW231970   7.448   7.603   6.226
 6647SOL     OW31971   4.537   7.677   0.368
 6647SOL    HW131972   4.624   7.689   0.416
 6647SOL    HW231973   4.547   7.704   0.273
 6648SOL     OW31974   7.169   3.762   5.849
 6648SOL    HW131975   7.163   3.825   5.771
 6648SOL    HW231976   7.253   3.708   5.841
 6649SOL     OW31977   1.673   0.571   5.528
 6649SOL    HW131978   1.690   0.662   5.565
 6649SOL    HW231979   1.684   0.503   5.600
 6650SOL     OW31980   8.043   1.042   5.274
 6650SOL    HW131981   8.014   0.974   5.207
 6650SOL    HW231982   8.143   1.046   5.276
 6651SOL     OW31983   3.027   5.778   5.407
 6651SOL    HW131984   2.957   5.839   5.368
 6651SOL    HW231985   3.062   5.819   5.491
 6652SOL     OW31986   2.783   0.551   0.380
 6652SOL    HW131987   2.808   0.526   0.474
 6652SOL    HW231988   2.761   0.468   0.329
 6653SOL     OW31989   2.697   7.172   5.331
 6653SOL    HW131990   2.689   7.195   5.428
 6653SOL    HW231991   2.769   7.104   5.319
 6654SOL     OW31992   8.525   4.481   1.261
 6654SOL    HW131993   8.427   4.498   1.250
 6654SOL    HW231994   8.559   4.529   1.342
 6655SOL     OW31995   8.491   7.435   6.359
 6655SOL    HW131996   8.425   7.423   6.286
 6655SOL    HW231997   8.453   7.495   6.430
 6656SOL     OW31998   0.048   6.330   6.204
 6656SOL    HW131999  -0.051   6.335   6.210
 6656SOL    HW232000   0.075   6.309   6.110
 6657SOL     OW32001   0.859   1.262   6.198
 6657SOL    HW132002   0.922   1.316   6.254
 6657SOL    HW232003   0.853   1.303   6.107
 6658SOL     OW32004   1.030   8.387   5.225
 6658SOL    HW132005   1.022   8.294   5.260
 6658SOL    HW232006   0.963   8.445   5.271
 6659SOL     OW32007   2.882   4.109   6.499
 6659SOL    HW132008   2.816   4.063   6.558
 6659SOL    HW232009   2.844   4.120   6.407
 6660SOL     OW32010   4.061   4.287   0.681
 6660SOL    HW132011   4.069   4.189   0.662
 6660SOL    HW232012   4.119   4.310   0.759
 6661SOL     OW32013   0.413   0.347   6.053
 6661SOL    HW132014   0.384   0.295   6.134
 6661SOL    HW232015   0.511   0.368   6.061
 6662SOL     OW32016   9.210   3.822   1.213
 6662SOL    HW132017   9.249   3.763   1.283
 6662SOL    HW232018   9.202   3.915   1.249
 6663SOL     OW32019   3.170   5.464   4.661
 6663SOL    HW132020   3.207   5.377   4.693
 6663SOL    HW232021   3.078   5.477   4.699
 6664SOL     OW32022   7.716   4.588   0.392
 6664SOL    HW132023   7.765   4.659   0.341
 6664SOL    HW232024   7.760   4.575   0.481
 6665SOL     OW32025   9.351   5.246   0.087
 6665SOL    HW132026   9.286   5.197   0.145
 6665SOL    HW232027   9.305   5.326   0.046
 6666SOL     OW32028   6.553   3.680   1.823
 6666SOL    HW132029   6.456   3.699   1.805
 6666SOL    HW232030   6.566   3.661   1.920
 6667SOL     OW32031   4.340   7.899   5.988
 6667SOL    HW132032   4.361   7.883   5.892
 6667SOL    HW232033   4.425   7.899   6.041
 6668SOL     OW32034   0.041   4.298   6.299
 6668SOL    HW132035  -0.038   4.238   6.289
 6668SOL    HW232036   0.103   4.285   6.222
 6669SOL     OW32037   0.047   7.107   0.296
 6669SOL    HW132038   0.100   7.070   0.372
 6669SOL    HW232039   0.089   7.192   0.264
 6670SOL     OW32040   2.504   6.959   0.247
 6670SOL    HW132041   2.459   6.901   0.179
 6670SOL    HW232042   2.506   6.911   0.335
 6671SOL     OW32043   1.151   7.270   1.205
 6671SOL    HW132044   1.141   7.345   1.270
 6671SOL    HW232045   1.234   7.218   1.227
 6672SOL     OW32046   5.360   2.698   0.945
 6672SOL    HW132047   5.388   2.620   1.001
 6672SOL    HW232048   5.420   2.776   0.963
 6673SOL     OW32049   5.722   4.381   1.245
 6673SOL    HW132050   5.803   4.423   1.285
 6673SOL    HW232051   5.699   4.297   1.295
 6674SOL     OW32052   4.072   1.569   0.026
 6674SOL    HW132053   4.165   1.536   0.013
 6674SOL    HW232054   4.037   1.604  -0.061
 6675SOL     OW32055   7.057   3.073   6.460
 6675SOL    HW132056   7.070   3.166   6.427
 6675SOL    HW232057   6.978   3.032   6.415
 6676SOL     OW32058   7.754   3.000   1.329
 6676SOL    HW132059   7.675   3.008   1.389
 6676SOL    HW232060   7.838   3.006   1.383
 6677SOL     OW32061   4.103   6.207   1.342
 6677SOL    HW132062   4.187   6.176   1.386
 6677SOL    HW232063   4.026   6.151   1.373
 6678SOL     OW32064   8.329   6.927   6.492
 6678SOL    HW132065   8.252   6.935   6.555
 6678SOL    HW232066   8.371   7.017   6.480
 6679SOL     OW32067   3.485   8.349   0.103
 6679SOL    HW132068   3.494   8.261   0.056
 6679SOL    HW232069   3.537   8.419   0.053
 6680SOL     OW32070   4.224   3.483   6.146
 6680SOL    HW132071   4.153   3.490   6.076
 6680SOL    HW232072   4.187   3.510   6.234
 6681SOL     OW32073   8.437   4.750   6.023
 6681SOL    HW132074   8.437   4.714   6.116
 6681SOL    HW232075   8.526   4.790   6.002
 6682SOL     OW32076   7.792   8.130   1.851
 6682SOL    HW132077   7.789   8.041   1.897
 6682SOL    HW232078   7.758   8.200   1.913
 6683SOL     OW32079   2.287   7.708   5.557
 6683SOL    HW132080   2.281   7.794   5.608
 6683SOL    HW232081   2.220   7.643   5.593
 6684SOL     OW32082   1.405   5.590   5.935
 6684SOL    HW132083   1.461   5.573   6.016
 6684SOL    HW232084   1.395   5.505   5.883
 6685SOL     OW32085   4.947   5.652   0.232
 6685SOL    HW132086   4.859   5.699   0.228
 6685SOL    HW232087   4.954   5.603   0.319
 6686SOL     OW32088   8.539   5.088   5.590
 6686SOL    HW132089   8.509   5.166   5.536
 6686SOL    HW232090   8.472   5.069   5.661
 6687SOL     OW32091   7.486   5.887   5.586
 6687SOL    HW132092   7.407   5.948   5.574
 6687SOL    HW232093   7.474   5.833   5.669
 6688SOL     OW32094   5.372   0.475   6.191
 6688SOL    HW132095   5.403   0.383   6.166
 6688SOL    HW232096   5.352   0.527   6.107
 6689SOL     OW32097   4.041   8.459   5.494
 6689SOL    HW132098   4.117   8.411   5.449
 6689SOL    HW232099   4.050   8.558   5.477
 6690SOL     OW32100   0.828   7.378   0.509
 6690SOL    HW132101   0.741   7.403   0.466
 6690SOL    HW232102   0.814   7.298   0.568
 6691SOL     OW32103   3.240   2.869   0.169
 6691SOL    HW132104   3.218   2.957   0.212
 6691SOL    HW232105   3.220   2.874   0.071
 6692SOL     OW32106   1.142   1.775   1.199
 6692SOL    HW132107   1.140   1.692   1.144
 6692SOL    HW232108   1.225   1.827   1.180
 6693SOL     OW32109   4.095   7.123   6.318
 6693SOL    HW132110   4.170   7.059   6.335
 6693SOL    HW232111   4.024   7.079   6.263
 6694SOL     OW32112   1.553   4.740   5.353
 6694SOL    HW132113   1.546   4.805   5.278
 6694SOL    HW232114   1.499   4.658   5.331
 6695SOL     OW32115   3.193   0.528   1.290
 6695SOL    HW132116   3.290   0.505   1.288
 6695SOL    HW232117   3.154   0.500   1.377
 6696SOL     OW32118   5.965   0.552   1.063
 6696SOL    HW132119   5.957   0.603   0.977
 6696SOL    HW232120   6.049   0.579   1.110
 6697SOL     OW32121   8.488   7.554   4.319
 6697SOL    HW132122   8.485   7.462   4.356
 6697SOL    HW232123   8.534   7.553   4.230
 6698SOL     OW32124   6.874   5.175   0.985
 6698SOL    HW132125   6.960   5.125   0.988
 6698SOL    HW232126   6.885   5.262   1.034
 6699SOL     OW32127   8.343   5.848   5.785
 6699SOL    HW132128   8.439   5.818   5.791
 6699SOL    HW232129   8.323   5.874   5.690
 6700SOL     OW32130   9.200   7.284   6.438
 6700SOL    HW132131   9.182   7.240   6.350
 6700SOL    HW232132   9.226   7.379   6.424
 6701SOL     OW32133   6.671   1.521   5.803
 6701SOL    HW132134   6.648   1.558   5.712
 6701SOL    HW232135   6.671   1.421   5.799
 6702SOL     OW32136   9.104   3.717   0.759
 6702SOL    HW132137   9.155   3.763   0.832
 6702SOL    HW232138   9.015   3.687   0.795
 6703SOL     OW32139   0.263   3.886   5.888
 6703SOL    HW132140   0.314   3.910   5.805
 6703SOL    HW232141   0.284   3.792   5.914
 6704SOL     OW32142   9.350   1.892   0.011
 6704SOL    HW132143   9.253   1.916   0.005
 6704SOL    HW232144   9.359   1.793   0.005
 6705SOL     OW32145   0.598   2.662   0.100
 6705SOL    HW132146   0.657   2.632   0.175
 6705SOL    HW232147   0.511   2.614   0.105
 6706SOL     OW32148   5.201   0.800   6.209
 6706SOL    HW132149   5.197   0.862   6.287
 6706SOL    HW232150   5.252   0.844   6.135
 6707SOL     OW32151   0.600   6.557   0.814
 6707SOL    HW132152   0.545   6.480   0.847
 6707SOL    HW232153   0.600   6.630   0.882
 6708SOL     OW32154   1.770   4.648   0.947
 6708SOL    HW132155   1.754   4.687   0.856
 6708SOL    HW232156   1.719   4.700   1.015
 6709SOL     OW32157   1.233   3.341   6.109
 6709SOL    HW132158   1.158   3.394   6.149
 6709SOL    HW232159   1.239   3.360   6.011
 6710SOL     OW32160   5.338   7.210   5.859
 6710SOL    HW132161   5.301   7.149   5.789
 6710SOL    HW232162   5.437   7.215   5.849
 6711SOL     OW32163   8.973   6.413   5.952
 6711SOL    HW132164   9.061   6.451   5.979
 6711SOL    HW232165   8.908   6.422   6.027
 6712SOL     OW32166   4.740   2.691   0.491
 6712SOL    HW132167   4.802   2.769   0.483
 6712SOL    HW232168   4.676   2.706   0.566
 6713SOL     OW32169   5.871   6.394   4.929
 6713SOL    HW132170   5.806   6.323   4.904
 6713SOL    HW232171   5.826   6.462   4.987
 6714SOL     OW32172   6.288   4.310   6.456
 6714SOL    HW132173   6.247   4.273   6.540
 6714SOL    HW232174   6.215   4.334   6.392
 6715SOL     OW32175   3.248   1.226   1.163
 6715SOL    HW132176   3.294   1.300   1.213
 6715SOL    HW232177   3.317   1.170   1.117
 6716SOL     OW32178   1.920   8.304   0.274
 6716SOL    HW132179   1.842   8.284   0.215
 6716SOL    HW232180   1.982   8.226   0.275
 6717SOL     OW32181   7.828   1.373   0.189
 6717SOL    HW132182   7.810   1.467   0.158
 6717SOL    HW232183   7.768   1.310   0.141
 6718SOL     OW32184   1.873   5.630   0.080
 6718SOL    HW132185   1.837   5.722   0.098
 6718SOL    HW232186   1.921   5.596   0.161
 6719SOL     OW32187   8.675   8.268   6.014
 6719SOL    HW132188   8.616   8.241   6.090
 6719SOL    HW232189   8.642   8.225   5.930
 6720SOL     OW32190   2.102   1.212   0.925
 6720SOL    HW132191   2.034   1.166   0.982
 6720SOL    HW232192   2.157   1.272   0.982
 6721SOL     OW32193   2.898   0.781   0.273
 6721SOL    HW132194   2.895   0.683   0.291
 6721SOL    HW232195   2.983   0.819   0.310
 6722SOL     OW32196   2.455   7.350   6.175
 6722SOL    HW132197   2.377   7.388   6.125
 6722SOL    HW232198   2.424   7.284   6.243
 6723SOL     OW32199   8.941   1.186   0.153
 6723SOL    HW132200   8.859   1.188   0.095
 6723SOL    HW232201   8.978   1.093   0.153
 6724SOL     OW32202   7.071   7.374   1.280
 6724SOL    HW132203   7.094   7.280   1.305
 6724SOL    HW232204   7.011   7.413   1.351
 6725SOL     OW32205   3.588   4.062   6.638
 6725SOL    HW132206   3.640   4.134   6.593
 6725SOL    HW232207   3.493   4.093   6.651
 6726SOL     OW32208   5.876   0.902   5.390
 6726SOL    HW132209   5.778   0.904   5.369
 6726SOL    HW232210   5.923   0.969   5.333
 6727SOL     OW32211   3.534   0.436   6.562
 6727SOL    HW132212   3.457   0.410   6.619
 6727SOL    HW232213   3.508   0.431   6.466
 6728SOL     OW32214   8.904   7.412   5.808
 6728SOL    HW132215   8.837   7.424   5.881
 6728SOL    HW232216   8.986   7.466   5.827
 6729SOL     OW32217   1.415   4.752   5.806
 6729SOL    HW132218   1.316   4.763   5.811
 6729SOL    HW232219   1.460   4.823   5.860
 6730SOL     OW32220   2.059   4.797   1.261
 6730SOL    HW132221   2.040   4.862   1.188
 6730SOL    HW232222   2.051   4.842   1.350
 6731SOL     OW32223   2.439   3.210   0.269
 6731SOL    HW132224   2.364   3.167   0.319
 6731SOL    HW232225   2.524   3.198   0.320
 6732SOL     OW32226   7.158   8.074   0.790
 6732SOL    HW132227   7.236   8.055   0.730
 6732SOL    HW232228   7.127   7.988   0.831
 6733SOL     OW32229   6.744   3.424   1.135
 6733SOL    HW132230   6.657   3.452   1.093
 6733SOL    HW232231   6.786   3.502   1.181
 6734SOL     OW32232   7.799   1.201   5.333
 6734SOL    HW132233   7.866   1.129   5.312
 6734SOL    HW232234   7.731   1.206   5.260
 6735SOL     OW32235   8.433   0.511   6.097
 6735SOL    HW132236   8.474   0.577   6.161
 6735SOL    HW232237   8.433   0.550   6.005
 6736SOL     OW32238   1.911   3.160   0.588
 6736SOL    HW132239   2.007   3.173   0.563
 6736SOL    HW232240   1.905   3.135   0.685
 6737SOL     OW32241   2.035   1.056   0.306
 6737SOL    HW132242   1.991   1.047   0.217
 6737SOL    HW232243   2.135   1.051   0.294
 6738SOL     OW32244   3.118   1.312   1.692
 6738SOL    HW132245   3.182   1.388   1.678
 6738SOL    HW232246   3.033   1.348   1.731
 6739SOL     OW32247   6.107   6.187   6.195
 6739SOL    HW132248   6.201   6.178   6.228
 6739SOL    HW232249   6.096   6.275   6.149
 6740SOL     OW32250   7.400   1.615   0.254
 6740SOL    HW132251   7.411   1.655   0.345
 6740SOL    HW232252   7.345   1.676   0.196
 6741SOL     OW32253   3.601   4.859   1.737
 6741SOL    HW132254   3.512   4.885   1.774
 6741SOL    HW232255   3.657   4.818   1.809
 6742SOL     OW32256   5.988   3.952   0.430
 6742SOL    HW132257   5.924   3.973   0.356
 6742SOL    HW232258   6.001   3.853   0.436
 6743SOL     OW32259   9.430   5.308   1.127
 6743SOL    HW132260   9.428   5.394   1.179
 6743SOL    HW232261   9.520   5.266   1.135
 6744SOL     OW32262   0.865   2.894   6.059
 6744SOL    HW132263   0.809   2.844   6.125
 6744SOL    HW232264   0.806   2.947   5.998
 6745SOL     OW32265   6.879   7.479   6.505
 6745SOL    HW132266   6.944   7.510   6.435
 6745SOL    HW232267   6.838   7.559   6.550
 6746SOL     OW32268   4.252   0.905   0.358
 6746SOL    HW132269   4.167   0.866   0.323
 6746SOL    HW232270   4.327   0.842   0.340
 6747SOL     OW32271   8.174   2.275   6.413
 6747SOL    HW132272   8.193   2.180   6.435
 6747SOL    HW232273   8.146   2.324   6.495
 6748SOL     OW32274   7.272   7.629   0.847
 6748SOL    HW132275   7.211   7.695   0.892
 6748SOL    HW232276   7.270   7.543   0.899
 6749SOL     OW32277   4.627   0.836   6.138
 6749SOL    HW132278   4.686   0.909   6.172
 6749SOL    HW232279   4.600   0.777   6.213
 6750SOL     OW32280   7.648   5.446   5.408
 6750SOL    HW132281   7.675   5.444   5.312
 6750SOL    HW232282   7.607   5.535   5.429
 6751SOL     OW32283   4.031   1.280   1.621
 6751SOL    HW132284   3.975   1.284   1.703
 6751SOL    HW232285   4.009   1.197   1.569
 6752SOL     OW32286   6.870   1.886   1.823
 6752SOL    HW132287   6.873   1.893   1.723
 6752SOL    HW232288   6.798   1.821   1.850
 6753SOL     OW32289   3.907   5.719   0.533
 6753SOL    HW132290   3.986   5.777   0.555
 6753SOL    HW232291   3.925   5.668   0.449
 6754SOL     OW32292   6.045   5.320   5.538
 6754SOL    HW132293   5.965   5.320   5.598
 6754SOL    HW232294   6.124   5.359   5.587
 6755SOL     OW32295   4.300   1.725   1.380
 6755SOL    HW132296   4.334   1.814   1.409
 6755SOL    HW232297   4.212   1.735   1.335
 6756SOL     OW32298   6.079   7.468   5.019
 6756SOL    HW132299   5.995   7.519   5.035
 6756SOL    HW232300   6.157   7.531   5.020
 6757SOL     OW32301   4.819   6.027   5.594
 6757SOL    HW132302   4.843   5.985   5.506
 6757SOL    HW232303   4.721   6.050   5.593
 6758SOL     OW32304   8.836   6.671   6.521
 6758SOL    HW132305   8.737   6.675   6.506
 6758SOL    HW232306   8.883   6.676   6.433
 6759SOL     OW32307   7.746   3.306   0.366
 6759SOL    HW132308   7.808   3.384   0.361
 6759SOL    HW232309   7.662   3.334   0.412
 6760SOL     OW32310   6.311   6.942   5.440
 6760SOL    HW132311   6.406   6.929   5.469
 6760SOL    HW232312   6.263   6.854   5.441
 6761SOL     OW32313   5.666   3.309   0.733
 6761SOL    HW132314   5.670   3.229   0.794
 6761SOL    HW232315   5.595   3.371   0.765
 6762SOL     OW32316   7.053   2.320   1.728
 6762SOL    HW132317   7.067   2.223   1.708
 6762SOL    HW232318   6.974   2.330   1.789
 6763SOL     OW32319   0.546   7.367   0.120
 6763SOL    HW132320   0.450   7.385   0.101
 6763SOL    HW232321   0.563   7.376   0.218
 6764SOL     OW32322   0.805   5.188   4.798
 6764SOL    HW132323   0.818   5.270   4.742
 6764SOL    HW232324   0.796   5.108   4.739
 6765SOL     OW32325   4.030   4.428   0.056
 6765SOL    HW132326   4.059   4.346   0.106
 6765SOL    HW232327   4.068   4.427  -0.036
 6766SOL     OW32328   1.045   7.618   4.059
 6766SOL    HW132329   1.123   7.613   3.997
 6766SOL    HW232330   0.995   7.703   4.044
 6767SOL     OW32331   7.395   0.104   6.039
 6767SOL    HW132332   7.410   0.095   6.138
 6767SOL    HW232333   7.320   0.043   6.011
 6768SOL     OW32334   2.982   1.148   5.735
 6768SOL    HW132335   3.032   1.099   5.663
 6768SOL    HW232336   2.940   1.083   5.797
 6769SOL     OW32337   6.519   1.384   0.369
 6769SOL    HW132338   6.576   1.426   0.440
 6769SOL    HW232339   6.423   1.393   0.395
 6770SOL     OW32340   2.086   5.522   6.364
 6770SOL    HW132341   2.026   5.513   6.443
 6770SOL    HW232342   2.178   5.546   6.394
 6771SOL     OW32343   4.321   7.532   1.511
 6771SOL    HW132344   4.335   7.434   1.523
 6771SOL    HW232345   4.404   7.582   1.538
 6772SOL     OW32346   3.813   5.456   0.114
 6772SOL    HW132347   3.848   5.473   0.022
 6772SOL    HW232348   3.730   5.510   0.129
 6773SOL     OW32349   6.502   8.409   0.784
 6773SOL    HW132350   6.543   8.321   0.760
 6773SOL    HW232351   6.422   8.425   0.727
 6774SOL     OW32352   1.062   7.867   5.463
 6774SOL    HW132353   0.987   7.847   5.526
 6774SOL    HW232354   1.028   7.867   5.369
 6775SOL     OW32355   1.608   0.475   0.400
 6775SOL    HW132356   1.656   0.563   0.394
 6775SOL    HW232357   1.512   0.491   0.424
 6776SOL     OW32358   3.671   4.144   1.746
 6776SOL    HW132359   3.690   4.172   1.840
 6776SOL    HW232360   3.580   4.176   1.720
 6777SOL     OW32361   9.164   5.526   0.482
 6777SOL    HW132362   9.222   5.445   0.475
 6777SOL    HW232363   9.174   5.566   0.574
 6778SOL     OW32364   0.282   0.957   1.294
 6778SOL    HW132365   0.185   0.978   1.277
 6778SOL    HW232366   0.290   0.903   1.378
 6779SOL     OW32367   9.029   1.848   0.784
 6779SOL    HW132368   8.954   1.894   0.736
 6779SOL    HW232369   9.027   1.873   0.881
 6780SOL     OW32370   1.777   4.885   4.608
 6780SOL    HW132371   1.736   4.920   4.524
 6780SOL    HW232372   1.727   4.805   4.639
 6781SOL     OW32373   2.383   7.632   1.178
 6781SOL    HW132374   2.302   7.618   1.120
 6781SOL    HW232375   2.355   7.675   1.264
 6782SOL     OW32376   6.862   7.143   5.989
 6782SOL    HW132377   6.785   7.162   5.928
 6782SOL    HW232378   6.937   7.205   5.969
 6783SOL     OW32379   6.078   8.314   1.512
 6783SOL    HW132380   6.118   8.331   1.601
 6783SOL    HW232381   6.145   8.336   1.440
 6784SOL     OW32382   3.076   4.303   5.550
 6784SOL    HW132383   3.114   4.249   5.475
 6784SOL    HW232384   3.124   4.281   5.635
 6785SOL     OW32385   2.719   0.922   6.338
 6785SOL    HW132386   2.670   0.895   6.421
 6785SOL    HW232387   2.729   1.021   6.335
 6786SOL     OW32388   2.898   1.770   6.386
 6786SOL    HW132389   2.867   1.683   6.424
 6786SOL    HW232390   2.833   1.800   6.315
 6787SOL     OW32391   3.007   6.927   6.363
 6787SOL    HW132392   2.948   7.005   6.381
 6787SOL    HW232393   3.091   6.959   6.319
 6788SOL     OW32394   4.362   4.162   6.240
 6788SOL    HW132395   4.347   4.178   6.142
 6788SOL    HW232396   4.434   4.223   6.273
 6789SOL     OW32397   4.628   1.834   0.052
 6789SOL    HW132398   4.626   1.850   0.151
 6789SOL    HW232399   4.562   1.894   0.007
 6790SOL     OW32400   0.079   6.205   0.084
 6790SOL    HW132401   0.148   6.134   0.096
 6790SOL    HW232402   0.011   6.175   0.017
 6791SOL     OW32403   6.932   7.043   5.495
 6791SOL    HW132404   6.964   7.115   5.556
 6791SOL    HW232405   7.011   6.994   5.457
 6792SOL     OW32406   5.805   7.788   1.223
 6792SOL    HW132407   5.836   7.759   1.313
 6792SOL    HW232408   5.824   7.885   1.211
 6793SOL     OW32409   7.378   4.919   0.900
 6793SOL    HW132410   7.304   4.961   0.847
 6793SOL    HW232411   7.406   4.982   0.972
 6794SOL     OW32412   6.502   5.853   0.657
 6794SOL    HW132413   6.447   5.903   0.724
 6794SOL    HW232414   6.535   5.917   0.588
 6795SOL     OW32415   4.064   0.246   6.140
 6795SOL    HW132416   4.087   0.177   6.210
 6795SOL    HW232417   4.116   0.228   6.057
 6796SOL     OW32418   0.514   3.427   0.409
 6796SOL    HW132419   0.498   3.517   0.368
 6796SOL    HW232420   0.428   3.393   0.447
 6797SOL     OW32421   0.126   1.404   5.862
 6797SOL    HW132422   0.186   1.404   5.782
 6797SOL    HW232423   0.146   1.485   5.918
 6798SOL     OW32424   3.924   3.957   6.440
 6798SOL    HW132425   3.898   4.034   6.498
 6798SOL    HW232426   4.009   3.917   6.474
 6799SOL     OW32427   4.972   4.351   0.486
 6799SOL    HW132428   4.913   4.415   0.437
 6799SOL    HW232429   5.017   4.398   0.562
 6800SOL     OW32430   7.062   3.502   0.488
 6800SOL    HW132431   7.085   3.429   0.552
 6800SOL    HW232432   7.145   3.551   0.461
 6801SOL     OW32433   4.510   6.164   5.931
 6801SOL    HW132434   4.473   6.158   6.024
 6801SOL    HW232435   4.600   6.121   5.927
 6802SOL     OW32436   8.100   2.226   0.952
 6802SOL    HW132437   8.188   2.267   0.931
 6802SOL    HW232438   8.030   2.297   0.960
 6803SOL     OW32439   0.772   3.426   0.555
 6803SOL    HW132440   0.842   3.450   0.488
 6803SOL    HW232441   0.682   3.447   0.519
 6804SOL     OW32442   2.228   0.214   5.822
 6804SOL    HW132443   2.149   0.186   5.766
 6804SOL    HW232444   2.220   0.311   5.845
 6805SOL     OW32445   3.071   7.832   5.956
 6805SOL    HW132446   2.980   7.854   5.922
 6805SOL    HW232447   3.137   7.897   5.917
 6806SOL     OW32448   4.114   6.903   0.392
 6806SOL    HW132449   4.064   6.886   0.308
 6806SOL    HW232450   4.095   6.830   0.458
 6807SOL     OW32451   1.374   2.704   0.150
 6807SOL    HW132452   1.457   2.707   0.204
 6807SOL    HW232453   1.324   2.619   0.169
 6808SOL     OW32454   3.033   3.693   5.648
 6808SOL    HW132455   3.052   3.613   5.591
 6808SOL    HW232456   3.024   3.774   5.591
 6809SOL     OW32457   2.145   1.559   6.323
 6809SOL    HW132458   2.134   1.525   6.229
 6809SOL    HW232459   2.059   1.550   6.372
 6810SOL     OW32460   1.712   4.276   5.937
 6810SOL    HW132461   1.626   4.299   5.892
 6810SOL    HW232462   1.776   4.352   5.929
 6811SOL     OW32463   4.836   7.256   0.422
 6811SOL    HW132464   4.933   7.277   0.411
 6811SOL    HW232465   4.814   7.247   0.519
 6812SOL     OW32466   1.572   7.272   1.175
 6812SOL    HW132467   1.529   7.198   1.226
 6812SOL    HW232468   1.510   7.350   1.171
 6813SOL     OW32469   7.042   7.061   0.063
 6813SOL    HW132470   7.115   6.994   0.051
 6813SOL    HW232471   7.073   7.135   0.122
 6814SOL     OW32472   9.488   8.086   4.869
 6814SOL    HW132473   9.581   8.081   4.905
 6814SOL    HW232474   9.475   8.175   4.825
 6815SOL     OW32475   0.038   6.539   5.421
 6815SOL    HW132476   0.022   6.620   5.476
 6815SOL    HW232477   0.020   6.457   5.475
 6816SOL     OW32478   8.693   3.857   5.672
 6816SOL    HW132479   8.614   3.889   5.620
 6816SOL    HW232480   8.760   3.816   5.610
 6817SOL     OW32481   5.796   8.463   1.807
 6817SOL    HW132482   5.727   8.393   1.824
 6817SOL    HW232483   5.814   8.513   1.892
 6818SOL     OW32484   7.238   0.341   1.228
 6818SOL    HW132485   7.281   0.260   1.268
 6818SOL    HW232486   7.146   0.353   1.268
 6819SOL     OW32487   6.485   2.763   6.291
 6819SOL    HW132488   6.453   2.809   6.208
 6819SOL    HW232489   6.555   2.820   6.336
 6820SOL     OW32490   1.972   3.727   5.950
 6820SOL    HW132491   1.910   3.695   5.878
 6820SOL    HW232492   1.935   3.703   6.040
 6821SOL     OW32493   6.144   6.114   6.625
 6821SOL    HW132494   6.063   6.057   6.633
 6821SOL    HW232495   6.194   6.089   6.541
 6822SOL     OW32496   3.588   3.036   0.984
 6822SOL    HW132497   3.504   3.056   0.933
 6822SOL    HW232498   3.633   2.956   0.945
 6823SOL     OW32499   1.051   8.287   6.009
 6823SOL    HW132500   1.001   8.338   6.079
 6823SOL    HW232501   1.139   8.330   5.993
 6824SOL     OW32502   7.199   5.373   5.849
 6824SOL    HW132503   7.125   5.381   5.916
 6824SOL    HW232504   7.164   5.331   5.766
 6825SOL     OW32505   9.105   1.592   5.724
 6825SOL    HW132506   9.064   1.682   5.709
 6825SOL    HW232507   9.204   1.598   5.715
 6826SOL     OW32508   6.726   7.398   5.213
 6826SOL    HW132509   6.701   7.306   5.244
 6826SOL    HW232510   6.681   7.417   5.126
 6827SOL     OW32511   1.340   6.921   6.108
 6827SOL    HW132512   1.355   6.982   6.186
 6827SOL    HW232513   1.382   6.832   6.127
 6828SOL     OW32514   2.441   1.805   0.803
 6828SOL    HW132515   2.433   1.707   0.790
 6828SOL    HW232516   2.354   1.842   0.836
 6829SOL     OW32517   8.383   1.183   5.763
 6829SOL    HW132518   8.429   1.107   5.717
 6829SOL    HW232519   8.293   1.197   5.722
 6830SOL     OW32520   2.862   5.946   6.160
 6830SOL    HW132521   2.879   6.044   6.151
 6830SOL    HW232522   2.906   5.912   6.244
 6831SOL     OW32523   3.282   1.396   1.948
 6831SOL    HW132524   3.284   1.296   1.954
 6831SOL    HW232525   3.358   1.434   2.000
 6832SOL     OW32526   4.538   6.056   1.620
 6832SOL    HW132527   4.604   6.009   1.679
 6832SOL    HW232528   4.585   6.092   1.540
 6833SOL     OW32529   1.087   4.582   0.372
 6833SOL    HW132530   0.988   4.585   0.357
 6833SOL    HW232531   1.134   4.565   0.286
 6834SOL     OW32532   1.463   0.738   5.770
 6834SOL    HW132533   1.451   0.837   5.771
 6834SOL    HW232534   1.374   0.693   5.772
 6835SOL     OW32535   6.205   7.531   0.341
 6835SOL    HW132536   6.180   7.439   0.309
 6835SOL    HW232537   6.122   7.583   0.361
 6836SOL     OW32538   1.301   0.267   5.743
 6836SOL    HW132539   1.293   0.339   5.812
 6836SOL    HW232540   1.391   0.224   5.750
 6837SOL     OW32541   3.391   2.984   1.423
 6837SOL    HW132542   3.387   2.993   1.323
 6837SOL    HW232543   3.484   3.006   1.454
 6838SOL     OW32544   2.846   3.493   0.333
 6838SOL    HW132545   2.895   3.415   0.372
 6838SOL    HW232546   2.886   3.518   0.245
 6839SOL     OW32547   0.036   3.242   0.659
 6839SOL    HW132548   0.019   3.338   0.680
 6839SOL    HW232549   0.094   3.202   0.731
 6840SOL     OW32550   5.171   3.467   0.132
 6840SOL    HW132551   5.166   3.385   0.075
 6840SOL    HW232552   5.079   3.501   0.150
 6841SOL     OW32553   6.702   4.983   5.952
 6841SOL    HW132554   6.723   4.982   5.855
 6841SOL    HW232555   6.720   5.074   5.990
 6842SOL     OW32556   2.779   5.620   6.033
 6842SOL    HW132557   2.784   5.709   6.079
 6842SOL    HW232558   2.871   5.582   6.024
 6843SOL     OW32559   3.531   7.914   6.469
 6843SOL    HW132560   3.519   7.997   6.415
 6843SOL    HW232561   3.444   7.865   6.474
 6844SOL     OW32562   6.917   4.009   0.567
 6844SOL    HW132563   6.932   4.014   0.468
 6844SOL    HW232564   6.993   4.052   0.615
 6845SOL     OW32565   4.231   0.588   6.526
 6845SOL    HW132566   4.228   0.521   6.452
 6845SOL    HW232567   4.253   0.678   6.490
 6846SOL     OW32568   6.235   6.049   0.610
 6846SOL    HW132569   6.241   6.100   0.524
 6846SOL    HW232570   6.318   6.066   0.664
 6847SOL     OW32571   0.721   0.803   5.671
 6847SOL    HW132572   0.724   0.903   5.679
 6847SOL    HW232573   0.626   0.772   5.680
 6848SOL     OW32574   8.111   6.155   0.376
 6848SOL    HW132575   8.132   6.204   0.460
 6848SOL    HW232576   8.013   6.137   0.371
 6849SOL     OW32577   4.316   0.078   0.995
 6849SOL    HW132578   4.381   0.013   1.033
 6849SOL    HW232579   4.225   0.037   0.995
 6850SOL     OW32580   3.141   7.400   1.593
 6850SOL    HW132581   3.063   7.447   1.552
 6850SOL    HW232582   3.162   7.441   1.682
 6851SOL     OW32583   4.522   5.495   5.239
 6851SOL    HW132584   4.470   5.450   5.166
 6851SOL    HW232585   4.605   5.534   5.201
 6852SOL     OW32586   2.987   7.309   5.347
 6852SOL    HW132587   2.976   7.210   5.343
 6852SOL    HW232588   3.048   7.339   5.274
 6853SOL     OW32589   9.354   7.335   6.057
 6853SOL    HW132590   9.412   7.412   6.086
 6853SOL    HW232591   9.406   7.250   6.063
 6854SOL     OW32592   2.740   0.871   1.436
 6854SOL    HW132593   2.779   0.792   1.482
 6854SOL    HW232594   2.641   0.860   1.428
 6855SOL     OW32595   4.727   3.270   6.646
 6855SOL    HW132596   4.646   3.226   6.608
 6855SOL    HW232597   4.809   3.231   6.605
 6856SOL     OW32598   8.115   4.734   0.544
 6856SOL    HW132599   8.177   4.679   0.488
 6856SOL    HW232600   8.021   4.722   0.511
 6857SOL     OW32601   2.291   2.638   0.999
 6857SOL    HW132602   2.217   2.572   1.012
 6857SOL    HW232603   2.275   2.717   1.058
 6858SOL     OW32604   4.705   0.512   5.391
 6858SOL    HW132605   4.761   0.579   5.341
 6858SOL    HW232606   4.625   0.559   5.431
 6859SOL     OW32607   8.570   3.504   0.204
 6859SOL    HW132608   8.471   3.494   0.208
 6859SOL    HW232609   8.603   3.468   0.116
 6860SOL     OW32610   4.752   0.750   4.744
 6860SOL    HW132611   4.672   0.808   4.754
 6860SOL    HW232612   4.821   0.796   4.689
 6861SOL     OW32613   8.124   6.697   4.679
 6861SOL    HW132614   8.049   6.693   4.745
 6861SOL    HW232615   8.113   6.623   4.613
 6862SOL     OW32616   0.192   5.713   4.818
 6862SOL    HW132617   0.170   5.702   4.915
 6862SOL    HW232618   0.290   5.727   4.807
 6863SOL     OW32619   5.370   5.268   1.228
 6863SOL    HW132620   5.428   5.257   1.309
 6863SOL    HW232621   5.428   5.281   1.147
 6864SOL     OW32622   0.066   3.699   6.476
 6864SOL    HW132623  -0.020   3.648   6.471
 6864SOL    HW232624   0.070   3.764   6.399
 6865SOL     OW32625   1.648   6.873   4.980
 6865SOL    HW132626   1.732   6.820   4.994
 6865SOL    HW232627   1.631   6.882   4.881
 6866SOL     OW32628   4.312   3.026   0.152
 6866SOL    HW132629   4.256   2.947   0.126
 6866SOL    HW232630   4.300   3.099   0.084
 6867SOL     OW32631   2.426   2.390   0.806
 6867SOL    HW132632   2.404   2.333   0.727
 6867SOL    HW232633   2.480   2.469   0.777
 6868SOL     OW32634   7.138   4.120   0.734
 6868SOL    HW132635   7.171   4.055   0.802
 6868SOL    HW232636   7.156   4.213   0.766
 6869SOL     OW32637   0.569   6.087   6.707
 6869SOL    HW132638   0.562   6.045   6.616
 6869SOL    HW232639   0.487   6.065   6.759
 6870SOL     OW32640   1.600   7.372   0.462
 6870SOL    HW132641   1.558   7.303   0.521
 6870SOL    HW232642   1.667   7.424   0.515
 6871SOL     OW32643   0.437   0.643   0.059
 6871SOL    HW132644   0.498   0.722   0.057
 6871SOL    HW232645   0.383   0.644   0.144
 6872SOL     OW32646   5.187   6.545   5.076
 6872SOL    HW132647   5.097   6.575   5.047
 6872SOL    HW232648   5.214   6.464   5.023
 6873SOL     OW32649   1.365   1.169   0.824
 6873SOL    HW132650   1.328   1.157   0.916
 6873SOL    HW232651   1.369   1.080   0.778
 6874SOL     OW32652   6.423   5.998   6.561
 6874SOL    HW132653   6.386   5.906   6.549
 6874SOL    HW232654   6.486   5.999   6.638
 6875SOL     OW32655   3.742   2.937   6.162
 6875SOL    HW132656   3.729   2.921   6.064
 6875SOL    HW232657   3.807   3.011   6.176
 6876SOL     OW32658   8.322   2.691   6.119
 6876SOL    HW132659   8.295   2.685   6.023
 6876SOL    HW232660   8.361   2.603   6.148
 6877SOL     OW32661   0.763   7.233   1.419
 6877SOL    HW132662   0.713   7.309   1.461
 6877SOL    HW232663   0.772   7.159   1.485
 6878SOL     OW32664   5.673   0.556   0.914
 6878SOL    HW132665   5.650   0.479   0.973
 6878SOL    HW232666   5.757   0.535   0.864
 6879SOL     OW32667   8.720   7.143   6.508
 6879SOL    HW132668   8.788   7.181   6.570
 6879SOL    HW232669   8.629   7.174   6.535
 6880SOL     OW32670   0.043   1.629   6.308
 6880SOL    HW132671  -0.056   1.635   6.316
 6880SOL    HW232672   0.085   1.653   6.395
 6881SOL     OW32673   9.244   2.338   5.903
 6881SOL    HW132674   9.296   2.259   5.871
 6881SOL    HW232675   9.152   2.335   5.863
 6882SOL     OW32676   2.171   7.192   5.455
 6882SOL    HW132677   2.183   7.222   5.361
 6882SOL    HW232678   2.213   7.102   5.467
 6883SOL     OW32679   1.074   6.983   4.523
 6883SOL    HW132680   1.149   6.955   4.463
 6883SOL    HW232681   1.080   6.934   4.610
 6884SOL     OW32682   9.334   0.296   0.692
 6884SOL    HW132683   9.278   0.223   0.653
 6884SOL    HW232684   9.430   0.277   0.674
 6885SOL     OW32685   1.834   7.834   0.908
 6885SOL    HW132686   1.857   7.759   0.970
 6885SOL    HW232687   1.865   7.813   0.816
 6886SOL     OW32688   3.664   7.192   1.015
 6886SOL    HW132689   3.718   7.145   1.085
 6886SOL    HW232690   3.673   7.291   1.027
 6887SOL     OW32691   5.523   7.417   6.624
 6887SOL    HW132692   5.462   7.409   6.545
 6887SOL    HW232693   5.572   7.331   6.637
 6888SOL     OW32694   8.777   3.897   0.841
 6888SOL    HW132695   8.773   3.803   0.875
 6888SOL    HW232696   8.867   3.935   0.862
 6889SOL     OW32697   9.348   2.864   0.368
 6889SOL    HW132698   9.364   2.822   0.278
 6889SOL    HW232699   9.422   2.839   0.430
 6890SOL     OW32700   6.460   0.643   0.590
 6890SOL    HW132701   6.441   0.739   0.567
 6890SOL    HW232702   6.398   0.614   0.663
 6891SOL     OW32703   9.454   1.373   0.571
 6891SOL    HW132704   9.379   1.437   0.589
 6891SOL    HW232705   9.540   1.412   0.604
 6892SOL     OW32706   7.864   3.659   1.817
 6892SOL    HW132707   7.815   3.679   1.901
 6892SOL    HW232708   7.874   3.560   1.808
 6893SOL     OW32709   6.058   1.051   6.502
 6893SOL    HW132710   6.108   1.020   6.421
 6893SOL    HW232711   6.122   1.069   6.576
 6894SOL     OW32712   3.876   4.599   0.498
 6894SOL    HW132713   3.931   4.681   0.511
 6894SOL    HW232714   3.804   4.595   0.568
 6895SOL     OW32715   6.607   1.621   5.545
 6895SOL    HW132716   6.546   1.595   5.470
 6895SOL    HW232717   6.669   1.693   5.515
 6896SOL     OW32718   0.186   0.263   0.409
 6896SOL    HW132719   0.153   0.170   0.425
 6896SOL    HW232720   0.278   0.272   0.448
 6897SOL     OW32721   4.274   4.756   0.542
 6897SOL    HW132722   4.254   4.716   0.453
 6897SOL    HW232723   4.189   4.773   0.591
 6898SOL     OW32724   5.963   6.660   0.962
 6898SOL    HW132725   6.019   6.686   0.884
 6898SOL    HW232726   5.917   6.574   0.943
 6899SOL     OW32727   7.703   2.425   5.991
 6899SOL    HW132728   7.738   2.332   6.002
 6899SOL    HW232729   7.738   2.482   6.065
 6900SOL     OW32730   4.536   3.149   6.506
 6900SOL    HW132731   4.504   3.060   6.472
 6900SOL    HW232732   4.582   3.198   6.432
 6901SOL     OW32733   9.133   5.456   6.379
 6901SOL    HW132734   9.231   5.442   6.371
 6901SOL    HW232735   9.115   5.537   6.435
 6902SOL     OW32736   8.958   3.912   6.526
 6902SOL    HW132737   8.949   3.908   6.625
 6902SOL    HW232738   8.979   4.005   6.497
 6903SOL     OW32739   9.354   8.431   0.669
 6903SOL    HW132740   9.390   8.477   0.750
 6903SOL    HW232741   9.282   8.487   0.628
 6904SOL     OW32742   6.549   2.520   1.268
 6904SOL    HW132743   6.483   2.507   1.194
 6904SOL    HW232744   6.515   2.589   1.332
 6905SOL     OW32745   5.498   4.738   1.277
 6905SOL    HW132746   5.513   4.833   1.304
 6905SOL    HW232747   5.476   4.684   1.358
 6906SOL     OW32748   0.519   7.094   3.873
 6906SOL    HW132749   0.608   7.051   3.887
 6906SOL    HW232750   0.531   7.193   3.866
 6907SOL     OW32751   7.629   1.959   0.596
 6907SOL    HW132752   7.700   1.911   0.648
 6907SOL    HW232753   7.649   2.057   0.594
 6908SOL     OW32754   4.971   0.759   1.178
 6908SOL    HW132755   5.047   0.766   1.242
 6908SOL    HW232756   4.908   0.688   1.209
 6909SOL     OW32757   8.944   4.297   5.875
 6909SOL    HW132758   9.027   4.248   5.848
 6909SOL    HW232759   8.867   4.264   5.820
 6910SOL     OW32760   7.665   7.249   6.044
 6910SOL    HW132761   7.705   7.296   6.123
 6910SOL    HW232762   7.693   7.153   6.046
 6911SOL     OW32763   5.527   5.140   0.129
 6911SOL    HW132764   5.467   5.081   0.183
 6911SOL    HW232765   5.611   5.156   0.179
 6912SOL     OW32766   7.789   3.285   0.034
 6912SOL    HW132767   7.799   3.382   0.057
 6912SOL    HW232768   7.709   3.248   0.081
 6913SOL     OW32769   7.565   2.482   5.613
 6913SOL    HW132770   7.527   2.569   5.583
 6913SOL    HW232771   7.665   2.487   5.611
 6914SOL     OW32772   6.730   3.412   5.859
 6914SOL    HW132773   6.736   3.391   5.761
 6914SOL    HW232774   6.636   3.402   5.889
 6915SOL     OW32775   7.602   4.701   6.611
 6915SOL    HW132776   7.508   4.735   6.613
 6915SOL    HW232777   7.615   4.636   6.686
 6916SOL     OW32778   7.744   2.207   0.610
 6916SOL    HW132779   7.744   2.272   0.534
 6916SOL    HW232780   7.833   2.209   0.656
 6917SOL     OW32781   6.306   4.187   4.805
 6917SOL    HW132782   6.264   4.240   4.732
 6917SOL    HW232783   6.250   4.194   4.888
 6918SOL     OW32784   2.691   2.487   0.050
 6918SOL    HW132785   2.668   2.411  -0.010
 6918SOL    HW232786   2.614   2.507   0.110
 6919SOL     OW32787   1.546   6.369   1.164
 6919SOL    HW132788   1.635   6.333   1.138
 6919SOL    HW232789   1.523   6.338   1.257
 6920SOL     OW32790   8.550   7.843   6.051
 6920SOL    HW132791   8.555   7.846   5.951
 6920SOL    HW232792   8.492   7.767   6.080
 6921SOL     OW32793   0.796   7.774   6.668
 6921SOL    HW132794   0.776   7.676   6.670
 6921SOL    HW232795   0.885   7.791   6.711
 6922SOL     OW32796   3.084   6.458   5.935
 6922SOL    HW132797   3.080   6.418   5.843
 6922SOL    HW232798   3.163   6.421   5.983
 6923SOL     OW32799   2.420   4.629   5.557
 6923SOL    HW132800   2.451   4.566   5.485
 6923SOL    HW232801   2.491   4.636   5.627
 6924SOL     OW32802   0.050   8.446   0.897
 6924SOL    HW132803   0.133   8.449   0.842
 6924SOL    HW232804   0.019   8.351   0.904
 6925SOL     OW32805   0.256   4.548   0.517
 6925SOL    HW132806   0.182   4.484   0.540
 6925SOL    HW232807   0.270   4.549   0.418
 6926SOL     OW32808   4.688   0.348   0.198
 6926SOL    HW132809   4.753   0.302   0.259
 6926SOL    HW232810   4.622   0.281   0.163
 6927SOL     OW32811   4.947   1.026   0.587
 6927SOL    HW132812   4.865   1.082   0.588
 6927SOL    HW232813   4.924   0.934   0.555
 6928SOL     OW32814   0.151   4.285   6.032
 6928SOL    HW132815   0.133   4.377   5.999
 6928SOL    HW232816   0.242   4.256   6.004
 6929SOL     OW32817   6.803   5.039   5.321
 6929SOL    HW132818   6.717   4.987   5.320
 6929SOL    HW232819   6.808   5.097   5.240
 6930SOL     OW32820   8.386   7.479   0.952
 6930SOL    HW132821   8.369   7.574   0.926
 6930SOL    HW232822   8.484   7.462   0.955
 6931SOL     OW32823   3.720   3.439   0.589
 6931SOL    HW132824   3.719   3.415   0.492
 6931SOL    HW232825   3.690   3.533   0.601
 6932SOL     OW32826   7.333   5.082   1.285
 6932SOL    HW132827   7.304   5.075   1.381
 6932SOL    HW232828   7.410   5.021   1.270
 6933SOL     OW32829   8.067   6.636   6.121
 6933SOL    HW132830   7.996   6.617   6.054
 6933SOL    HW232831   8.139   6.691   6.079
 6934SOL     OW32832   0.829   6.838   1.315
 6934SOL    HW132833   0.878   6.925   1.304
 6934SOL    HW232834   0.875   6.783   1.384
 6935SOL     OW32835   0.947   7.670   0.891
 6935SOL    HW132836   0.976   7.595   0.832
 6935SOL    HW232837   0.983   7.655   0.984
 6936SOL     OW32838   4.973   0.192   6.368
 6936SOL    HW132839   4.918   0.246   6.430
 6936SOL    HW232840   5.039   0.251   6.321
 6937SOL     OW32841   4.480   2.173   0.717
 6937SOL    HW132842   4.449   2.084   0.685
 6937SOL    HW232843   4.549   2.161   0.789
 6938SOL     OW32844   6.723   6.755   6.132
 6938SOL    HW132845   6.750   6.742   6.036
 6938SOL    HW232846   6.779   6.697   6.190
 6939SOL     OW32847   4.866   4.406   0.856
 6939SOL    HW132848   4.933   4.481   0.851
 6939SOL    HW232849   4.906   4.324   0.815
 6940SOL     OW32850   8.297   3.131   5.624
 6940SOL    HW132851   8.282   3.163   5.530
 6940SOL    HW232852   8.283   3.032   5.628
 6941SOL     OW32853   8.567   0.619   0.281
 6941SOL    HW132854   8.637   0.570   0.333
 6941SOL    HW232855   8.519   0.556   0.221
 6942SOL     OW32856   3.274   8.494   6.607
 6942SOL    HW132857   3.187   8.522   6.648
 6942SOL    HW232858   3.262   8.483   6.508
 6943SOL     OW32859   8.324   6.665   1.432
 6943SOL    HW132860   8.315   6.612   1.516
 6943SOL    HW232861   8.236   6.668   1.384
 6944SOL     OW32862   0.637   0.612   0.276
 6944SOL    HW132863   0.656   0.585   0.370
 6944SOL    HW232864   0.679   0.546   0.213
 6945SOL     OW32865   6.412   3.100   6.374
 6945SOL    HW132866   6.318   3.135   6.371
 6945SOL    HW232867   6.462   3.134   6.294
 6946SOL     OW32868   2.160   2.340   6.203
 6946SOL    HW132869   2.175   2.242   6.207
 6946SOL    HW232870   2.081   2.359   6.144
 6947SOL     OW32871   7.178   7.966   5.800
 6947SOL    HW132872   7.188   7.866   5.798
 6947SOL    HW232873   7.086   7.989   5.831
 6948SOL     OW32874   4.688   3.788   1.449
 6948SOL    HW132875   4.589   3.792   1.454
 6948SOL    HW232876   4.725   3.773   1.541
 6949SOL     OW32877   3.211   6.464   0.539
 6949SOL    HW132878   3.242   6.519   0.616
 6949SOL    HW232879   3.261   6.378   0.536
 6950SOL     OW32880   4.727   6.836   5.588
 6950SOL    HW132881   4.728   6.751   5.641
 6950SOL    HW232882   4.645   6.888   5.611
 6951SOL     OW32883   5.048   4.607   0.207
 6951SOL    HW132884   5.142   4.606   0.242
 6951SOL    HW232885   5.014   4.701   0.205
 6952SOL     OW32886   8.165   2.319   5.387
 6952SOL    HW132887   8.086   2.271   5.349
 6952SOL    HW232888   8.247   2.296   5.334
 6953SOL     OW32889   1.440   6.703   6.694
 6953SOL    HW132890   1.514   6.769   6.707
 6953SOL    HW232891   1.430   6.684   6.596
 6954SOL     OW32892   7.703   7.208   1.615
 6954SOL    HW132893   7.723   7.110   1.617
 6954SOL    HW232894   7.750   7.253   1.691
 6955SOL     OW32895   3.710   0.545   1.462
 6955SOL    HW132896   3.660   0.556   1.548
 6955SOL    HW232897   3.799   0.589   1.469
 6956SOL     OW32898   2.074   7.581   5.725
 6956SOL    HW132899   2.019   7.602   5.806
 6956SOL    HW232900   2.080   7.482   5.713
 6957SOL     OW32901   3.111   8.127   0.559
 6957SOL    HW132902   3.113   8.027   0.553
 6957SOL    HW232903   3.201   8.161   0.584
 6958SOL     OW32904   6.976   4.520   5.422
 6958SOL    HW132905   7.052   4.575   5.388
 6958SOL    HW232906   6.968   4.436   5.368
 6959SOL     OW32907   3.133   6.925   6.727
 6959SOL    HW132908   3.099   6.831   6.729
 6959SOL    HW232909   3.225   6.926   6.689
 6960SOL     OW32910   3.874   8.217   5.662
 6960SOL    HW132911   3.877   8.311   5.628
 6960SOL    HW232912   3.964   8.191   5.697
 6961SOL     OW32913   5.240   7.669   0.160
 6961SOL    HW132914   5.185   7.753   0.162
 6961SOL    HW232915   5.326   7.685   0.208
 6962SOL     OW32916   2.126   6.268   6.410
 6962SOL    HW132917   2.103   6.291   6.316
 6962SOL    HW232918   2.144   6.352   6.462
 6963SOL     OW32919   7.176   0.929   6.572
 6963SOL    HW132920   7.217   0.881   6.650
 6963SOL    HW232921   7.157   0.864   6.498
 6964SOL     OW32922   5.149   3.130   6.446
 6964SOL    HW132923   5.071   3.172   6.400
 6964SOL    HW232924   5.140   3.030   6.442
 6965SOL     OW32925   7.743   4.784   0.809
 6965SOL    HW132926   7.762   4.880   0.790
 6965SOL    HW232927   7.720   4.773   0.906
 6966SOL     OW32928   3.691   8.034   0.556
 6966SOL    HW132929   3.618   8.030   0.488
 6966SOL    HW232930   3.660   7.988   0.639
 6967SOL     OW32931   1.951   8.301   1.675
 6967SOL    HW132932   2.048   8.292   1.699
 6967SOL    HW232933   1.919   8.216   1.634
 6968SOL     OW32934   4.157   4.208   0.138
 6968SOL    HW132935   4.181   4.136   0.203
 6968SOL    HW232936   4.173   4.175   0.045
 6969SOL     OW32937   0.201   0.894   0.235
 6969SOL    HW132938   0.138   0.963   0.200
 6969SOL    HW232939   0.256   0.934   0.308
 6970SOL     OW32940   5.893   0.299   1.166
 6970SOL    HW132941   5.966   0.242   1.129
 6970SOL    HW232942   5.891   0.386   1.118
 6971SOL     OW32943   6.162   7.963   5.638
 6971SOL    HW132944   6.100   7.885   5.628
 6971SOL    HW232945   6.181   8.002   5.548
 6972SOL     OW32946   3.282   5.995   0.227
 6972SOL    HW132947   3.356   6.047   0.186
 6972SOL    HW232948   3.196   6.016   0.180
 6973SOL     OW32949   4.162   7.520   5.464
 6973SOL    HW132950   4.138   7.598   5.406
 6973SOL    HW232951   4.079   7.475   5.495
 6974SOL     OW32952   1.508   1.808   6.530
 6974SOL    HW132953   1.513   1.893   6.478
 6974SOL    HW232954   1.437   1.815   6.600
 6975SOL     OW32955   7.509   5.034   4.849
 6975SOL    HW132956   7.595   4.982   4.849
 6975SOL    HW232957   7.519   5.114   4.908
 6976SOL     OW32958   8.238   1.372   0.831
 6976SOL    HW132959   8.234   1.393   0.733
 6976SOL    HW232960   8.149   1.338   0.861
 6977SOL     OW32961   0.312   0.672   0.295
 6977SOL    HW132962   0.265   0.597   0.342
 6977SOL    HW232963   0.249   0.748   0.282
 6978SOL     OW32964   8.700   6.100   5.642
 6978SOL    HW132965   8.612   6.080   5.599
 6978SOL    HW232966   8.774   6.077   5.579
 6979SOL     OW32967   7.445   0.008   6.671
 6979SOL    HW132968   7.420  -0.058   6.742
 6979SOL    HW232969   7.410   0.098   6.696
 6980SOL     OW32970   2.265   0.416   6.340
 6980SOL    HW132971   2.323   0.380   6.412
 6980SOL    HW232972   2.177   0.445   6.379
 6981SOL     OW32973   9.310   5.542   5.887
 6981SOL    HW132974   9.260   5.516   5.969
 6981SOL    HW232975   9.400   5.579   5.914
 6982SOL     OW32976   6.392   4.636   6.165
 6982SOL    HW132977   6.466   4.675   6.110
 6982SOL    HW232978   6.425   4.554   6.212
 6983SOL     OW32979   6.321   7.742   6.537
 6983SOL    HW132980   6.263   7.760   6.616
 6983SOL    HW232981   6.269   7.753   6.453
 6984SOL     OW32982   2.842   3.548   0.742
 6984SOL    HW132983   2.920   3.572   0.685
 6984SOL    HW232984   2.806   3.630   0.786
 6985SOL     OW32985   7.169   2.152   0.206
 6985SOL    HW132986   7.095   2.111   0.260
 6985SOL    HW232987   7.141   2.155   0.110
 6986SOL     OW32988   4.122   3.376   0.902
 6986SOL    HW132989   4.038   3.329   0.927
 6986SOL    HW232990   4.102   3.443   0.830
 6987SOL     OW32991   3.678   4.966   0.580
 6987SOL    HW132992   3.622   5.038   0.539
 6987SOL    HW232993   3.775   4.985   0.564
 6988SOL     OW32994   3.947   1.417   1.266
 6988SOL    HW132995   4.021   1.351   1.255
 6988SOL    HW232996   3.963   1.472   1.348
 6989SOL     OW32997   2.747   8.427   5.724
 6989SOL    HW132998   2.743   8.527   5.718
 6989SOL    HW232999   2.842   8.397   5.725
 6990SOL     OW33000   7.838   0.349   5.933
 6990SOL    HW133001   7.790   0.344   5.846
 6990SOL    HW233002   7.937   0.341   5.918
 6991SOL     OW33003   1.923   4.513   5.838
 6991SOL    HW133004   1.834   4.557   5.849
 6991SOL    HW233005   1.992   4.564   5.890
 6992SOL     OW33006   3.903   0.934   1.200
 6992SOL    HW133007   3.930   0.962   1.108
 6992SOL    HW233008   3.863   0.842   1.197
 6993SOL     OW33009   7.614   0.817   4.748
 6993SOL    HW133010   7.682   0.880   4.786
 6993SOL    HW233011   7.560   0.864   4.678
 6994SOL     OW33012   5.895   7.692   6.272
 6994SOL    HW133013   5.813   7.671   6.326
 6994SOL    HW233014   5.884   7.657   6.179
 6995SOL     OW33015   1.495   2.756   5.159
 6995SOL    HW133016   1.588   2.720   5.159
 6995SOL    HW233017   1.497   2.854   5.139
 6996SOL     OW33018   5.648   8.209   5.494
 6996SOL    HW133019   5.612   8.238   5.405
 6996SOL    HW233020   5.734   8.159   5.480
 6997SOL     OW33021   6.928   3.728   0.436
 6997SOL    HW133022   6.989   3.656   0.470
 6997SOL    HW233023   6.834   3.707   0.462
 6998SOL     OW33024   1.535   2.561   6.013
 6998SOL    HW133025   1.475   2.522   6.083
 6998SOL    HW233026   1.482   2.623   5.955
 6999SOL     OW33027   5.726   2.303   1.733
 6999SOL    HW133028   5.780   2.384   1.710
 6999SOL    HW233029   5.686   2.265   1.649
 7000SOL     OW33030   3.351   6.924   5.398
 7000SOL    HW133031   3.256   6.955   5.401
 7000SOL    HW233032   3.401   6.975   5.327
 7001SOL     OW33033   0.040   2.891   0.913
 7001SOL    HW133034   0.117   2.831   0.935
 7001SOL    HW233035  -0.031   2.838   0.866
 7002SOL     OW33036   6.654   2.591   6.119
 7002SOL    HW133037   6.617   2.651   6.190
 7002SOL    HW233038   6.701   2.646   6.050
 7003SOL     OW33039   6.880   5.814   0.533
 7003SOL    HW133040   6.857   5.810   0.630
 7003SOL    HW233041   6.863   5.725   0.491
 7004SOL     OW33042   0.714   7.120   4.923
 7004SOL    HW133043   0.629   7.109   4.975
 7004SOL    HW233044   0.751   7.030   4.901
 7005SOL     OW33045   7.369   5.142   6.320
 7005SOL    HW133046   7.292   5.191   6.362
 7005SOL    HW233047   7.382   5.055   6.367
 7006SOL     OW33048   9.169   0.778   0.514
 7006SOL    HW133049   9.242   0.722   0.552
 7006SOL    HW233050   9.085   0.724   0.508
 7007SOL     OW33051   1.022   7.000   5.773
 7007SOL    HW133052   0.931   6.963   5.752
 7007SOL    HW233053   1.089   6.926   5.767
 7008SOL     OW33054   5.715   2.898   1.334
 7008SOL    HW133055   5.692   2.918   1.429
 7008SOL    HW233056   5.722   2.983   1.282
 7009SOL     OW33057   7.652   4.155   1.838
 7009SOL    HW133058   7.731   4.111   1.798
 7009SOL    HW233059   7.642   4.247   1.800
 7010SOL     OW33060   4.357   6.198   5.701
 7010SOL    HW133061   4.299   6.277   5.719
 7010SOL    HW233062   4.423   6.187   5.776
 7011SOL     OW33063   8.313   0.642   6.615
 7011SOL    HW133064   8.303   0.670   6.710
 7011SOL    HW233065   8.239   0.579   6.590
 7012SOL     OW33066   0.418   2.892   5.190
 7012SOL    HW133067   0.403   2.972   5.131
 7012SOL    HW233068   0.414   2.809   5.135
 7013SOL     OW33069   7.304   4.738   5.996
 7013SOL    HW133070   7.381   4.763   6.056
 7013SOL    HW233071   7.225   4.713   6.053
 7014SOL     OW33072   3.545   5.875   5.869
 7014SOL    HW133073   3.603   5.922   5.802
 7014SOL    HW233074   3.505   5.943   5.931
 7015SOL     OW33075   0.798   2.067   6.632
 7015SOL    HW133076   0.854   2.110   6.562
 7015SOL    HW233077   0.758   1.982   6.596
 7016SOL     OW33078   1.769   5.052   0.913
 7016SOL    HW133079   1.682   5.004   0.904
 7016SOL    HW233080   1.790   5.098   0.827
 7017SOL     OW33081   7.852   8.221   0.067
 7017SOL    HW133082   7.855   8.299   0.130
 7017SOL    HW233083   7.856   8.136   0.120
 7018SOL     OW33084   2.756   5.269   5.836
 7018SOL    HW133085   2.756   5.230   5.928
 7018SOL    HW233086   2.843   5.249   5.791
 7019SOL     OW33087   3.705   7.604   6.496
 7019SOL    HW133088   3.613   7.567   6.482
 7019SOL    HW233089   3.737   7.579   6.587
 7020SOL     OW33090   0.681   6.461   6.579
 7020SOL    HW133091   0.645   6.544   6.537
 7020SOL    HW233092   0.781   6.460   6.568
 7021SOL     OW33093   6.270   2.703   0.744
 7021SOL    HW133094   6.317   2.620   0.714
 7021SOL    HW233095   6.305   2.730   0.834
 7022SOL     OW33096   1.425   5.336   1.209
 7022SOL    HW133097   1.481   5.394   1.269
 7022SOL    HW233098   1.432   5.241   1.240
 7023SOL     OW33099   1.371   1.947   4.847
 7023SOL    HW133100   1.458   1.994   4.838
 7023SOL    HW233101   1.362   1.879   4.774
 7024SOL     OW33102   9.457   4.563   6.170
 7024SOL    HW133103   9.517   4.607   6.238
 7024SOL    HW233104   9.473   4.464   6.171
 7025SOL     OW33105   2.594   5.999   6.631
 7025SOL    HW133106   2.540   6.071   6.588
 7025SOL    HW233107   2.641   6.035   6.711
 7026SOL     OW33108   5.312   1.705   6.292
 7026SOL    HW133109   5.388   1.664   6.242
 7026SOL    HW233110   5.226   1.672   6.253
 7027SOL     OW33111   4.902   4.298   5.281
 7027SOL    HW133112   4.982   4.259   5.235
 7027SOL    HW233113   4.823   4.237   5.267
 7028SOL     OW33114   6.982   1.318   1.565
 7028SOL    HW133115   7.053   1.387   1.547
 7028SOL    HW233116   6.900   1.363   1.601
 7029SOL     OW33117   8.206   2.057   6.618
 7029SOL    HW133118   8.302   2.047   6.590
 7029SOL    HW233119   8.149   1.996   6.563
 7030SOL     OW33120   1.687   6.925   0.457
 7030SOL    HW133121   1.656   6.833   0.481
 7030SOL    HW233122   1.665   6.944   0.361
 7031SOL     OW33123   5.273   7.124   0.422
 7031SOL    HW133124   5.335   7.144   0.345
 7031SOL    HW233125   5.198   7.066   0.390
 7032SOL     OW33126   5.916   5.476   4.992
 7032SOL    HW133127   5.869   5.544   4.935
 7032SOL    HW233128   6.013   5.500   4.998
 7033SOL     OW33129   2.118   6.856   0.303
 7033SOL    HW133130   2.077   6.832   0.392
 7033SOL    HW233131   2.098   6.951   0.282
 7034SOL     OW33132   0.105   7.857   4.713
 7034SOL    HW133133   0.084   7.938   4.768
 7034SOL    HW233134   0.204   7.851   4.699
 7035SOL     OW33135   3.960   2.063   2.359
 7035SOL    HW133136   3.878   2.038   2.410
 7035SOL    HW233137   3.970   2.162   2.357
 7036SOL     OW33138   4.585   6.126   5.567
 7036SOL    HW133139   4.496   6.161   5.595
 7036SOL    HW233140   4.596   6.136   5.468
 7037SOL     OW33141   6.361   0.030   6.733
 7037SOL    HW133142   6.293   0.082   6.681
 7037SOL    HW233143   6.355   0.055   6.830
 7038SOL     OW33144   1.768   5.926   6.283
 7038SOL    HW133145   1.847   5.874   6.249
 7038SOL    HW233146   1.688   5.906   6.226
 7039SOL     OW33147   4.393   4.457   5.761
 7039SOL    HW133148   4.391   4.358   5.749
 7039SOL    HW233149   4.321   4.499   5.704
 7040SOL     OW33150   3.540   7.898   0.183
 7040SOL    HW133151   3.570   7.977   0.129
 7040SOL    HW233152   3.565   7.814   0.136
 7041SOL     OW33153   2.966   5.236   0.839
 7041SOL    HW133154   2.941   5.331   0.820
 7041SOL    HW233155   2.973   5.221   0.937
 7042SOL     OW33156   9.071   6.172   6.459
 7042SOL    HW133157   9.094   6.160   6.556
 7042SOL    HW233158   8.988   6.228   6.451
 7043SOL     OW33159   8.742   7.064   5.443
 7043SOL    HW133160   8.743   6.965   5.425
 7043SOL    HW233161   8.826   7.090   5.491
 7044SOL     OW33162   3.037   0.331   0.358
 7044SOL    HW133163   3.061   0.306   0.451
 7044SOL    HW233164   2.949   0.291   0.334
 7045SOL     OW33165   6.656   2.805   0.563
 7045SOL    HW133166   6.749   2.811   0.525
 7045SOL    HW233167   6.599   2.877   0.522
 7046SOL     OW33168   2.134   5.689   4.716
 7046SOL    HW133169   2.152   5.716   4.622
 7046SOL    HW233170   2.213   5.709   4.773
 7047SOL     OW33171   8.328   8.035   1.402
 7047SOL    HW133172   8.303   7.982   1.483
 7047SOL    HW233173   8.313   8.132   1.419
 7048SOL     OW33174   8.744   0.504   6.229
 7048SOL    HW133175   8.764   0.406   6.234
 7048SOL    HW233176   8.763   0.537   6.136
 7049SOL     OW33177   4.200   3.920   5.947
 7049SOL    HW133178   4.169   3.992   5.885
 7049SOL    HW233179   4.262   3.859   5.898
 7050SOL     OW33180   3.309   3.337   6.166
 7050SOL    HW133181   3.344   3.259   6.218
 7050SOL    HW233182   3.368   3.416   6.182
 7051SOL     OW33183   4.814   3.367   1.431
 7051SOL    HW133184   4.822   3.459   1.393
 7051SOL    HW233185   4.894   3.313   1.404
 7052SOL     OW33186   0.770   3.579   4.935
 7052SOL    HW133187   0.741   3.673   4.952
 7052SOL    HW233188   0.839   3.578   4.863
 7053SOL     OW33189   8.008   6.368   6.513
 7053SOL    HW133190   8.012   6.307   6.434
 7053SOL    HW233191   8.028   6.462   6.483
 7054SOL     OW33192   6.905   6.436   0.557
 7054SOL    HW133193   6.972   6.406   0.489
 7054SOL    HW233194   6.908   6.536   0.565
 7055SOL     OW33195   8.147   7.349   5.516
 7055SOL    HW133196   8.244   7.343   5.490
 7055SOL    HW233197   8.091   7.310   5.443
 7056SOL     OW33198   9.107   3.848   5.972
 7056SOL    HW133199   9.099   3.749   5.975
 7056SOL    HW233200   9.035   3.889   6.028
 7057SOL     OW33201   3.937   6.888   0.981
 7057SOL    HW133202   3.943   6.788   0.974
 7057SOL    HW233203   3.846   6.914   1.015
 7058SOL     OW33204   2.411   3.048   1.502
 7058SOL    HW133205   2.411   2.950   1.480
 7058SOL    HW233206   2.406   3.060   1.601
 7059SOL     OW33207   5.780   8.480   5.686
 7059SOL    HW133208   5.742   8.394   5.651
 7059SOL    HW233209   5.821   8.464   5.775
 7060SOL     OW33210   7.119   7.633   0.477
 7060SOL    HW133211   7.112   7.685   0.392
 7060SOL    HW233212   7.199   7.574   0.475
 7061SOL     OW33213   8.997   8.004   6.345
 7061SOL    HW133214   8.963   7.911   6.335
 7061SOL    HW233215   9.071   8.020   6.280
 7062SOL     OW33216   3.211   5.355   6.222
 7062SOL    HW133217   3.131   5.295   6.218
 7062SOL    HW233218   3.240   5.378   6.129
 7063SOL     OW33219   4.677   5.397   2.061
 7063SOL    HW133220   4.776   5.410   2.071
 7063SOL    HW233221   4.630   5.484   2.077
 7064SOL     OW33222   1.910   5.417   0.624
 7064SOL    HW133223   2.002   5.377   0.628
 7064SOL    HW233224   1.891   5.466   0.710
 7065SOL     OW33225   3.892   0.957   4.949
 7065SOL    HW133226   3.960   0.900   4.903
 7065SOL    HW233227   3.911   0.960   5.047
 7066SOL     OW33228   3.817   1.680   0.544
 7066SOL    HW133229   3.842   1.767   0.501
 7066SOL    HW233230   3.898   1.621   0.548
 7067SOL     OW33231   4.520   3.963   5.223
 7067SOL    HW133232   4.485   3.873   5.199
 7067SOL    HW233233   4.457   4.033   5.192
 7068SOL     OW33234   7.740   7.131   5.464
 7068SOL    HW133235   7.838   7.135   5.445
 7068SOL    HW233236   7.690   7.129   5.378
 7069SOL     OW33237   1.558   1.569   0.845
 7069SOL    HW133238   1.587   1.503   0.914
 7069SOL    HW233239   1.524   1.519   0.764
 7070SOL     OW33240   3.540   8.170   6.304
 7070SOL    HW133241   3.444   8.179   6.277
 7070SOL    HW233242   3.555   8.215   6.391
 7071SOL     OW33243   1.940   5.552   5.949
 7071SOL    HW133244   2.010   5.624   5.953
 7071SOL    HW233245   1.949   5.503   5.862
 7072SOL     OW33246   9.241   6.050   6.300
 7072SOL    HW133247   9.162   6.098   6.338
 7072SOL    HW233248   9.323   6.073   6.353
 7073SOL     OW33249   1.863   1.844   6.445
 7073SOL    HW133250   1.833   1.774   6.510
 7073SOL    HW233251   1.963   1.844   6.440
 7074SOL     OW33252   5.844   5.812   0.293
 7074SOL    HW133253   5.906   5.869   0.239
 7074SOL    HW233254   5.895   5.733   0.328
 7075SOL     OW33255   4.116   3.652   0.191
 7075SOL    HW133256   4.175   3.601   0.129
 7075SOL    HW233257   4.087   3.737   0.146
 7076SOL     OW33258   5.306   7.103   1.314
 7076SOL    HW133259   5.382   7.043   1.338
 7076SOL    HW233260   5.280   7.157   1.394
 7077SOL     OW33261   6.285   7.748   1.586
 7077SOL    HW133262   6.236   7.687   1.649
 7077SOL    HW233263   6.382   7.723   1.584
 7078SOL     OW33264   4.195   4.486   5.964
 7078SOL    HW133265   4.210   4.438   5.878
 7078SOL    HW233266   4.217   4.583   5.952
 7079SOL     OW33267   4.711   2.003   6.402
 7079SOL    HW133268   4.687   1.996   6.499
 7079SOL    HW233269   4.629   2.026   6.349
 7080SOL     OW33270   4.803   4.073   1.816
 7080SOL    HW133271   4.796   4.167   1.849
 7080SOL    HW233272   4.734   4.016   1.860
 7081SOL     OW33273   4.507   3.003   0.369
 7081SOL    HW133274   4.452   3.005   0.286
 7081SOL    HW233275   4.590   3.058   0.356
 7082SOL     OW33276   1.364   6.820   0.401
 7082SOL    HW133277   1.299   6.783   0.335
 7082SOL    HW233278   1.437   6.869   0.353
 7083SOL     OW33279   6.166   2.986   5.653
 7083SOL    HW133280   6.223   2.915   5.612
 7083SOL    HW233281   6.082   2.997   5.599
 7084SOL     OW33282   2.785   5.054   0.750
 7084SOL    HW133283   2.783   4.962   0.791
 7084SOL    HW233284   2.853   5.109   0.797
 7085SOL     OW33285   1.214   2.262   6.323
 7085SOL    HW133286   1.153   2.216   6.258
 7085SOL    HW233287   1.190   2.234   6.416
 7086SOL     OW33288   2.215   0.948   6.400
 7086SOL    HW133289   2.180   0.962   6.492
 7086SOL    HW233290   2.271   0.865   6.397
 7087SOL     OW33291   3.737   6.206   1.204
 7087SOL    HW133292   3.647   6.244   1.185
 7087SOL    HW233293   3.740   6.111   1.174
 7088SOL     OW33294   1.364   6.067   6.243
 7088SOL    HW133295   1.291   6.064   6.311
 7088SOL    HW233296   1.370   5.978   6.197
 7089SOL     OW33297   3.647   4.238   5.590
 7089SOL    HW133298   3.568   4.297   5.599
 7089SOL    HW233299   3.726   4.291   5.558
 7090SOL     OW33300   4.049   6.753   6.314
 7090SOL    HW133301   4.023   6.818   6.243
 7090SOL    HW233302   4.006   6.779   6.400
 7091SOL     OW33303   3.606   3.765   1.511
 7091SOL    HW133304   3.651   3.748   1.599
 7091SOL    HW233305   3.538   3.837   1.521
 7092SOL     OW33306   3.799   0.566   5.742
 7092SOL    HW133307   3.783   0.582   5.839
 7092SOL    HW233308   3.824   0.652   5.697
 7093SOL     OW33309   5.658   6.866   6.298
 7093SOL    HW133310   5.685   6.822   6.213
 7093SOL    HW233311   5.600   6.945   6.278
 7094SOL     OW33312   3.650   8.040   5.694
 7094SOL    HW133313   3.731   8.098   5.684
 7094SOL    HW233314   3.651   7.996   5.784
 7095SOL     OW33315   6.627   4.051   0.487
 7095SOL    HW133316   6.552   3.986   0.492
 7095SOL    HW233317   6.676   4.052   0.574
 7096SOL     OW33318   0.818   1.158   1.223
 7096SOL    HW133319   0.750   1.230   1.208
 7096SOL    HW233320   0.791   1.103   1.302
 7097SOL     OW33321   3.125   2.706   6.320
 7097SOL    HW133322   3.218   2.734   6.344
 7097SOL    HW233323   3.119   2.606   6.317
 7098SOL     OW33324   2.475   7.507   5.553
 7098SOL    HW133325   2.461   7.444   5.477
 7098SOL    HW233326   2.401   7.574   5.556
 7099SOL     OW33327   0.458   4.181   0.314
 7099SOL    HW133328   0.435   4.084   0.316
 7099SOL    HW233329   0.374   4.234   0.303
 7100SOL     OW33330   0.560   1.386   0.858
 7100SOL    HW133331   0.543   1.454   0.930
 7100SOL    HW233332   0.585   1.299   0.899
 7101SOL     OW33333   9.006   2.277   5.773
 7101SOL    HW133334   9.030   2.213   5.700
 7101SOL    HW233335   8.908   2.297   5.769
 7102SOL     OW33336   7.726   3.954   6.062
 7102SOL    HW133337   7.737   3.870   6.114
 7102SOL    HW233338   7.702   4.029   6.124
 7103SOL     OW33339   7.103   6.452   4.882
 7103SOL    HW133340   7.091   6.362   4.840
 7103SOL    HW233341   7.104   6.523   4.811
 7104SOL     OW33342   4.907   5.552   1.969
 7104SOL    HW133343   4.946   5.599   1.890
 7104SOL    HW233344   4.926   5.454   1.961
 7105SOL     OW33345   2.199   2.901   0.693
 7105SOL    HW133346   2.279   2.926   0.748
 7105SOL    HW233347   2.119   2.951   0.727
 7106SOL     OW33348   6.268   1.207   6.644
 7106SOL    HW133349   6.343   1.156   6.686
 7106SOL    HW233350   6.265   1.299   6.682
 7107SOL     OW33351   2.371   7.940   6.178
 7107SOL    HW133352   2.345   7.976   6.268
 7107SOL    HW233353   2.369   8.015   6.112
 7108SOL     OW33354   5.027   3.889   5.942
 7108SOL    HW133355   5.090   3.832   5.995
 7108SOL    HW233356   5.066   3.909   5.852
 7109SOL     OW33357   1.259   1.299   6.212
 7109SOL    HW133358   1.241   1.216   6.159
 7109SOL    HW233359   1.327   1.355   6.165
 7110SOL     OW33360   3.172   0.557   6.515
 7110SOL    HW133361   3.206   0.488   6.578
 7110SOL    HW233362   3.138   0.636   6.567
 7111SOL     OW33363   2.017   2.527   1.035
 7111SOL    HW133364   1.970   2.484   0.957
 7111SOL    HW233365   1.961   2.601   1.071
 7112SOL     OW33366   2.914   2.901   0.338
 7112SOL    HW133367   2.932   2.933   0.245
 7112SOL    HW233368   2.986   2.934   0.399
 7113SOL     OW33369   5.812   3.905   5.417
 7113SOL    HW133370   5.714   3.882   5.419
 7113SOL    HW233371   5.861   3.850   5.484
 7114SOL     OW33372   3.597   5.261   5.363
 7114SOL    HW133373   3.528   5.189   5.363
 7114SOL    HW233374   3.634   5.272   5.455
 7115SOL     OW33375   7.891   4.531   6.008
 7115SOL    HW133376   7.836   4.604   5.968
 7115SOL    HW233377   7.977   4.524   5.959
 7116SOL     OW33378   8.143   5.710   5.886
 7116SOL    HW133379   8.071   5.776   5.908
 7116SOL    HW233380   8.225   5.760   5.858
 7117SOL     OW33381   1.797   1.152   0.140
 7117SOL    HW133382   1.864   1.210   0.093
 7117SOL    HW233383   1.775   1.190   0.229
 7118SOL     OW33384   2.653   0.917   5.908
 7118SOL    HW133385   2.723   0.903   5.837
 7118SOL    HW233386   2.641   0.833   5.960
 7119SOL     OW33387   7.694   3.842   0.994
 7119SOL    HW133388   7.615   3.867   1.050
 7119SOL    HW233389   7.710   3.912   0.925
 7120SOL     OW33390   7.816   8.200   6.538
 7120SOL    HW133391   7.805   8.227   6.634
 7120SOL    HW233392   7.734   8.151   6.508
 7121SOL     OW33393   5.887   7.446   0.103
 7121SOL    HW133394   5.881   7.367   0.165
 7121SOL    HW233395   5.796   7.484   0.089
 7122SOL     OW33396   3.288   5.831   1.319
 7122SOL    HW133397   3.360   5.866   1.379
 7122SOL    HW233398   3.287   5.731   1.324
 7123SOL     OW33399   4.559   2.315   5.677
 7123SOL    HW133400   4.649   2.273   5.677
 7123SOL    HW233401   4.549   2.375   5.597
 7124SOL     OW33402   0.292   6.842   5.083
 7124SOL    HW133403   0.365   6.780   5.053
 7124SOL    HW233404   0.249   6.884   5.003
 7125SOL     OW33405   5.500   5.975   5.632
 7125SOL    HW133406   5.514   6.070   5.660
 7125SOL    HW233407   5.437   5.973   5.554
 7126SOL     OW33408   1.355   3.245   1.106
 7126SOL    HW133409   1.449   3.224   1.132
 7126SOL    HW233410   1.299   3.258   1.188
 7127SOL     OW33411   7.562   0.235   0.279
 7127SOL    HW133412   7.638   0.299   0.284
 7127SOL    HW233413   7.481   0.275   0.322
 7128SOL     OW33414   7.289   4.133   0.472
 7128SOL    HW133415   7.238   4.096   0.393
 7128SOL    HW233416   7.230   4.132   0.553
 7129SOL     OW33417   9.056   2.233   0.877
 7129SOL    HW133418   9.153   2.245   0.855
 7129SOL    HW233419   9.046   2.161   0.945
 7130SOL     OW33420   4.727   2.319   1.078
 7130SOL    HW133421   4.701   2.340   1.172
 7130SOL    HW233422   4.683   2.384   1.016
 7131SOL     OW33423   5.294   0.100   0.848
 7131SOL    HW133424   5.291   0.001   0.861
 7131SOL    HW233425   5.302   0.145   0.937
 7132SOL     OW33426   0.284   7.629   0.565
 7132SOL    HW133427   0.275   7.678   0.652
 7132SOL    HW233428   0.314   7.535   0.583
 7133SOL     OW33429   3.467   8.187   5.149
 7133SOL    HW133430   3.521   8.221   5.072
 7133SOL    HW233431   3.461   8.257   5.219
 7134SOL     OW33432   5.723   7.616   5.642
 7134SOL    HW133433   5.759   7.524   5.625
 7134SOL    HW233434   5.712   7.628   5.741
 7135SOL     OW33435   0.448   5.589   5.183
 7135SOL    HW133436   0.493   5.528   5.119
 7135SOL    HW233437   0.372   5.635   5.138
 7136SOL     OW33438   2.255   5.342   0.883
 7136SOL    HW133439   2.215   5.303   0.966
 7136SOL    HW233440   2.223   5.437   0.873
 7137SOL     OW33441   2.943   3.238   0.439
 7137SOL    HW133442   2.972   3.148   0.408
 7137SOL    HW233443   3.007   3.271   0.509
 7138SOL     OW33444   2.570   4.399   6.692
 7138SOL    HW133445   2.497   4.467   6.683
 7138SOL    HW233446   2.529   4.307   6.690
 7139SOL     OW33447   2.540   3.741   0.466
 7139SOL    HW133448   2.496   3.804   0.403
 7139SOL    HW233449   2.639   3.756   0.464
 7140SOL     OW33450   3.606   4.953   6.593
 7140SOL    HW133451   3.542   4.951   6.669
 7140SOL    HW233452   3.652   5.042   6.590
 7141SOL     OW33453   3.018   7.383   1.050
 7141SOL    HW133454   3.049   7.478   1.049
 7141SOL    HW233455   3.090   7.324   1.087
 7142SOL     OW33456   0.136   2.965   5.651
 7142SOL    HW133457   0.206   2.943   5.583
 7142SOL    HW233458   0.107   3.060   5.640
 7143SOL     OW33459   3.458   6.405   1.653
 7143SOL    HW133460   3.410   6.354   1.724
 7143SOL    HW233461   3.391   6.458   1.600
 7144SOL     OW33462   0.780   2.107   6.188
 7144SOL    HW133463   0.704   2.165   6.217
 7144SOL    HW233464   0.810   2.134   6.097
 7145SOL     OW33465   1.405   0.474   5.494
 7145SOL    HW133466   1.495   0.518   5.500
 7145SOL    HW233467   1.416   0.376   5.483
 7146SOL     OW33468   7.817   6.939   0.536
 7146SOL    HW133469   7.821   6.851   0.584
 7146SOL    HW233470   7.900   6.951   0.482
 7147SOL     OW33471   9.024   0.895   6.242
 7147SOL    HW133472   8.937   0.898   6.193
 7147SOL    HW233473   9.081   0.972   6.213
 7148SOL     OW33474   2.557   2.727   6.273
 7148SOL    HW133475   2.467   2.707   6.311
 7148SOL    HW233476   2.628   2.689   6.332
 7149SOL     OW33477   8.238   8.355   5.882
 7149SOL    HW133478   8.219   8.310   5.969
 7149SOL    HW233479   8.152   8.379   5.837
 7150SOL     OW33480   6.450   6.427   6.694
 7150SOL    HW133481   6.532   6.370   6.682
 7150SOL    HW233482   6.453   6.471   6.784
 7151SOL     OW33483   6.375   2.322   1.053
 7151SOL    HW133484   6.440   2.370   0.995
 7151SOL    HW233485   6.291   2.303   1.002
 7152SOL     OW33486   6.016   3.076   6.379
 7152SOL    HW133487   6.072   3.034   6.307
 7152SOL    HW233488   5.919   3.070   6.354
 7153SOL     OW33489   6.971   6.303   0.834
 7153SOL    HW133490   6.950   6.327   0.928
 7153SOL    HW233491   6.965   6.384   0.776
 7154SOL     OW33492   6.259   6.028   0.127
 7154SOL    HW133493   6.172   6.006   0.172
 7154SOL    HW233494   6.242   6.062   0.035
 7155SOL     OW33495   1.159   5.739   5.713
 7155SOL    HW133496   1.231   5.759   5.646
 7155SOL    HW233497   1.072   5.774   5.679
 7156SOL     OW33498   5.076   8.143   5.164
 7156SOL    HW133499   5.066   8.053   5.207
 7156SOL    HW233500   5.019   8.147   5.082
 7157SOL     OW33501   1.184   4.855   6.661
 7157SOL    HW133502   1.165   4.824   6.567
 7157SOL    HW233503   1.282   4.853   6.677
 7158SOL     OW33504   2.642   6.276   0.275
 7158SOL    HW133505   2.546   6.263   0.301
 7158SOL    HW233506   2.647   6.324   0.188
 7159SOL     OW33507   1.985   1.342   1.201
 7159SOL    HW133508   1.958   1.314   1.294
 7159SOL    HW233509   1.951   1.434   1.182
 7160SOL     OW33510   8.136   0.895   0.592
 7160SOL    HW133511   8.128   0.927   0.687
 7160SOL    HW233512   8.170   0.968   0.534
 7161SOL     OW33513   1.864   6.335   1.634
 7161SOL    HW133514   1.862   6.245   1.677
 7161SOL    HW233515   1.879   6.325   1.535
 7162SOL     OW33516   6.737   6.924   5.677
 7162SOL    HW133517   6.808   6.942   5.608
 7162SOL    HW233518   6.759   6.840   5.726
 7163SOL     OW33519   1.120   3.849   5.569
 7163SOL    HW133520   1.059   3.913   5.522
 7163SOL    HW233521   1.074   3.814   5.652
 7164SOL     OW33522   2.628   2.892   0.050
 7164SOL    HW133523   2.639   2.983   0.010
 7164SOL    HW233524   2.693   2.830   0.008
 7165SOL     OW33525   3.480   3.639   0.888
 7165SOL    HW133526   3.417   3.578   0.936
 7165SOL    HW233527   3.562   3.653   0.943
 7166SOL     OW33528   0.066   7.543   6.039
 7166SOL    HW133529   0.132   7.478   6.002
 7166SOL    HW233530   0.111   7.630   6.057
 7167SOL     OW33531   8.543   8.161   6.730
 7167SOL    HW133532   8.490   8.202   6.656
 7167SOL    HW233533   8.612   8.226   6.761
 7168SOL     OW33534   2.431   5.398   6.371
 7168SOL    HW133535   2.400   5.360   6.284
 7168SOL    HW233536   2.377   5.480   6.393
 7169SOL     OW33537   9.040   0.955   6.531
 7169SOL    HW133538   8.947   0.930   6.557
 7169SOL    HW233539   9.054   0.934   6.434
 7170SOL     OW33540   2.308   6.962   5.538
 7170SOL    HW133541   2.342   6.942   5.446
 7170SOL    HW233542   2.385   6.975   5.600
 7171SOL     OW33543   3.368   3.039   0.820
 7171SOL    HW133544   3.269   3.038   0.810
 7171SOL    HW233545   3.407   3.115   0.769
 7172SOL     OW33546   8.512   1.021   6.195
 7172SOL    HW133547   8.440   0.987   6.134
 7172SOL    HW233548   8.601   1.005   6.152
 7173SOL     OW33549   6.281   7.830   5.919
 7173SOL    HW133550   6.224   7.884   5.981
 7173SOL    HW233551   6.223   7.763   5.871
 7174SOL     OW33552   3.020   6.138   0.118
 7174SOL    HW133553   2.977   6.192   0.046
 7174SOL    HW233554   3.030   6.194   0.200
 7175SOL     OW33555   4.877   8.327   4.556
 7175SOL    HW133556   4.826   8.244   4.536
 7175SOL    HW233557   4.951   8.337   4.489
 7176SOL     OW33558   0.827   1.626   0.059
 7176SOL    HW133559   0.745   1.650   0.009
 7176SOL    HW233560   0.897   1.592  -0.004
 7177SOL     OW33561   4.344   2.973   0.587
 7177SOL    HW133562   4.340   3.055   0.644
 7177SOL    HW233563   4.421   2.981   0.523
 7178SOL     OW33564   0.672   0.152   6.559
 7178SOL    HW133565   0.587   0.101   6.545
 7178SOL    HW233566   0.734   0.099   6.616
 7179SOL     OW33567   8.291   3.226   6.640
 7179SOL    HW133568   8.191   3.228   6.637
 7179SOL    HW233569   8.327   3.251   6.551
 7180SOL     OW33570   3.326   3.615   1.578
 7180SOL    HW133571   3.416   3.633   1.617
 7180SOL    HW233572   3.257   3.665   1.630
 7181SOL     OW33573   4.700   7.129   5.653
 7181SOL    HW133574   4.629   7.147   5.721
 7181SOL    HW233575   4.766   7.064   5.690
 7182SOL     OW33576   5.273   5.789   0.195
 7182SOL    HW133577   5.300   5.794   0.291
 7182SOL    HW233578   5.189   5.841   0.181
 7183SOL     OW33579   9.207   4.075   0.366
 7183SOL    HW133580   9.155   4.023   0.433
 7183SOL    HW233581   9.249   4.012   0.300
 7184SOL     OW33582   2.958   7.897   6.526
 7184SOL    HW133583   2.970   7.995   6.511
 7184SOL    HW233584   3.033   7.863   6.582
 7185SOL     OW33585   3.329   2.681   6.000
 7185SOL    HW133586   3.362   2.618   6.070
 7185SOL    HW233587   3.278   2.630   5.931
 7186SOL     OW33588   0.311   5.292   5.220
 7186SOL    HW133589   0.288   5.303   5.124
 7186SOL    HW233590   0.279   5.203   5.253
 7187SOL     OW33591   3.090   3.212   0.082
 7187SOL    HW133592   3.013   3.150   0.066
 7187SOL    HW233593   3.056   3.305   0.094
 7188SOL     OW33594   1.256   1.882   6.437
 7188SOL    HW133595   1.295   1.822   6.366
 7188SOL    HW233596   1.159   1.863   6.447
 7189SOL     OW33597   5.059   0.330   0.572
 7189SOL    HW133598   5.053   0.363   0.667
 7189SOL    HW233599   5.153   0.307   0.550
 7190SOL     OW33600   2.290   8.375   5.432
 7190SOL    HW133601   2.208   8.377   5.374
 7190SOL    HW233602   2.352   8.449   5.406
 7191SOL     OW33603   2.665   4.577   6.165
 7191SOL    HW133604   2.760   4.545   6.162
 7191SOL    HW233605   2.664   4.675   6.186
 7192SOL     OW33606   4.148   5.188   5.750
 7192SOL    HW133607   4.245   5.165   5.754
 7192SOL    HW233608   4.123   5.209   5.655
 7193SOL     OW33609   6.757   7.036   6.709
 7193SOL    HW133610   6.717   7.089   6.635
 7193SOL    HW233611   6.855   7.052   6.712
 7194SOL     OW33612   1.784   2.013   1.135
 7194SOL    HW133613   1.758   2.109   1.143
 7194SOL    HW233614   1.838   1.986   1.215
 7195SOL     OW33615   2.842   2.165   1.286
 7195SOL    HW133616   2.844   2.243   1.223
 7195SOL    HW233617   2.846   2.080   1.234
 7196SOL     OW33618   4.376   0.324   1.136
 7196SOL    HW133619   4.284   0.353   1.161
 7196SOL    HW233620   4.371   0.251   1.068
 7197SOL     OW33621   3.065   4.439   0.773
 7197SOL    HW133622   3.066   4.343   0.803
 7197SOL    HW233623   3.122   4.449   0.692
 7198SOL     OW33624   2.691   3.380   1.806
 7198SOL    HW133625   2.598   3.370   1.771
 7198SOL    HW233626   2.701   3.468   1.851
 7199SOL     OW33627   6.974   2.417   1.403
 7199SOL    HW133628   7.018   2.504   1.423
 7199SOL    HW233629   6.890   2.433   1.350
 7200SOL     OW33630   0.214   4.643   0.003
 7200SOL    HW133631   0.210   4.572  -0.067
 7200SOL    HW233632   0.270   4.719  -0.030
 7201SOL     OW33633   5.354   4.580   0.648
 7201SOL    HW133634   5.394   4.531   0.571
 7201SOL    HW233635   5.352   4.678   0.629
 7202SOL     OW33636   9.038   0.148   6.082
 7202SOL    HW133637   9.121   0.092   6.078
 7202SOL    HW233638   8.959   0.088   6.098
 7203SOL     OW33639   6.362   7.546   6.210
 7203SOL    HW133640   6.350   7.494   6.126
 7203SOL    HW233641   6.393   7.485   6.283
 7204SOL     OW33642   8.071   1.845   6.452
 7204SOL    HW133643   8.012   1.864   6.374
 7204SOL    HW233644   8.059   1.750   6.481
 7205SOL     OW33645   3.510   5.971   0.729
 7205SOL    HW133646   3.484   6.013   0.816
 7205SOL    HW233647   3.428   5.954   0.674
 7206SOL     OW33648   2.327   4.247   6.486
 7206SOL    HW133649   2.384   4.302   6.424
 7206SOL    HW233650   2.235   4.287   6.489
 7207SOL     OW33651   2.503   0.710   1.809
 7207SOL    HW133652   2.553   0.674   1.730
 7207SOL    HW233653   2.487   0.636   1.874
 7208SOL     OW33654   3.877   3.530   0.207
 7208SOL    HW133655   3.820   3.553   0.129
 7208SOL    HW233656   3.965   3.578   0.199
 7209SOL     OW33657   5.245   3.199   1.123
 7209SOL    HW133658   5.190   3.176   1.203
 7209SOL    HW233659   5.227   3.132   1.050
 7210SOL     OW33660   3.883   4.390   5.529
 7210SOL    HW133661   3.927   4.302   5.513
 7210SOL    HW233662   3.840   4.422   5.445
 7211SOL     OW33663   9.168   2.610   0.446
 7211SOL    HW133664   9.208   2.701   0.455
 7211SOL    HW233665   9.079   2.608   0.491
 7212SOL     OW33666   4.718   4.465   5.455
 7212SOL    HW133667   4.773   4.415   5.388
 7212SOL    HW233668   4.709   4.410   5.538
 7213SOL     OW33669   6.966   2.034   0.325
 7213SOL    HW133670   6.891   2.003   0.267
 7213SOL    HW233671   6.935   2.110   0.382
 7214SOL     OW33672   6.965   0.182   6.003
 7214SOL    HW133673   7.055   0.171   6.045
 7214SOL    HW233674   6.920   0.092   5.998
 7215SOL     OW33675   4.684   5.456   6.003
 7215SOL    HW133676   4.644   5.394   5.936
 7215SOL    HW233677   4.777   5.427   6.023
 7216SOL     OW33678   8.625   2.151   5.194
 7216SOL    HW133679   8.673   2.183   5.112
 7216SOL    HW233680   8.565   2.074   5.170
 7217SOL     OW33681   3.682   0.838   6.722
 7217SOL    HW133682   3.751   0.878   6.661
 7217SOL    HW233683   3.699   0.739   6.730
 7218SOL     OW33684   3.218   8.082   1.279
 7218SOL    HW133685   3.164   8.143   1.335
 7218SOL    HW233686   3.260   8.011   1.336
 7219SOL     OW33687   8.454   2.140   6.451
 7219SOL    HW133688   8.551   2.123   6.437
 7219SOL    HW233689   8.401   2.092   6.381
 7220SOL     OW33690   5.478   1.940   0.735
 7220SOL    HW133691   5.398   1.991   0.705
 7220SOL    HW233692   5.468   1.844   0.710
 7221SOL     OW33693   5.885   6.137   1.593
 7221SOL    HW133694   5.926   6.090   1.671
 7221SOL    HW233695   5.839   6.221   1.623
 7222SOL     OW33696   7.943   2.135   0.382
 7222SOL    HW133697   7.961   2.157   0.478
 7222SOL    HW233698   7.844   2.135   0.366
 7223SOL     OW33699   4.556   2.615   5.599
 7223SOL    HW133700   4.567   2.589   5.503
 7223SOL    HW233701   4.462   2.596   5.628
 7224SOL     OW33702   4.984   1.291   1.466
 7224SOL    HW133703   5.070   1.285   1.516
 7224SOL    HW233704   4.926   1.360   1.509
 7225SOL     OW33705   5.020   7.375   0.066
 7225SOL    HW133706   4.963   7.416   0.137
 7225SOL    HW233707   5.019   7.432  -0.016
 7226SOL     OW33708   5.864   8.033   5.488
 7226SOL    HW133709   5.896   8.037   5.393
 7226SOL    HW233710   5.943   8.022   5.549
 7227SOL     OW33711   8.619   2.940   5.767
 7227SOL    HW133712   8.653   3.017   5.713
 7227SOL    HW233713   8.636   2.958   5.864
 7228SOL     OW33714   8.479   8.101   0.243
 7228SOL    HW133715   8.484   8.142   0.152
 7228SOL    HW233716   8.555   8.037   0.255
 7229SOL     OW33717   1.374   4.386   6.081
 7229SOL    HW133718   1.386   4.307   6.141
 7229SOL    HW233719   1.321   4.359   6.001
 7230SOL     OW33720   5.353   5.693   6.563
 7230SOL    HW133721   5.373   5.791   6.558
 7230SOL    HW233722   5.372   5.659   6.655
 7231SOL     OW33723   8.395   2.516   5.843
 7231SOL    HW133724   8.473   2.572   5.870
 7231SOL    HW233725   8.332   2.571   5.788
 7232SOL     OW33726   0.026   8.294   6.470
 7232SOL    HW133727  -0.069   8.270   6.449
 7232SOL    HW233728   0.054   8.248   6.554
 7233SOL     OW33729   0.684   6.849   0.929
 7233SOL    HW133730   0.724   6.940   0.940
 7233SOL    HW233731   0.587   6.858   0.907
 7234SOL     OW33732   6.249   6.055   0.987
 7234SOL    HW133733   6.222   6.105   1.069
 7234SOL    HW233734   6.246   5.956   1.005
 7235SOL     OW33735   3.361   7.786   5.857
 7235SOL    HW133736   3.350   7.788   5.757
 7235SOL    HW233737   3.302   7.715   5.895
 7236SOL     OW33738   7.249   7.457   1.064
 7236SOL    HW133739   7.173   7.465   1.129
 7236SOL    HW233740   7.332   7.432   1.115
 7237SOL     OW33741   4.700   7.466   5.834
 7237SOL    HW133742   4.734   7.559   5.851
 7237SOL    HW233743   4.749   7.428   5.755
 7238SOL     OW33744   4.725   6.356   5.619
 7238SOL    HW133745   4.713   6.258   5.603
 7238SOL    HW233746   4.640   6.404   5.596
 7239SOL     OW33747   4.637   7.595   1.430
 7239SOL    HW133748   4.725   7.641   1.419
 7239SOL    HW233749   4.599   7.617   1.520
 7240SOL     OW33750   7.512   7.387   6.270
 7240SOL    HW133751   7.611   7.391   6.278
 7240SOL    HW233752   7.475   7.328   6.342
 7241SOL     OW33753   0.806   1.161   0.331
 7241SOL    HW133754   0.715   1.193   0.306
 7241SOL    HW233755   0.873   1.195   0.264
 7242SOL     OW33756   8.839   2.802   6.047
 7242SOL    HW133757   8.888   2.751   5.977
 7242SOL    HW233758   8.855   2.760   6.136
 7243SOL     OW33759   9.256   4.762   5.061
 7243SOL    HW133760   9.273   4.860   5.076
 7243SOL    HW233761   9.158   4.747   5.047
 7244SOL     OW33762   0.447   7.231   1.032
 7244SOL    HW133763   0.362   7.261   0.987
 7244SOL    HW233764   0.454   7.132   1.025
 7245SOL     OW33765   5.657   7.615   6.406
 7245SOL    HW133766   5.655   7.652   6.499
 7245SOL    HW233767   5.565   7.588   6.379
 7246SOL     OW33768   2.190   1.527   1.509
 7246SOL    HW133769   2.258   1.508   1.439
 7246SOL    HW233770   2.147   1.616   1.491
 7247SOL     OW33771   4.845   3.611   0.898
 7247SOL    HW133772   4.813   3.655   0.982
 7247SOL    HW233773   4.905   3.535   0.921
 7248SOL     OW33774   3.040   6.399   0.835
 7248SOL    HW133775   3.119   6.441   0.878
 7248SOL    HW233776   2.962   6.462   0.840
 7249SOL     OW33777   8.813   3.606   0.789
 7249SOL    HW133778   8.788   3.510   0.774
 7249SOL    HW233779   8.798   3.658   0.704
 7250SOL     OW33780   3.394   6.980   6.619
 7250SOL    HW133781   3.382   7.041   6.541
 7250SOL    HW233782   3.487   6.990   6.655
 7251SOL     OW33783   8.550   7.111   4.954
 7251SOL    HW133784   8.476   7.069   4.903
 7251SOL    HW233785   8.625   7.133   4.893
 7252SOL     OW33786   8.520   5.195   0.029
 7252SOL    HW133787   8.444   5.259   0.020
 7252SOL    HW233788   8.489   5.115   0.080
 7253SOL     OW33789   4.117   2.219   0.349
 7253SOL    HW133790   4.071   2.187   0.266
 7253SOL    HW233791   4.155   2.310   0.332
 7254SOL     OW33792   0.826   2.750   0.602
 7254SOL    HW133793   0.860   2.785   0.688
 7254SOL    HW233794   0.745   2.802   0.574
 7255SOL     OW33795   0.692   1.277   5.605
 7255SOL    HW133796   0.597   1.305   5.623
 7255SOL    HW233797   0.749   1.359   5.596
 7256SOL     OW33798   6.543   1.018   1.715
 7256SOL    HW133799   6.607   0.943   1.700
 7256SOL    HW233800   6.536   1.074   1.632
 7257SOL     OW33801   1.261   4.808   0.447
 7257SOL    HW133802   1.205   4.725   0.441
 7257SOL    HW233803   1.318   4.815   0.365
 7258SOL     OW33804   6.493   7.880   0.093
 7258SOL    HW133805   6.438   7.797   0.089
 7258SOL    HW233806   6.590   7.856   0.096
 7259SOL     OW33807   5.308   1.905   0.332
 7259SOL    HW133808   5.319   2.004   0.340
 7259SOL    HW233809   5.212   1.883   0.314
 7260SOL     OW33810   7.271   0.930   0.384
 7260SOL    HW133811   7.359   0.914   0.429
 7260SOL    HW233812   7.237   1.021   0.408
 7261SOL     OW33813   0.910   5.833   5.591
 7261SOL    HW133814   0.824   5.782   5.586
 7261SOL    HW233815   0.889   5.930   5.606
 7262SOL     OW33816   8.285   0.786   5.325
 7262SOL    HW133817   8.328   0.696   5.321
 7262SOL    HW233818   8.314   0.839   5.245
 7263SOL     OW33819   6.099   3.698   6.710
 7263SOL    HW133820   6.193   3.711   6.677
 7263SOL    HW233821   6.066   3.608   6.681
 7264SOL     OW33822   7.524   5.931   0.813
 7264SOL    HW133823   7.483   6.014   0.850
 7264SOL    HW233824   7.486   5.852   0.862
 7265SOL     OW33825   2.173   7.849   0.899
 7265SOL    HW133826   2.149   7.861   0.995
 7265SOL    HW233827   2.109   7.899   0.842
 7266SOL     OW33828   4.194   7.659   5.699
 7266SOL    HW133829   4.108   7.707   5.716
 7266SOL    HW233830   4.203   7.638   5.602
 7267SOL     OW33831   2.622   6.324   6.296
 7267SOL    HW133832   2.629   6.422   6.319
 7267SOL    HW233833   2.596   6.314   6.200
 7268SOL     OW33834   8.935   1.516   6.440
 7268SOL    HW133835   8.950   1.428   6.484
 7268SOL    HW233836   8.836   1.534   6.434
 7269SOL     OW33837   4.489   3.778   0.479
 7269SOL    HW133838   4.461   3.764   0.384
 7269SOL    HW233839   4.589   3.784   0.484
 7270SOL     OW33840   8.588   1.212   0.269
 7270SOL    HW133841   8.492   1.202   0.244
 7270SOL    HW233842   8.632   1.277   0.208
 7271SOL     OW33843   7.375   2.727   0.622
 7271SOL    HW133844   7.325   2.759   0.703
 7271SOL    HW233845   7.472   2.718   0.645
 7272SOL     OW33846   6.372   6.941   5.126
 7272SOL    HW133847   6.407   6.849   5.107
 7272SOL    HW233848   6.336   6.945   5.219
 7273SOL     OW33849   4.014   5.796   5.195
 7273SOL    HW133850   4.059   5.873   5.240
 7273SOL    HW233851   3.980   5.825   5.105
 7274SOL     OW33852   8.341   4.249   0.552
 7274SOL    HW133853   8.299   4.186   0.617
 7274SOL    HW233854   8.372   4.198   0.471
 7275SOL     OW33855   1.097   7.022   5.127
 7275SOL    HW133856   1.006   7.051   5.099
 7275SOL    HW233857   1.117   6.931   5.089
 7276SOL     OW33858   4.857   5.865   1.815
 7276SOL    HW133859   4.860   5.930   1.739
 7276SOL    HW233860   4.936   5.804   1.811
 7277SOL     OW33861   3.865   8.076   1.246
 7277SOL    HW133862   3.879   8.173   1.265
 7277SOL    HW233863   3.942   8.023   1.279
 7278SOL     OW33864   5.164   7.108   0.682
 7278SOL    HW133865   5.111   7.192   0.695
 7278SOL    HW233866   5.238   7.125   0.616
 7279SOL     OW33867   8.798   6.015   0.422
 7279SOL    HW133868   8.719   5.964   0.387
 7279SOL    HW233869   8.820   5.984   0.514
 7280SOL     OW33870   9.400   4.997   6.706
 7280SOL    HW133871   9.439   4.954   6.787
 7280SOL    HW233872   9.368   5.089   6.728
 7281SOL     OW33873   7.644   4.116   1.242
 7281SOL    HW133874   7.589   4.187   1.285
 7281SOL    HW233875   7.729   4.102   1.294
 7282SOL     OW33876   2.136   2.512   0.752
 7282SOL    HW133877   2.208   2.506   0.821
 7282SOL    HW233878   2.164   2.576   0.680
 7283SOL     OW33879   8.328   1.115   0.243
 7283SOL    HW133880   8.367   1.023   0.238
 7283SOL    HW233881   8.266   1.121   0.321
 7284SOL     OW33882   8.090   4.450   0.669
 7284SOL    HW133883   8.075   4.404   0.582
 7284SOL    HW233884   8.183   4.485   0.673
 7285SOL     OW33885   8.893   7.855   0.982
 7285SOL    HW133886   8.987   7.823   0.972
 7285SOL    HW233887   8.829   7.779   0.972
 7286SOL     OW33888   4.987   3.674   1.490
 7286SOL    HW133889   4.948   3.660   1.399
 7286SOL    HW233890   4.913   3.672   1.558
 7287SOL     OW33891   2.991   8.287   0.065
 7287SOL    HW133892   3.019   8.269   0.159
 7287SOL    HW233893   2.985   8.201   0.015
 7288SOL     OW33894   9.362   8.196   5.963
 7288SOL    HW133895   9.391   8.291   5.975
 7288SOL    HW233896   9.339   8.180   5.867
 7289SOL     OW33897   5.073   5.754   1.360
 7289SOL    HW133898   4.982   5.788   1.382
 7289SOL    HW233899   5.135   5.772   1.436
 7290SOL     OW33900   3.651   1.708   0.936
 7290SOL    HW133901   3.557   1.727   0.909
 7290SOL    HW233902   3.654   1.627   0.995
 7291SOL     OW33903   2.004   7.969   0.690
 7291SOL    HW133904   1.905   7.959   0.685
 7291SOL    HW233905   2.037   8.015   0.607
 7292SOL     OW33906   6.264   2.823   0.478
 7292SOL    HW133907   6.282   2.815   0.576
 7292SOL    HW233908   6.209   2.905   0.462
 7293SOL     OW33909   6.061   0.212   0.524
 7293SOL    HW133910   6.029   0.264   0.444
 7293SOL    HW233911   6.048   0.114   0.507
 7294SOL     OW33912   7.748   4.363   5.107
 7294SOL    HW133913   7.799   4.293   5.057
 7294SOL    HW233914   7.725   4.438   5.045
 7295SOL     OW33915   4.304   0.704   1.878
 7295SOL    HW133916   4.235   0.690   1.949
 7295SOL    HW233917   4.389   0.734   1.920
 7296SOL     OW33918   6.776   6.968   0.996
 7296SOL    HW133919   6.693   6.923   1.030
 7296SOL    HW233920   6.819   6.910   0.928
 7297SOL     OW33921   7.167   5.845   1.159
 7297SOL    HW133922   7.166   5.781   1.083
 7297SOL    HW233923   7.252   5.897   1.158
 7298SOL     OW33924   7.506   1.219   0.552
 7298SOL    HW133925   7.554   1.248   0.635
 7298SOL    HW233926   7.543   1.269   0.474
 7299SOL     OW33927   6.665   3.085   5.934
 7299SOL    HW133928   6.743   3.023   5.922
 7299SOL    HW233929   6.581   3.037   5.908
 7300SOL     OW33930   3.650   2.917   0.735
 7300SOL    HW133931   3.554   2.942   0.725
 7300SOL    HW233932   3.702   2.955   0.659
 7301SOL     OW33933   5.413   1.281   0.547
 7301SOL    HW133934   5.372   1.319   0.464
 7301SOL    HW233935   5.447   1.355   0.604
 7302SOL     OW33936   6.065   7.120   6.196
 7302SOL    HW133937   6.031   7.209   6.228
 7302SOL    HW233938   6.079   7.060   6.274
 7303SOL     OW33939   9.330   8.156   0.547
 7303SOL    HW133940   9.347   8.070   0.596
 7303SOL    HW233941   9.373   8.232   0.597
 7304SOL     OW33942   2.205   3.176   5.524
 7304SOL    HW133943   2.204   3.246   5.596
 7304SOL    HW233944   2.298   3.140   5.515
 7305SOL     OW33945   6.439   2.879   1.658
 7305SOL    HW133946   6.342   2.890   1.675
 7305SOL    HW233947   6.475   2.806   1.717
 7306SOL     OW33948   1.686   0.318   6.272
 7306SOL    HW133949   1.659   0.410   6.245
 7306SOL    HW233950   1.612   0.254   6.253
 7307SOL     OW33951   2.812   3.597   1.152
 7307SOL    HW133952   2.772   3.560   1.068
 7307SOL    HW233953   2.750   3.663   1.193
 7308SOL     OW33954   5.424   0.023   0.510
 7308SOL    HW133955   5.344  -0.032   0.490
 7308SOL    HW233956   5.396   0.113   0.543
 7309SOL     OW33957   1.129   2.565   6.685
 7309SOL    HW133958   1.167   2.508   6.759
 7309SOL    HW233959   1.154   2.661   6.701
 7310SOL     OW33960   9.199   3.456   0.166
 7310SOL    HW133961   9.236   3.364   0.158
 7310SOL    HW233962   9.198   3.484   0.262
 7311SOL     OW33963   8.152   0.474   6.248
 7311SOL    HW133964   8.146   0.559   6.300
 7311SOL    HW233965   8.246   0.459   6.219
 7312SOL     OW33966   5.191   7.659   6.355
 7312SOL    HW133967   5.206   7.662   6.453
 7312SOL    HW233968   5.139   7.577   6.331
 7313SOL     OW33969   7.871   5.385   6.173
 7313SOL    HW133970   7.967   5.396   6.148
 7313SOL    HW233971   7.831   5.310   6.121
 7314SOL     OW33972   2.892   0.949   0.058
 7314SOL    HW133973   2.893   0.903   0.147
 7314SOL    HW233974   2.803   0.992   0.043
 7315SOL     OW33975   3.196   3.897   0.828
 7315SOL    HW133976   3.112   3.862   0.869
 7315SOL    HW233977   3.235   3.828   0.766
 7316SOL     OW33978   3.762   2.033   6.547
 7316SOL    HW133979   3.799   1.998   6.461
 7316SOL    HW233980   3.824   2.102   6.584
 7317SOL     OW33981   8.522   4.733   6.286
 7317SOL    HW133982   8.600   4.785   6.319
 7317SOL    HW233983   8.443   4.749   6.345
 7318SOL     OW33984   6.573   6.730   0.347
 7318SOL    HW133985   6.550   6.805   0.284
 7318SOL    HW233986   6.672   6.727   0.361
 7319SOL     OW33987   8.971   7.626   0.200
 7319SOL    HW133988   8.925   7.547   0.242
 7319SOL    HW233989   8.935   7.710   0.240
 7320SOL     OW33990   5.528   1.111   0.749
 7320SOL    HW133991   5.617   1.100   0.705
 7320SOL    HW233992   5.472   1.175   0.696
 7321SOL     OW33993   0.500   1.175   5.860
 7321SOL    HW133994   0.569   1.143   5.796
 7321SOL    HW233995   0.497   1.275   5.858
 7322SOL     OW33996   5.507   4.305   6.239
 7322SOL    HW133997   5.569   4.371   6.195
 7322SOL    HW233998   5.435   4.279   6.174
 7323SOL     OW33999   2.740   4.821   6.228
 7323SOL    HW134000   2.707   4.909   6.264
 7323SOL    HW234001   2.840   4.825   6.218
 7324SOL     OW34002   2.492   3.814   0.189
 7324SOL    HW134003   2.537   3.840   0.103
 7324SOL    HW234004   2.476   3.715   0.189
 7325SOL     OW34005   3.718   0.619   6.032
 7325SOL    HW134006   3.717   0.705   6.082
 7325SOL    HW234007   3.777   0.554   6.079
 7326SOL     OW34008   5.856   7.410   6.457
 7326SOL    HW134009   5.849   7.327   6.511
 7326SOL    HW234010   5.765   7.452   6.448
 7327SOL     OW34011   0.781   3.929   0.116
 7327SOL    HW134012   0.838   3.874   0.056
 7327SOL    HW234013   0.760   4.016   0.071
 7328SOL     OW34014   5.798   1.328   5.720
 7328SOL    HW134015   5.847   1.277   5.649
 7328SOL    HW234016   5.730   1.388   5.677
 7329SOL     OW34017   3.997   0.145   5.059
 7329SOL    HW134018   3.949   0.057   5.054
 7329SOL    HW234019   3.990   0.192   4.970
 7330SOL     OW34020   9.356   8.137   0.137
 7330SOL    HW134021   9.346   8.216   0.198
 7330SOL    HW234022   9.358   8.053   0.192
 7331SOL     OW34023   4.151   0.491   0.794
 7331SOL    HW134024   4.081   0.494   0.866
 7331SOL    HW234025   4.182   0.397   0.782
 7332SOL     OW34026   8.631   1.371   4.906
 7332SOL    HW134027   8.691   1.447   4.930
 7332SOL    HW234028   8.588   1.389   4.817
 7333SOL     OW34029   7.464   1.535   1.079
 7333SOL    HW134030   7.380   1.556   1.028
 7333SOL    HW234031   7.473   1.436   1.090
 7334SOL     OW34032   4.787   3.452   5.834
 7334SOL    HW134033   4.772   3.389   5.757
 7334SOL    HW234034   4.885   3.464   5.847
 7335SOL     OW34035   5.960   4.771   6.630
 7335SOL    HW134036   5.985   4.816   6.716
 7335SOL    HW234037   5.962   4.672   6.642
 7336SOL     OW34038   5.176   1.217   6.237
 7336SOL    HW134039   5.150   1.171   6.152
 7336SOL    HW234040   5.145   1.164   6.315
 7337SOL     OW34041   9.396   5.885   5.288
 7337SOL    HW134042   9.467   5.911   5.224
 7337SOL    HW234043   9.324   5.955   5.288
 7338SOL     OW34044   4.231   3.919   6.231
 7338SOL    HW134045   4.199   3.918   6.136
 7338SOL    HW234046   4.287   4.000   6.246
 7339SOL     OW34047   1.906   7.568   0.987
 7339SOL    HW134048   1.875   7.475   1.006
 7339SOL    HW234049   1.985   7.589   1.045
 7340SOL     OW34050   5.187   2.918   1.075
 7340SOL    HW134051   5.211   2.821   1.064
 7340SOL    HW234052   5.089   2.926   1.092
 7341SOL     OW34053   7.976   7.776   1.073
 7341SOL    HW134054   7.964   7.794   1.170
 7341SOL    HW234055   7.955   7.680   1.054
 7342SOL     OW34056   3.037   3.314   6.184
 7342SOL    HW134057   2.991   3.356   6.106
 7342SOL    HW234058   3.135   3.335   6.181
 7343SOL     OW34059   2.339   0.721   6.423
 7343SOL    HW134060   2.334   0.699   6.520
 7343SOL    HW234061   2.307   0.642   6.370
 7344SOL     OW34062   4.593   4.012   6.147
 7344SOL    HW134063   4.670   3.973   6.197
 7344SOL    HW234064   4.526   4.049   6.212
 7345SOL     OW34065   9.450   5.826   5.722
 7345SOL    HW134066   9.447   5.764   5.801
 7345SOL    HW234067   9.434   5.774   5.638
 7346SOL     OW34068   3.451   0.933   5.393
 7346SOL    HW134069   3.378   0.986   5.436
 7346SOL    HW234070   3.431   0.923   5.295
 7347SOL     OW34071   6.795   8.218   0.043
 7347SOL    HW134072   6.776   8.190   0.137
 7347SOL    HW234073   6.717   8.269   0.007
 7348SOL     OW34074   5.842   2.715   5.801
 7348SOL    HW134075   5.891   2.736   5.716
 7348SOL    HW234076   5.791   2.795   5.831
 7349SOL     OW34077   7.816   6.191   0.524
 7349SOL    HW134078   7.773   6.204   0.434
 7349SOL    HW234079   7.746   6.197   0.595
 7350SOL     OW34080   4.082   6.094   0.400
 7350SOL    HW134081   4.045   6.162   0.337
 7350SOL    HW234082   4.058   6.002   0.368
 7351SOL     OW34083   9.165   5.404   6.717
 7351SOL    HW134084   9.154   5.502   6.704
 7351SOL    HW234085   9.075   5.360   6.718
 7352SOL     OW34086   4.605   2.308   6.715
 7352SOL    HW134087   4.598   2.375   6.789
 7352SOL    HW234088   4.661   2.231   6.746
 7353SOL     OW34089   9.485   6.785   5.566
 7353SOL    HW134090   9.495   6.882   5.543
 7353SOL    HW234091   9.532   6.766   5.652
 7354SOL     OW34092   6.111   2.822   6.491
 7354SOL    HW134093   6.042   2.871   6.439
 7354SOL    HW234094   6.068   2.750   6.545
 7355SOL     OW34095   8.155   1.951   1.533
 7355SOL    HW134096   8.243   1.973   1.575
 7355SOL    HW234097   8.170   1.904   1.446
 7356SOL     OW34098   3.345   0.507   6.079
 7356SOL    HW134099   3.349   0.494   6.179
 7356SOL    HW234100   3.377   0.598   6.055
 7357SOL     OW34101   1.468   6.667   6.089
 7357SOL    HW134102   1.409   6.612   6.148
 7357SOL    HW234103   1.560   6.626   6.087
 7358SOL     OW34104   4.419   5.820   1.401
 7358SOL    HW134105   4.484   5.831   1.326
 7358SOL    HW234106   4.360   5.741   1.383
 7359SOL     OW34107   4.069   2.658   5.825
 7359SOL    HW134108   4.081   2.757   5.823
 7359SOL    HW234109   3.979   2.636   5.862
 7360SOL     OW34110   0.776   2.160   0.446
 7360SOL    HW134111   0.685   2.127   0.472
 7360SOL    HW234112   0.782   2.258   0.466
 7361SOL     OW34113   9.451   3.431   6.583
 7361SOL    HW134114   9.484   3.418   6.677
 7361SOL    HW234115   9.522   3.477   6.530
 7362SOL     OW34116   0.579   0.042   0.794
 7362SOL    HW134117   0.499  -0.013   0.769
 7362SOL    HW234118   0.549   0.131   0.828
 7363SOL     OW34119   2.558   6.797   4.757
 7363SOL    HW134120   2.657   6.792   4.746
 7363SOL    HW234121   2.516   6.819   4.669
 7364SOL     OW34122   3.072   2.459   1.208
 7364SOL    HW134123   2.997   2.481   1.271
 7364SOL    HW234124   3.045   2.480   1.114
 7365SOL     OW34125   4.369   1.959   0.511
 7365SOL    HW134126   4.272   1.936   0.514
 7365SOL    HW234127   4.422   1.890   0.560
 7366SOL     OW34128   2.777   6.686   0.287
 7366SOL    HW134129   2.822   6.718   0.370
 7366SOL    HW234130   2.688   6.645   0.311
 7367SOL     OW34131   2.270   6.561   5.583
 7367SOL    HW134132   2.191   6.581   5.525
 7367SOL    HW234133   2.243   6.567   5.679
 7368SOL     OW34134   2.059   5.377   5.748
 7368SOL    HW134135   2.138   5.431   5.722
 7368SOL    HW234136   2.008   5.349   5.666
 7369SOL     OW34137   5.694   2.469   0.872
 7369SOL    HW134138   5.617   2.427   0.825
 7369SOL    HW234139   5.773   2.407   0.870
 7370SOL     OW34140   7.251   2.103   0.495
 7370SOL    HW134141   7.318   2.164   0.452
 7370SOL    HW234142   7.252   2.015   0.449
 7371SOL     OW34143   9.252   1.527   0.657
 7371SOL    HW134144   9.215   1.609   0.613
 7371SOL    HW234145   9.245   1.536   0.756
 7372SOL     OW34146   4.393   8.016   2.040
 7372SOL    HW134147   4.434   8.094   2.088
 7372SOL    HW234148   4.304   7.996   2.080
 7373SOL     OW34149   9.169   3.429   1.106
 7373SOL    HW134150   9.124   3.340   1.106
 7373SOL    HW234151   9.177   3.463   1.200
 7374SOL     OW34152   0.230   5.819   4.467
 7374SOL    HW134153   0.168   5.870   4.526
 7374SOL    HW234154   0.200   5.724   4.460
 7375SOL     OW34155   0.120   8.429   5.657
 7375SOL    HW134156   0.167   8.503   5.705
 7375SOL    HW234157   0.148   8.429   5.561
 7376SOL     OW34158   4.443   1.153   0.756
 7376SOL    HW134159   4.495   1.093   0.815
 7376SOL    HW234160   4.354   1.112   0.736
 7377SOL     OW34161   1.770   4.066   5.062
 7377SOL    HW134162   1.835   3.990   5.070
 7377SOL    HW234163   1.736   4.070   4.968
 7378SOL     OW34164   6.454   5.666   6.437
 7378SOL    HW134165   6.363   5.705   6.453
 7378SOL    HW234166   6.462   5.637   6.342
 7379SOL     OW34167   4.619   6.424   1.261
 7379SOL    HW134168   4.640   6.423   1.164
 7379SOL    HW234169   4.678   6.490   1.308
 7380SOL     OW34170   8.841   1.317   0.841
 7380SOL    HW134171   8.890   1.232   0.822
 7380SOL    HW234172   8.825   1.324   0.939
 7381SOL     OW34173   5.826   4.228   6.732
 7381SOL    HW134174   5.743   4.251   6.681
 7381SOL    HW234175   5.905   4.233   6.671
 7382SOL     OW34176   1.316   6.432   5.655
 7382SOL    HW134177   1.330   6.530   5.669
 7382SOL    HW234178   1.320   6.384   5.742
 7383SOL     OW34179   6.595   5.962   0.035
 7383SOL    HW134180   6.649   5.879   0.017
 7383SOL    HW234181   6.524   5.941   0.102
 7384SOL     OW34182   2.168   0.010   0.311
 7384SOL    HW134183   2.076  -0.013   0.278
 7384SOL    HW234184   2.174  -0.004   0.409
 7385SOL     OW34185   6.234   3.330   6.662
 7385SOL    HW134186   6.276   3.377   6.585
 7385SOL    HW234187   6.238   3.388   6.743
 7386SOL     OW34188   0.992   3.103   5.437
 7386SOL    HW134189   1.091   3.108   5.448
 7386SOL    HW234190   0.970   3.097   5.340
 7387SOL     OW34191   0.632   6.237   6.411
 7387SOL    HW134192   0.564   6.273   6.348
 7387SOL    HW234193   0.659   6.309   6.476
 7388SOL     OW34194   5.410   2.211   6.361
 7388SOL    HW134195   5.328   2.160   6.389
 7388SOL    HW234196   5.432   2.279   6.431
 7389SOL     OW34197   5.498   0.288   1.471
 7389SOL    HW134198   5.466   0.363   1.412
 7389SOL    HW234199   5.579   0.246   1.430
 7390SOL     OW34200   4.163   7.579   1.020
 7390SOL    HW134201   4.174   7.520   1.101
 7390SOL    HW234202   4.066   7.600   1.007
 7391SOL     OW34203   6.259   0.547   0.811
 7391SOL    HW134204   6.202   0.467   0.827
 7391SOL    HW234205   6.202   0.629   0.807
 7392SOL     OW34206   2.960   8.364   1.327
 7392SOL    HW134207   2.889   8.375   1.397
 7392SOL    HW234208   2.988   8.454   1.295
 7393SOL     OW34209   2.972   0.054   0.008
 7393SOL    HW134210   2.988  -0.044   0.007
 7393SOL    HW234211   2.882   0.074  -0.032
 7394SOL     OW34212   4.300   8.162   5.144
 7394SOL    HW134213   4.343   8.085   5.095
 7394SOL    HW234214   4.216   8.189   5.097
 7395SOL     OW34215   3.983   0.011   0.117
 7395SOL    HW134216   3.938  -0.069   0.156
 7395SOL    HW234217   4.079  -0.009   0.099
 7396SOL     OW34218   4.361   6.902   0.180
 7396SOL    HW134219   4.269   6.941   0.169
 7396SOL    HW234220   4.411   6.910   0.094
 7397SOL     OW34221   7.088   8.110   0.316
 7397SOL    HW134222   7.136   8.041   0.371
 7397SOL    HW234223   7.077   8.077   0.223
 7398SOL     OW34224   7.955   7.662   0.705
 7398SOL    HW134225   7.921   7.729   0.639
 7398SOL    HW234226   8.054   7.655   0.697
 7399SOL     OW34227   8.025   5.963   6.083
 7399SOL    HW134228   7.949   6.012   6.125
 7399SOL    HW234229   8.034   5.990   5.987
 7400SOL     OW34230   9.003   0.592   6.376
 7400SOL    HW134231   8.991   0.681   6.332
 7400SOL    HW234232   9.018   0.522   6.306
 7401SOL     OW34233   2.570   7.950   5.155
 7401SOL    HW134234   2.663   7.970   5.123
 7401SOL    HW234235   2.511   7.934   5.076
 7402SOL     OW34236   2.110   3.849   0.555
 7402SOL    HW134237   2.029   3.906   0.572
 7402SOL    HW234238   2.082   3.754   0.544
 7403SOL     OW34239   7.128   0.060   0.790
 7403SOL    HW134240   7.054   0.093   0.848
 7403SOL    HW234241   7.214   0.062   0.841
 7404SOL     OW34242   2.098   7.304   5.705
 7404SOL    HW134243   2.138   7.283   5.616
 7404SOL    HW234244   2.003   7.274   5.708
 7405SOL     OW34245   9.339   8.482   1.462
 7405SOL    HW134246   9.368   8.575   1.486
 7405SOL    HW234247   9.390   8.416   1.517
 7406SOL     OW34248   2.473   7.065   0.652
 7406SOL    HW134249   2.420   7.127   0.710
 7406SOL    HW234250   2.505   7.115   0.571
 7407SOL     OW34251   8.107   2.228   5.649
 7407SOL    HW134252   8.046   2.158   5.611
 7407SOL    HW234253   8.167   2.264   5.577
 7408SOL     OW34254   7.268   8.460   1.256
 7408SOL    HW134255   7.277   8.535   1.321
 7408SOL    HW234256   7.320   8.381   1.289
 7409SOL     OW34257   8.162   5.998   0.138
 7409SOL    HW134258   8.248   6.049   0.128
 7409SOL    HW234259   8.101   6.048   0.199
 7410SOL     OW34260   1.689   2.107   6.090
 7410SOL    HW134261   1.660   2.190   6.042
 7410SOL    HW234262   1.704   2.034   6.025
 7411SOL     OW34263   0.852   1.355   5.938
 7411SOL    HW134264   0.881   1.279   5.880
 7411SOL    HW234265   0.839   1.437   5.883
 7412SOL     OW34266   5.992   6.128   0.172
 7412SOL    HW134267   5.948   6.170   0.252
 7412SOL    HW234268   5.951   6.166   0.089
 7413SOL     OW34269   8.432   5.065   0.267
 7413SOL    HW134270   8.392   5.153   0.293
 7413SOL    HW234271   8.435   5.005   0.347
 7414SOL     OW34272   1.865   3.400   0.000
 7414SOL    HW134273   1.954   3.361   0.023
 7414SOL    HW234274   1.874   3.498  -0.013
 7415SOL     OW34275   6.711   6.168   4.718
 7415SOL    HW134276   6.749   6.126   4.800
 7415SOL    HW234277   6.659   6.099   4.667
 7416SOL     OW34278   8.485   4.535   0.994
 7416SOL    HW134279   8.464   4.461   0.930
 7416SOL    HW234280   8.497   4.497   1.086
 7417SOL     OW34281   6.051   0.109   6.070
 7417SOL    HW134282   5.980   0.179   6.062
 7417SOL    HW234283   6.109   0.112   5.988
 7418SOL     OW34284   5.760   4.934   1.547
 7418SOL    HW134285   5.670   4.936   1.590
 7418SOL    HW234286   5.823   4.992   1.598
 7419SOL     OW34287   5.914   3.488   6.560
 7419SOL    HW134288   5.922   3.502   6.462
 7419SOL    HW234289   5.906   3.390   6.580
 7420SOL     OW34290   4.326   6.958   6.322
 7420SOL    HW134291   4.381   6.993   6.246
 7420SOL    HW234292   4.355   6.865   6.344
 7421SOL     OW34293   4.856   0.259   0.400
 7421SOL    HW134294   4.940   0.301   0.436
 7421SOL    HW234295   4.795   0.235   0.476
 7422SOL     OW34296   2.926   1.780   0.867
 7422SOL    HW134297   2.971   1.773   0.956
 7422SOL    HW234298   2.832   1.811   0.880
 7423SOL     OW34299   0.679   5.373   0.002
 7423SOL    HW134300   0.710   5.469  -0.002
 7423SOL    HW234301   0.641   5.346  -0.086
 7424SOL     OW34302   3.173   0.389   0.825
 7424SOL    HW134303   3.151   0.378   0.922
 7424SOL    HW234304   3.272   0.388   0.814
 7425SOL     OW34305   8.674   0.390   6.532
 7425SOL    HW134306   8.584   0.358   6.503
 7425SOL    HW234307   8.727   0.417   6.452
 7426SOL     OW34308   1.338   3.630   6.167
 7426SOL    HW134309   1.262   3.595   6.113
 7426SOL    HW234310   1.422   3.626   6.113
 7427SOL     OW34311   5.777   4.157   0.536
 7427SOL    HW134312   5.862   4.116   0.503
 7427SOL    HW234313   5.699   4.105   0.500
 7428SOL     OW34314   8.466   2.108   0.137
 7428SOL    HW134315   8.395   2.134   0.203
 7428SOL    HW234316   8.525   2.187   0.119
 7429SOL     OW34317   8.284   0.929   5.561
 7429SOL    HW134318   8.286   1.020   5.519
 7429SOL    HW234319   8.273   0.860   5.490
 7430SOL     OW34320   7.464   7.718   0.501
 7430SOL    HW134321   7.463   7.769   0.587
 7430SOL    HW234322   7.490   7.623   0.519
 7431SOL     OW34323   8.660   2.156   0.849
 7431SOL    HW134324   8.653   2.256   0.856
 7431SOL    HW234325   8.709   2.121   0.928
 7432SOL     OW34326   4.196   5.303   6.471
 7432SOL    HW134327   4.112   5.307   6.415
 7432SOL    HW234328   4.248   5.387   6.458
 7433SOL     OW34329   8.721   8.115   5.760
 7433SOL    HW134330   8.637   8.169   5.749
 7433SOL    HW234331   8.712   8.030   5.708
 7434SOL     OW34332   4.356   5.032   6.272
 7434SOL    HW134333   4.371   5.060   6.367
 7434SOL    HW234334   4.258   5.024   6.255
 7435SOL     OW34335   9.202   7.570   6.401
 7435SOL    HW134336   9.200   7.632   6.479
 7435SOL    HW234337   9.169   7.618   6.319
 7436SOL     OW34338   2.665   2.594   1.234
 7436SOL    HW134339   2.578   2.571   1.190
 7436SOL    HW234340   2.668   2.551   1.325
 7437SOL     OW34341   4.183   1.656   1.886
 7437SOL    HW134342   4.262   1.595   1.894
 7437SOL    HW234343   4.099   1.603   1.892
 7438SOL     OW34344   4.820   8.494   0.011
 7438SOL    HW134345   4.906   8.537   0.037
 7438SOL    HW234346   4.758   8.562  -0.026
 7439SOL     OW34347   6.670   5.123   6.658
 7439SOL    HW134348   6.767   5.099   6.649
 7439SOL    HW234349   6.645   5.187   6.586
 7440SOL     OW34350   2.134   3.303   0.044
 7440SOL    HW134351   2.167   3.220   0.089
 7440SOL    HW234352   2.139   3.292  -0.055
 7441SOL     OW34353   7.946   1.812   0.033
 7441SOL    HW134354   8.004   1.733   0.050
 7441SOL    HW234355   7.938   1.867   0.116
 7442SOL     OW34356   1.554   7.681   0.048
 7442SOL    HW134357   1.557   7.581   0.043
 7442SOL    HW234358   1.485   7.715  -0.016
 7443SOL     OW34359   0.654   1.793   0.705
 7443SOL    HW134360   0.640   1.814   0.802
 7443SOL    HW234361   0.740   1.834   0.674
 7444SOL     OW34362   5.173   2.090   6.420
 7444SOL    HW134363   5.173   2.091   6.520
 7444SOL    HW234364   5.118   2.165   6.385
 7445SOL     OW34365   4.096   0.347   1.214
 7445SOL    HW134366   3.998   0.338   1.231
 7445SOL    HW234367   4.144   0.364   1.300
 7446SOL     OW34368   2.153   0.317   5.077
 7446SOL    HW134369   2.166   0.369   4.992
 7446SOL    HW234370   2.086   0.245   5.062
 7447SOL     OW34371   2.693   0.806   5.551
 7447SOL    HW134372   2.647   0.891   5.524
 7447SOL    HW234373   2.647   0.728   5.510
 7448SOL     OW34374   0.828   8.473   0.479
 7448SOL    HW134375   0.875   8.531   0.413
 7448SOL    HW234376   0.884   8.392   0.498
 7449SOL     OW34377   3.104   0.787   1.216
 7449SOL    HW134378   3.136   0.697   1.189
 7449SOL    HW234379   3.013   0.803   1.178
 7450SOL     OW34380   2.031   7.314   6.149
 7450SOL    HW134381   2.079   7.271   6.225
 7450SOL    HW234382   1.995   7.403   6.179
 7451SOL     OW34383   8.192   2.119   0.224
 7451SOL    HW134384   8.105   2.109   0.272
 7451SOL    HW234385   8.180   2.090   0.128
 7452SOL     OW34386   0.355   4.490   1.460
 7452SOL    HW134387   0.333   4.586   1.445
 7452SOL    HW234388   0.303   4.455   1.537
 7453SOL     OW34389   2.293   5.854   1.403
 7453SOL    HW134390   2.253   5.766   1.430
 7453SOL    HW234391   2.393   5.845   1.399
 7454SOL     OW34392   4.214   4.346   1.474
 7454SOL    HW134393   4.220   4.444   1.460
 7454SOL    HW234394   4.181   4.327   1.567
 7455SOL     OW34395   1.241   6.651   1.158
 7455SOL    HW134396   1.229   6.653   1.059
 7455SOL    HW234397   1.215   6.739   1.197
 7456SOL     OW34398   5.944   7.110   5.383
 7456SOL    HW134399   6.028   7.122   5.436
 7456SOL    HW234400   5.906   7.019   5.401
 7457SOL     OW34401   1.438   4.031   5.887
 7457SOL    HW134402   1.535   4.008   5.893
 7457SOL    HW234403   1.425   4.102   5.817
 7458SOL     OW34404   7.345   6.125   6.312
 7458SOL    HW134405   7.355   6.218   6.276
 7458SOL    HW234406   7.248   6.101   6.316
 7459SOL     OW34407   1.272   5.689   0.287
 7459SOL    HW134408   1.230   5.698   0.197
 7459SOL    HW234409   1.223   5.746   0.352
 7460SOL     OW34410   6.949   3.312   0.986
 7460SOL    HW134411   6.880   3.357   1.043
 7460SOL    HW234412   7.027   3.373   0.974
 7461SOL     OW34413   8.377   6.073   0.346
 7461SOL    HW134414   8.290   6.124   0.350
 7461SOL    HW234415   8.413   6.061   0.438
 7462SOL     OW34416   4.059   2.876   1.675
 7462SOL    HW134417   4.112   2.900   1.756
 7462SOL    HW234418   3.993   2.805   1.699
 7463SOL     OW34419   7.288   3.473   1.849
 7463SOL    HW134420   7.259   3.533   1.923
 7463SOL    HW234421   7.218   3.470   1.779
 7464SOL     OW34422   7.695   8.458   6.006
 7464SOL    HW134423   7.657   8.548   6.025
 7464SOL    HW234424   7.744   8.460   5.919
 7465SOL     OW34425   4.949   6.939   5.785
 7465SOL    HW134426   4.993   6.857   5.749
 7465SOL    HW234427   4.865   6.912   5.834
 7466SOL     OW34428   2.105   2.034   0.671
 7466SOL    HW134429   2.173   1.962   0.677
 7466SOL    HW234430   2.020   2.004   0.715
 7467SOL     OW34431   4.466   3.480   6.323
 7467SOL    HW134432   4.544   3.538   6.347
 7467SOL    HW234433   4.440   3.497   6.228
 7468SOL     OW34434   0.363   3.615   5.875
 7468SOL    HW134435   0.455   3.624   5.913
 7468SOL    HW234436   0.367   3.559   5.792
 7469SOL     OW34437   1.238   3.880   6.007
 7469SOL    HW134438   1.315   3.939   5.982
 7469SOL    HW234439   1.268   3.812   6.073
 7470SOL     OW34440   9.014   4.764   5.993
 7470SOL    HW134441   9.108   4.755   6.027
 7470SOL    HW234442   9.000   4.702   5.916
 7471SOL     OW34443   1.469   1.497   0.600
 7471SOL    HW134444   1.500   1.455   0.515
 7471SOL    HW234445   1.384   1.453   0.630
 7472SOL     OW34446   8.335   2.013   5.435
 7472SOL    HW134447   8.286   1.929   5.456
 7472SOL    HW234448   8.359   2.015   5.338
 7473SOL     OW34449   3.704   4.765   5.759
 7473SOL    HW134450   3.794   4.803   5.780
 7473SOL    HW234451   3.713   4.670   5.732
 7474SOL     OW34452   5.513   3.256   5.756
 7474SOL    HW134453   5.450   3.309   5.812
 7474SOL    HW234454   5.463   3.214   5.680
 7475SOL     OW34455   8.382   7.834   0.099
 7475SOL    HW134456   8.443   7.829   0.178
 7475SOL    HW234457   8.427   7.883   0.025
 7476SOL     OW34458   1.154   7.553   0.539
 7476SOL    HW134459   1.253   7.546   0.553
 7476SOL    HW234460   1.136   7.616   0.464
 7477SOL     OW34461   4.657   5.396   6.408
 7477SOL    HW134462   4.622   5.316   6.360
 7477SOL    HW234463   4.756   5.400   6.401
 7478SOL     OW34464   3.153   6.198   5.481
 7478SOL    HW134465   3.166   6.163   5.388
 7478SOL    HW234466   3.183   6.128   5.547
 7479SOL     OW34467   7.652   3.202   5.765
 7479SOL    HW134468   7.619   3.291   5.797
 7479SOL    HW234469   7.738   3.215   5.716
 7480SOL     OW34470   8.043   7.120   4.683
 7480SOL    HW134471   8.001   7.105   4.773
 7480SOL    HW234472   7.974   7.155   4.620
 7481SOL     OW34473   6.888   8.166   0.576
 7481SOL    HW134474   6.986   8.167   0.596
 7481SOL    HW234475   6.843   8.097   0.633
 7482SOL     OW34476   4.486   0.604   5.513
 7482SOL    HW134477   4.439   0.593   5.426
 7482SOL    HW234478   4.423   0.640   5.581
 7483SOL     OW34479   3.473   7.801   4.956
 7483SOL    HW134480   3.483   7.709   4.995
 7483SOL    HW234481   3.549   7.819   4.894
 7484SOL     OW34482   6.013   5.636   0.444
 7484SOL    HW134483   6.084   5.706   0.450
 7484SOL    HW234484   6.008   5.586   0.530
 7485SOL     OW34485   0.734   1.832   6.115
 7485SOL    HW134486   0.688   1.906   6.165
 7485SOL    HW234487   0.777   1.869   6.033
 7486SOL     OW34488   7.876   2.747   0.663
 7486SOL    HW134489   7.929   2.667   0.691
 7486SOL    HW234490   7.920   2.790   0.584
 7487SOL     OW34491   8.837   6.755   5.314
 7487SOL    HW134492   8.914   6.692   5.302
 7487SOL    HW234493   8.751   6.705   5.307
 7488SOL     OW34494   5.816   3.791   0.002
 7488SOL    HW134495   5.788   3.729   0.075
 7488SOL    HW234496   5.891   3.749  -0.049
 7489SOL     OW34497   5.164   1.400   4.820
 7489SOL    HW134498   5.161   1.480   4.760
 7489SOL    HW234499   5.076   1.352   4.816
 7490SOL     OW34500   1.274   5.412   0.192
 7490SOL    HW134501   1.257   5.504   0.157
 7490SOL    HW234502   1.241   5.406   0.286
 7491SOL     OW34503   5.823   3.304   0.361
 7491SOL    HW134504   5.812   3.319   0.263
 7491SOL    HW234505   5.753   3.240   0.393
 7492SOL     OW34506   3.467   7.939   0.723
 7492SOL    HW134507   3.535   7.917   0.793
 7492SOL    HW234508   3.387   7.980   0.765
 7493SOL     OW34509   0.396   3.238   0.725
 7493SOL    HW134510   0.397   3.330   0.764
 7493SOL    HW234511   0.361   3.174   0.792
 7494SOL     OW34512   6.251   4.702   0.040
 7494SOL    HW134513   6.294   4.780   0.086
 7494SOL    HW234514   6.243   4.720  -0.058
 7495SOL     OW34515   1.921   2.783   0.268
 7495SOL    HW134516   1.918   2.767   0.367
 7495SOL    HW234517   1.888   2.701   0.220
 7496SOL     OW34518   7.387   7.837   5.253
 7496SOL    HW134519   7.325   7.842   5.174
 7496SOL    HW234520   7.333   7.824   5.336
 7497SOL     OW34521   1.835   7.215   5.671
 7497SOL    HW134522   1.788   7.298   5.641
 7497SOL    HW234523   1.768   7.142   5.684
 7498SOL     OW34524   3.231   7.863   5.047
 7498SOL    HW134525   3.326   7.847   5.021
 7498SOL    HW234526   3.228   7.926   5.125
 7499SOL     OW34527   8.992   5.499   0.226
 7499SOL    HW134528   8.912   5.440   0.242
 7499SOL    HW234529   9.066   5.470   0.287
 7500SOL     OW34530   4.431   1.508   1.975
 7500SOL    HW134531   4.443   1.409   1.980
 7500SOL    HW234532   4.521   1.552   1.974
 7501SOL     OW34533   8.572   0.349   1.024
 7501SOL    HW134534   8.655   0.302   1.053
 7501SOL    HW234535   8.514   0.366   1.104
 7502SOL     OW34536   2.264   7.764   0.116
 7502SOL    HW134537   2.360   7.757   0.143
 7502SOL    HW234538   2.255   7.831   0.043
 7503SOL     OW34539   9.242   0.002   6.175
 7503SOL    HW134540   9.340  -0.016   6.172
 7503SOL    HW234541   9.224   0.079   6.236
 7504SOL     OW34542   8.811   5.977   4.469
 7504SOL    HW134543   8.767   6.011   4.386
 7504SOL    HW234544   8.793   6.040   4.544
 7505SOL     OW34545   9.343   6.370   1.332
 7505SOL    HW134546   9.254   6.336   1.299
 7505SOL    HW234547   9.414   6.302   1.314
 7506SOL     OW34548   1.660   5.313   6.579
 7506SOL    HW134549   1.620   5.312   6.670
 7506SOL    HW234550   1.631   5.395   6.530
 7507SOL     OW34551   9.190   3.578   1.782
 7507SOL    HW134552   9.183   3.545   1.876
 7507SOL    HW234553   9.113   3.544   1.729
 7508SOL     OW34554   8.291   2.379   0.323
 7508SOL    HW134555   8.258   2.287   0.299
 7508SOL    HW234556   8.244   2.447   0.267
 7509SOL     OW34557   7.725   7.657   0.837
 7509SOL    HW134558   7.815   7.656   0.793
 7509SOL    HW234559   7.678   7.742   0.813
 7510SOL     OW34560   9.080   4.851   5.679
 7510SOL    HW134561   9.147   4.868   5.752
 7510SOL    HW234562   9.116   4.781   5.617
 7511SOL     OW34563   2.432   1.992   0.580
 7511SOL    HW134564   2.424   1.921   0.651
 7511SOL    HW234565   2.497   1.962   0.510
 7512SOL     OW34566   1.926   2.446   1.432
 7512SOL    HW134567   1.938   2.535   1.475
 7512SOL    HW234568   1.875   2.386   1.494
 7513SOL     OW34569   3.655   2.942   6.608
 7513SOL    HW134570   3.745   2.986   6.613
 7513SOL    HW234571   3.589   2.995   6.661
 7514SOL     OW34572   5.832   3.999   5.726
 7514SOL    HW134573   5.857   3.902   5.724
 7514SOL    HW234574   5.752   4.013   5.668
 7515SOL     OW34575   6.225   4.824   0.775
 7515SOL    HW134576   6.212   4.832   0.676
 7515SOL    HW234577   6.300   4.884   0.803
 7516SOL     OW34578   5.392   1.176   5.388
 7516SOL    HW134579   5.408   1.167   5.487
 7516SOL    HW234580   5.297   1.154   5.368
 7517SOL     OW34581   2.454   7.816   0.497
 7517SOL    HW134582   2.490   7.834   0.589
 7517SOL    HW234583   2.415   7.724   0.494
 7518SOL     OW34584   5.634   3.154   6.013
 7518SOL    HW134585   5.600   3.174   5.921
 7518SOL    HW234586   5.594   3.219   6.078
 7519SOL     OW34587   3.222   5.507   0.668
 7519SOL    HW134588   3.313   5.465   0.661
 7519SOL    HW234589   3.208   5.542   0.761
 7520SOL     OW34590   8.923   5.764   6.706
 7520SOL    HW134591   8.846   5.810   6.663
 7520SOL    HW234592   8.890   5.703   6.778
 7521SOL     OW34593   2.984   8.469   0.299
 7521SOL    HW134594   3.078   8.487   0.325
 7521SOL    HW234595   2.969   8.495   0.204
 7522SOL     OW34596   2.436   2.524   2.256
 7522SOL    HW134597   2.497   2.593   2.218
 7522SOL    HW234598   2.341   2.553   2.242
 7523SOL     OW34599   2.299   1.078   0.546
 7523SOL    HW134600   2.349   1.164   0.553
 7523SOL    HW234601   2.212   1.086   0.595
 7524SOL     OW34602   5.722   7.853   6.670
 7524SOL    HW134603   5.743   7.870   6.766
 7524SOL    HW234604   5.808   7.848   6.618
 7525SOL     OW34605   9.449   5.419   0.555
 7525SOL    HW134606   9.417   5.333   0.516
 7525SOL    HW234607   9.422   5.424   0.651
 7526SOL     OW34608   7.168   5.317   6.439
 7526SOL    HW134609   7.138   5.377   6.365
 7526SOL    HW234610   7.092   5.301   6.502
 7527SOL     OW34611   4.215   5.624   1.378
 7527SOL    HW134612   4.132   5.573   1.356
 7527SOL    HW234613   4.285   5.562   1.413
 7528SOL     OW34614   3.780   0.191   0.637
 7528SOL    HW134615   3.772   0.260   0.709
 7528SOL    HW234616   3.835   0.228   0.562
 7529SOL     OW34617   5.249   3.712   5.975
 7529SOL    HW134618   5.343   3.677   5.980
 7529SOL    HW234619   5.196   3.655   5.912
 7530SOL     OW34620   4.582   5.537   0.981
 7530SOL    HW134621   4.604   5.619   0.927
 7530SOL    HW234622   4.587   5.456   0.922
 7531SOL     OW34623   6.967   8.005   0.079
 7531SOL    HW134624   6.967   7.933   0.009
 7531SOL    HW234625   6.912   8.082   0.047
 7532SOL     OW34626   7.043   2.186   1.186
 7532SOL    HW134627   7.085   2.207   1.098
 7532SOL    HW234628   7.028   2.271   1.237
 7533SOL     OW34629   2.146   1.034   6.667
 7533SOL    HW134630   2.050   1.018   6.688
 7533SOL    HW234631   2.179   1.112   6.720
 7534SOL     OW34632   3.115   2.210   1.726
 7534SOL    HW134633   3.054   2.285   1.749
 7534SOL    HW234634   3.200   2.246   1.688
 7535SOL     OW34635   4.949   5.533   6.715
 7535SOL    HW134636   4.932   5.575   6.804
 7535SOL    HW234637   4.990   5.443   6.727
 7536SOL     OW34638   1.925   4.477   1.123
 7536SOL    HW134639   1.874   4.436   1.048
 7536SOL    HW234640   1.879   4.559   1.155
 7537SOL     OW34641   3.374   4.449   6.507
 7537SOL    HW134642   3.362   4.545   6.532
 7537SOL    HW234643   3.293   4.397   6.534
 7538SOL     OW34644   4.018   4.165   1.032
 7538SOL    HW134645   3.980   4.183   1.123
 7538SOL    HW234646   4.065   4.246   0.998
 7539SOL     OW34647   4.002   4.187   1.335
 7539SOL    HW134648   3.967   4.185   1.429
 7539SOL    HW234649   4.081   4.248   1.331
 7540SOL     OW34650   4.915   7.747   1.420
 7540SOL    HW134651   4.991   7.737   1.485
 7540SOL    HW234652   4.949   7.732   1.327
 7541SOL     OW34653   8.162   1.874   1.141
 7541SOL    HW134654   8.221   1.847   1.217
 7541SOL    HW234655   8.094   1.940   1.173
 7542SOL     OW34656   7.546   5.028   5.983
 7542SOL    HW134657   7.525   4.954   6.047
 7542SOL    HW234658   7.636   5.065   6.004
 7543SOL     OW34659   0.378   6.116   0.906
 7543SOL    HW134660   0.382   6.030   0.856
 7543SOL    HW234661   0.378   6.098   1.004
 7544SOL     OW34662   1.760   4.788   6.684
 7544SOL    HW134663   1.834   4.767   6.619
 7544SOL    HW234664   1.738   4.885   6.680
 7545SOL     OW34665   3.296   0.369   5.463
 7545SOL    HW134666   3.331   0.462   5.463
 7545SOL    HW234667   3.226   0.360   5.534
 7546SOL     OW34668   2.587   8.379   0.287
 7546SOL    HW134669   2.580   8.447   0.360
 7546SOL    HW234670   2.586   8.287   0.327
 7547SOL     OW34671   3.673   7.569   4.807
 7547SOL    HW134672   3.654   7.475   4.777
 7547SOL    HW234673   3.757   7.570   4.860
 7548SOL     OW34674   1.192   4.340   5.876
 7548SOL    HW134675   1.225   4.322   5.784
 7548SOL    HW234676   1.095   4.314   5.882
 7549SOL     OW34677   5.144   7.874   1.525
 7549SOL    HW134678   5.205   7.953   1.525
 7549SOL    HW234679   5.188   7.798   1.574
 7550SOL     OW34680   1.404   5.015   0.562
 7550SOL    HW134681   1.350   4.939   0.525
 7550SOL    HW234682   1.373   5.101   0.520
 7551SOL     OW34683   1.143   6.078   0.866
 7551SOL    HW134684   1.219   6.112   0.811
 7551SOL    HW234685   1.178   6.026   0.944
 7552SOL     OW34686   7.343   6.834   6.437
 7552SOL    HW134687   7.362   6.845   6.340
 7552SOL    HW234688   7.423   6.795   6.482
 7553SOL     OW34689   4.380   5.940   6.444
 7553SOL    HW134690   4.428   5.952   6.357
 7553SOL    HW234691   4.447   5.926   6.517
 7554SOL     OW34692   9.100   5.593   5.713
 7554SOL    HW134693   9.032   5.521   5.731
 7554SOL    HW234694   9.171   5.589   5.784
 7555SOL     OW34695   1.143   7.634   0.266
 7555SOL    HW134696   1.163   7.605   0.172
 7555SOL    HW234697   1.083   7.566   0.309
 7556SOL     OW34698   8.595   2.903   5.186
 7556SOL    HW134699   8.666   2.859   5.131
 7556SOL    HW234700   8.561   2.984   5.137
 7557SOL     OW34701   8.355   8.034   5.141
 7557SOL    HW134702   8.353   8.112   5.078
 7557SOL    HW234703   8.385   7.952   5.093
 7558SOL     OW34704   7.844   3.867   6.441
 7558SOL    HW134705   7.791   3.935   6.491
 7558SOL    HW234706   7.807   3.776   6.457
 7559SOL     OW34707   2.665   1.485   1.031
 7559SOL    HW134708   2.583   1.533   1.059
 7559SOL    HW234709   2.743   1.516   1.085
 7560SOL     OW34710   3.225   7.612   0.317
 7560SOL    HW134711   3.164   7.538   0.347
 7560SOL    HW234712   3.299   7.623   0.384
 7561SOL     OW34713   6.801   5.748   5.643
 7561SOL    HW134714   6.833   5.814   5.711
 7561SOL    HW234715   6.702   5.736   5.653
 7562SOL     OW34716   4.214   0.454   1.428
 7562SOL    HW134717   4.235   0.366   1.469
 7562SOL    HW234718   4.280   0.522   1.458
 7563SOL     OW34719   3.408   2.922   2.101
 7563SOL    HW134720   3.421   2.828   2.133
 7563SOL    HW234721   3.348   2.971   2.164
 7564SOL     OW34722   5.116   6.294   6.184
 7564SOL    HW134723   5.189   6.247   6.234
 7564SOL    HW234724   5.029   6.283   6.233
 7565SOL     OW34725   0.687   5.326   0.520
 7565SOL    HW134726   0.621   5.278   0.579
 7565SOL    HW234727   0.747   5.260   0.475
 7566SOL     OW34728   3.902   7.392   0.738
 7566SOL    HW134729   3.914   7.408   0.641
 7566SOL    HW234730   3.941   7.303   0.762
 7567SOL     OW34731   5.045   1.772   0.481
 7567SOL    HW134732   5.063   1.857   0.531
 7567SOL    HW234733   5.123   1.710   0.492
 7568SOL     OW34734   1.719   0.723   0.359
 7568SOL    HW134735   1.771   0.770   0.429
 7568SOL    HW234736   1.749   0.753   0.268
 7569SOL     OW34737   5.092   8.380   1.775
 7569SOL    HW134738   5.187   8.389   1.804
 7569SOL    HW234739   5.033   8.377   1.855
 7570SOL     OW34740   9.304   0.127   0.310
 7570SOL    HW134741   9.272   0.201   0.251
 7570SOL    HW234742   9.332   0.049   0.254
 7571SOL     OW34743   3.720   1.999   2.491
 7571SOL    HW134744   3.728   1.900   2.482
 7571SOL    HW234745   3.632   2.022   2.534
 7572SOL     OW34746   5.025   2.307   6.606
 7572SOL    HW134747   4.948   2.305   6.543
 7572SOL    HW234748   4.993   2.288   6.699
 7573SOL     OW34749   8.480   6.719   6.076
 7573SOL    HW134750   8.526   6.650   6.133
 7573SOL    HW234751   8.448   6.676   5.992
 7574SOL     OW34752   5.032   7.225   1.228
 7574SOL    HW134753   4.958   7.157   1.220
 7574SOL    HW234754   5.118   7.184   1.200
 7575SOL     OW34755   8.163   2.428   1.174
 7575SOL    HW134756   8.074   2.396   1.205
 7575SOL    HW234757   8.154   2.467   1.082
 7576SOL     OW34758   0.299   2.642   5.715
 7576SOL    HW134759   0.293   2.723   5.773
 7576SOL    HW234760   0.207   2.612   5.690
 7577SOL     OW34761   7.631   5.854   0.562
 7577SOL    HW134762   7.601   5.881   0.654
 7577SOL    HW234763   7.724   5.887   0.546
 7578SOL     OW34764   3.438   2.035   1.632
 7578SOL    HW134765   3.499   2.027   1.553
 7578SOL    HW234766   3.391   1.949   1.647
 7579SOL     OW34767   3.819   6.904   1.622
 7579SOL    HW134768   3.860   6.891   1.532
 7579SOL    HW234769   3.878   6.962   1.678
 7580SOL     OW34770   7.494   4.824   6.178
 7580SOL    HW134771   7.565   4.778   6.232
 7580SOL    HW234772   7.410   4.832   6.232
 7581SOL     OW34773   4.937   8.375   1.548
 7581SOL    HW134774   5.011   8.335   1.494
 7581SOL    HW234775   4.969   8.394   1.641
 7582SOL     OW34776   9.358   5.780   0.810
 7582SOL    HW134777   9.337   5.797   0.907
 7582SOL    HW234778   9.449   5.814   0.789
 7583SOL     OW34779   0.554   6.874   4.723
 7583SOL    HW134780   0.497   6.833   4.794
 7583SOL    HW234781   0.523   6.842   4.633
 7584SOL     OW34782   7.405   5.308   6.603
 7584SOL    HW134783   7.484   5.272   6.553
 7584SOL    HW234784   7.335   5.339   6.539
 7585SOL     OW34785   2.114   5.780   5.998
 7585SOL    HW134786   2.206   5.746   6.015
 7585SOL    HW234787   2.081   5.828   6.079
 7586SOL     OW34788   9.364   6.146   6.645
 7586SOL    HW134789   9.324   6.235   6.668
 7586SOL    HW234790   9.391   6.145   6.549
 7587SOL     OW34791   1.527   4.652   6.119
 7587SOL    HW134792   1.480   4.564   6.118
 7587SOL    HW234793   1.601   4.650   6.186
 7588SOL     OW34794   1.036   5.856   0.723
 7588SOL    HW134795   1.088   5.919   0.780
 7588SOL    HW234796   1.049   5.762   0.756
 7589SOL     OW34797   8.096   3.962   0.278
 7589SOL    HW134798   8.145   3.880   0.309
 7589SOL    HW234799   8.150   4.008   0.207
 7590SOL     OW34800   0.046   7.971   0.282
 7590SOL    HW134801   0.096   7.908   0.341
 7590SOL    HW234802   0.067   7.950   0.186
 7591SOL     OW34803   7.019   6.881   5.983
 7591SOL    HW134804   7.051   6.895   5.890
 7591SOL    HW234805   6.949   6.948   6.005
 7592SOL     OW34806   7.426   2.094   6.676
 7592SOL    HW134807   7.335   2.056   6.667
 7592SOL    HW234808   7.493   2.031   6.637
 7593SOL     OW34809   1.881   0.400   1.883
 7593SOL    HW134810   1.818   0.333   1.922
 7593SOL    HW234811   1.830   0.467   1.830
 7594SOL     OW34812   1.013   5.181   1.224
 7594SOL    HW134813   1.034   5.279   1.226
 7594SOL    HW234814   1.097   5.129   1.235
 7595SOL     OW34815   3.420   4.731   5.809
 7595SOL    HW134816   3.507   4.729   5.760
 7595SOL    HW234817   3.364   4.654   5.780
 7596SOL     OW34818   5.441   4.854   0.560
 7596SOL    HW134819   5.409   4.895   0.476
 7596SOL    HW234820   5.443   4.923   0.633
 7597SOL     OW34821   6.947   5.596   5.410
 7597SOL    HW134822   6.902   5.661   5.472
 7597SOL    HW234823   6.991   5.523   5.464
 7598SOL     OW34824   3.190   4.466   6.278
 7598SOL    HW134825   3.234   4.497   6.193
 7598SOL    HW234826   3.252   4.481   6.355
 7599SOL     OW34827   1.629   2.728   5.449
 7599SOL    HW134828   1.621   2.708   5.351
 7599SOL    HW234829   1.596   2.820   5.467
 7600SOL     OW34830   3.266   0.315   5.910
 7600SOL    HW134831   3.305   0.388   5.966
 7600SOL    HW234832   3.275   0.228   5.959
 7601SOL     OW34833   0.790   0.759   5.382
 7601SOL    HW134834   0.770   0.768   5.480
 7601SOL    HW234835   0.877   0.806   5.363
 7602SOL     OW34836   6.516   4.407   0.727
 7602SOL    HW134837   6.422   4.441   0.732
 7602SOL    HW234838   6.524   4.342   0.652
 7603SOL     OW34839   2.835   5.177   5.493
 7603SOL    HW134840   2.821   5.258   5.435
 7603SOL    HW234841   2.844   5.096   5.435
 7604SOL     OW34842   1.383   8.203   0.369
 7604SOL    HW134843   1.336   8.275   0.420
 7604SOL    HW234844   1.428   8.141   0.433
 7605SOL     OW34845   1.788   8.398   5.883
 7605SOL    HW134846   1.731   8.463   5.934
 7605SOL    HW234847   1.879   8.437   5.869
 7606SOL     OW34848   6.091   2.591   5.388
 7606SOL    HW134849   6.136   2.598   5.477
 7606SOL    HW234850   6.149   2.635   5.318
 7607SOL     OW34851   0.837   1.941   0.580
 7607SOL    HW134852   0.823   2.027   0.531
 7607SOL    HW234853   0.932   1.912   0.569
 7608SOL     OW34854   3.154   0.496   1.561
 7608SOL    HW134855   3.229   0.452   1.612
 7608SOL    HW234856   3.091   0.425   1.529
 7609SOL     OW34857   2.759   0.288   0.308
 7609SOL    HW134858   2.666   0.284   0.272
 7609SOL    HW234859   2.756   0.292   0.408
 7610SOL     OW34860   6.131   7.533   1.246
 7610SOL    HW134861   6.159   7.537   1.150
 7610SOL    HW234862   6.075   7.613   1.268
 7611SOL     OW34863   0.432   3.079   5.989
 7611SOL    HW134864   0.370   3.138   6.043
 7611SOL    HW234865   0.497   3.034   6.050
 7612SOL     OW34866   9.008   4.822   0.434
 7612SOL    HW134867   8.954   4.884   0.376
 7612SOL    HW234868   9.080   4.780   0.379
 7613SOL     OW34869   2.036   2.752   6.255
 7613SOL    HW134870   2.021   2.734   6.158
 7613SOL    HW234871   1.958   2.717   6.308
 7614SOL     OW34872   0.834   4.492   5.946
 7614SOL    HW134873   0.860   4.572   5.891
 7614SOL    HW234874   0.916   4.455   5.991
 7615SOL     OW34875   4.020   4.287   6.026
 7615SOL    HW134876   4.040   4.215   5.960
 7615SOL    HW234877   4.086   4.361   6.016
 7616SOL     OW34878   3.420   2.299   1.700
 7616SOL    HW134879   3.417   2.202   1.679
 7616SOL    HW234880   3.488   2.316   1.772
 7617SOL     OW34881   9.120   1.885   5.750
 7617SOL    HW134882   9.103   1.952   5.822
 7617SOL    HW234883   9.210   1.844   5.764
 7618SOL     OW34884   5.534   0.276   0.005
 7618SOL    HW134885   5.460   0.341  -0.012
 7618SOL    HW234886   5.498   0.197   0.055
 7619SOL     OW34887   0.499   1.692   6.381
 7619SOL    HW134888   0.467   1.658   6.293
 7619SOL    HW234889   0.466   1.631   6.454
 7620SOL     OW34890   1.098   6.409   6.390
 7620SOL    HW134891   1.036   6.446   6.321
 7620SOL    HW234892   1.046   6.372   6.467
 7621SOL     OW34893   2.978   3.991   1.201
 7621SOL    HW134894   2.949   4.057   1.132
 7621SOL    HW234895   2.967   4.031   1.292
 7622SOL     OW34896   5.772   7.363   5.584
 7622SOL    HW134897   5.704   7.299   5.549
 7622SOL    HW234898   5.816   7.409   5.507
 7623SOL     OW34899   0.882   7.274   5.072
 7623SOL    HW134900   0.832   7.243   5.153
 7623SOL    HW234901   0.830   7.251   4.990
 7624SOL     OW34902   1.909   7.062   0.046
 7624SOL    HW134903   1.903   6.963   0.037
 7624SOL    HW234904   1.912   7.087   0.143
 7625SOL     OW34905   6.215   5.715   5.904
 7625SOL    HW134906   6.162   5.645   5.856
 7625SOL    HW234907   6.180   5.724   5.997
 7626SOL     OW34908   0.811   5.131   0.381
 7626SOL    HW134909   0.754   5.053   0.355
 7626SOL    HW234910   0.850   5.172   0.298
 7627SOL     OW34911   8.405   7.898   6.383
 7627SOL    HW134912   8.368   7.818   6.429
 7627SOL    HW234913   8.376   7.897   6.287
 7628SOL     OW34914   1.177   6.771   5.042
 7628SOL    HW134915   1.236   6.714   4.985
 7628SOL    HW234916   1.101   6.716   5.076
 7629SOL     OW34917   9.091   0.177   6.561
 7629SOL    HW134918   9.124   0.188   6.468
 7629SOL    HW234919   9.001   0.220   6.571
 7630SOL     OW34920   0.028   5.089   0.693
 7630SOL    HW134921   0.070   5.001   0.715
 7630SOL    HW234922  -0.072   5.079   0.695
 7631SOL     OW34923   8.150   8.345   6.137
 7631SOL    HW134924   8.057   8.371   6.162
 7631SOL    HW234925   8.160   8.245   6.144
 7632SOL     OW34926   4.776   4.570   0.428
 7632SOL    HW134927   4.678   4.572   0.409
 7632SOL    HW234928   4.817   4.658   0.404
 7633SOL     OW34929   5.311   5.700   1.252
 7633SOL    HW134930   5.213   5.704   1.271
 7633SOL    HW234931   5.333   5.762   1.176
 7634SOL     OW34932   0.980   8.276   0.851
 7634SOL    HW134933   1.050   8.345   0.833
 7634SOL    HW234934   1.019   8.185   0.836
 7635SOL     OW34935   6.381   2.109   5.595
 7635SOL    HW134936   6.291   2.138   5.563
 7635SOL    HW234937   6.445   2.110   5.519
 7636SOL     OW34938   2.200   2.896   6.403
 7636SOL    HW134939   2.131   2.831   6.371
 7636SOL    HW234940   2.224   2.959   6.328
 7637SOL     OW34941   3.677   6.020   5.702
 7637SOL    HW134942   3.765   6.012   5.657
 7637SOL    HW234943   3.609   6.056   5.638
 7638SOL     OW34944   8.352   3.337   6.187
 7638SOL    HW134945   8.302   3.417   6.153
 7638SOL    HW234946   8.287   3.270   6.223
 7639SOL     OW34947   1.360   1.125   0.224
 7639SOL    HW134948   1.273   1.170   0.206
 7639SOL    HW234949   1.355   1.030   0.193
 7640SOL     OW34950   4.132   4.447   1.189
 7640SOL    HW134951   4.037   4.471   1.167
 7640SOL    HW234952   4.139   4.429   1.288
 7641SOL     OW34953   9.278   4.734   6.022
 7641SOL    HW134954   9.320   4.775   5.941
 7641SOL    HW234955   9.343   4.671   6.065
 7642SOL     OW34956   1.560   0.110   6.367
 7642SOL    HW134957   1.551   0.012   6.349
 7642SOL    HW234958   1.642   0.126   6.421
 7643SOL     OW34959   1.770   2.275   1.205
 7643SOL    HW134960   1.705   2.341   1.168
 7643SOL    HW234961   1.828   2.321   1.273
 7644SOL     OW34962   3.218   7.775   1.266
 7644SOL    HW134963   3.243   7.725   1.183
 7644SOL    HW234964   3.193   7.869   1.241
 7645SOL     OW34965   0.245   1.430   5.607
 7645SOL    HW134966   0.228   1.334   5.585
 7645SOL    HW234967   0.178   1.488   5.561
 7646SOL     OW34968   1.077   5.086   1.709
 7646SOL    HW134969   1.088   4.996   1.750
 7646SOL    HW234970   1.146   5.099   1.638
 7647SOL     OW34971   3.713   7.441   5.504
 7647SOL    HW134972   3.786   7.509   5.503
 7647SOL    HW234973   3.736   7.370   5.571
 7648SOL     OW34974   6.017   2.254   6.624
 7648SOL    HW134975   6.113   2.250   6.653
 7648SOL    HW234976   5.959   2.273   6.703
 7649SOL     OW34977   3.694   2.944   1.891
 7649SOL    HW134978   3.717   2.924   1.986
 7649SOL    HW234979   3.607   2.995   1.888
 7650SOL     OW34980   5.834   6.189   6.194
 7650SOL    HW134981   5.894   6.112   6.174
 7650SOL    HW234982   5.740   6.165   6.171
 7651SOL     OW34983   4.076   5.038   6.239
 7651SOL    HW134984   4.097   5.117   6.183
 7651SOL    HW234985   3.977   5.024   6.242
 7652SOL     OW34986   4.269   3.780   0.934
 7652SOL    HW134987   4.357   3.745   0.966
 7652SOL    HW234988   4.267   3.879   0.944
 7653SOL     OW34989   0.206   5.126   1.223
 7653SOL    HW134990   0.213   5.185   1.304
 7653SOL    HW234991   0.292   5.077   1.209
 7654SOL     OW34992   0.825   7.113   5.990
 7654SOL    HW134993   0.881   7.040   5.953
 7654SOL    HW234994   0.811   7.183   5.920
 7655SOL     OW34995   5.927   0.320   5.947
 7655SOL    HW134996   5.952   0.413   5.974
 7655SOL    HW234997   5.872   0.324   5.863
 7656SOL     OW34998   4.995   4.330   1.142
 7656SOL    HW134999   5.086   4.328   1.182
 7656SOL    HW235000   4.971   4.424   1.119
 7657SOL     OW35001   1.762   8.147   6.039
 7657SOL    HW135002   1.787   8.233   5.996
 7657SOL    HW235003   1.740   8.163   6.136
 7658SOL     OW35004   4.695   5.877   5.150
 7658SOL    HW135005   4.639   5.941   5.098
 7658SOL    HW235006   4.689   5.786   5.108
 7659SOL     OW35007   5.954   1.043   5.830
 7659SOL    HW135008   5.979   1.013   5.738
 7659SOL    HW235009   5.872   0.993   5.860
 7660SOL     OW35010   0.706   5.879   4.580
 7660SOL    HW135011   0.611   5.869   4.609
 7660SOL    HW235012   0.718   5.969   4.538
 7661SOL     OW35013   0.323   7.432   0.829
 7661SOL    HW135014   0.287   7.525   0.825
 7661SOL    HW235015   0.260   7.375   0.883
 7662SOL     OW35016   3.777   8.347   0.348
 7662SOL    HW135017   3.724   8.311   0.424
 7662SOL    HW235018   3.842   8.278   0.316
 7663SOL     OW35019   8.859   0.673   0.545
 7663SOL    HW135020   8.896   0.690   0.636
 7663SOL    HW235021   8.807   0.753   0.515
 7664SOL     OW35022   4.049   6.463   5.033
 7664SOL    HW135023   4.111   6.427   4.963
 7664SOL    HW235024   3.960   6.483   4.991
 7665SOL     OW35025   0.498   1.108   4.967
 7665SOL    HW135026   0.462   1.100   4.874
 7665SOL    HW235027   0.573   1.174   4.969
 7666SOL     OW35028   5.131   3.879   0.245
 7666SOL    HW135029   5.076   3.842   0.171
 7666SOL    HW235030   5.071   3.911   0.318
 7667SOL     OW35031   6.579   6.021   6.226
 7667SOL    HW135032   6.492   6.067   6.209
 7667SOL    HW235033   6.573   5.926   6.194
 7668SOL     OW35034   8.551   8.499   0.525
 7668SOL    HW135035   8.514   8.540   0.608
 7668SOL    HW235036   8.527   8.402   0.523
 7669SOL     OW35037   6.209   5.570   5.160
 7669SOL    HW135038   6.184   5.581   5.064
 7669SOL    HW235039   6.140   5.516   5.207
 7670SOL     OW35040   0.909   3.067   5.185
 7670SOL    HW135041   0.832   3.097   5.127
 7670SOL    HW235042   0.991   3.057   5.129
 7671SOL     OW35043   1.019   7.276   4.576
 7671SOL    HW135044   1.091   7.311   4.516
 7671SOL    HW235045   1.031   7.178   4.589
 7672SOL     OW35046   7.923   4.897   6.711
 7672SOL    HW135047   7.857   4.939   6.649
 7672SOL    HW235048   7.953   4.964   6.779
 7673SOL     OW35049   2.684   1.555   1.512
 7673SOL    HW135050   2.636   1.482   1.465
 7673SOL    HW235051   2.643   1.572   1.602
 7674SOL     OW35052   6.536   7.582   6.464
 7674SOL    HW135053   6.529   7.486   6.493
 7674SOL    HW235054   6.468   7.636   6.514
 7675SOL     OW35055   3.391   5.200   5.859
 7675SOL    HW135056   3.308   5.147   5.839
 7675SOL    HW235057   3.468   5.160   5.810
 7676SOL     OW35058   5.461   2.634   0.090
 7676SOL    HW135059   5.412   2.718   0.115
 7676SOL    HW235060   5.558   2.655   0.077
 7677SOL     OW35061   5.525   7.424   0.389
 7677SOL    HW135062   5.518   7.399   0.485
 7677SOL    HW235063   5.439   7.403   0.342
 7678SOL     OW35064   4.026   2.149   6.490
 7678SOL    HW135065   4.066   2.223   6.544
 7678SOL    HW235066   4.097   2.083   6.467
 7679SOL     OW35067   5.497   4.673   0.874
 7679SOL    HW135068   5.476   4.628   0.787
 7679SOL    HW235069   5.546   4.609   0.933
 7680SOL     OW35070   1.018   6.208   0.579
 7680SOL    HW135071   1.046   6.177   0.670
 7680SOL    HW235072   1.097   6.247   0.532
 7681SOL     OW35073   5.720   0.542   1.429
 7681SOL    HW135074   5.805   0.545   1.481
 7681SOL    HW235075   5.720   0.463   1.369
 7682SOL     OW35076   8.390   2.310   5.214
 7682SOL    HW135077   8.486   2.334   5.198
 7682SOL    HW235078   8.373   2.218   5.179
 7683SOL     OW35079   1.895   4.141   6.477
 7683SOL    HW135080   1.821   4.170   6.537
 7683SOL    HW235081   1.947   4.068   6.522
 7684SOL     OW35082   4.013   7.037   1.764
 7684SOL    HW135083   3.945   7.109   1.781
 7684SOL    HW235084   4.069   7.024   1.846
 7685SOL     OW35085   1.183   8.094   6.649
 7685SOL    HW135086   1.131   8.010   6.633
 7685SOL    HW235087   1.244   8.081   6.728
 7686SOL     OW35088   1.519   8.186   5.771
 7686SOL    HW135089   1.533   8.095   5.732
 7686SOL    HW235090   1.550   8.255   5.705
 7687SOL     OW35091   1.231   5.199   6.103
 7687SOL    HW135092   1.194   5.233   6.017
 7687SOL    HW235093   1.196   5.107   6.120
 7688SOL     OW35094   2.913   2.367   6.331
 7688SOL    HW135095   2.892   2.290   6.391
 7688SOL    HW235096   2.893   2.341   6.236
 7689SOL     OW35097   6.708   7.444   0.308
 7689SOL    HW135098   6.634   7.496   0.351
 7689SOL    HW235099   6.672   7.394   0.229
 7690SOL     OW35100   4.495   0.935   0.933
 7690SOL    HW135101   4.534   0.846   0.910
 7690SOL    HW235102   4.410   0.923   0.983
 7691SOL     OW35103   2.847   0.600   1.032
 7691SOL    HW135104   2.815   0.572   1.122
 7691SOL    HW235105   2.769   0.624   0.974
 7692SOL     OW35106   6.742   7.620   5.714
 7692SOL    HW135107   6.751   7.707   5.763
 7692SOL    HW235108   6.706   7.551   5.777
 7693SOL     OW35109   4.409   7.237   0.523
 7693SOL    HW135110   4.325   7.184   0.537
 7693SOL    HW235111   4.392   7.310   0.457
 7694SOL     OW35112   4.349   6.491   1.138
 7694SOL    HW135113   4.425   6.440   1.098
 7694SOL    HW235114   4.292   6.430   1.193
 7695SOL     OW35115   6.575   3.347   6.378
 7695SOL    HW135116   6.635   3.302   6.445
 7695SOL    HW235117   6.585   3.303   6.289
 7696SOL     OW35118   1.842   0.301   6.511
 7696SOL    HW135119   1.828   0.223   6.572
 7696SOL    HW235120   1.780   0.294   6.433
 7697SOL     OW35121   5.822   2.791   6.567
 7697SOL    HW135122   5.736   2.836   6.543
 7697SOL    HW235123   5.856   2.828   6.653
 7698SOL     OW35124   8.719   0.463   5.813
 7698SOL    HW135125   8.779   0.499   5.884
 7698SOL    HW235126   8.704   0.365   5.828
 7699SOL     OW35127   9.224   6.091   5.253
 7699SOL    HW135128   9.257   6.184   5.243
 7699SOL    HW235129   9.169   6.066   5.174
 7700SOL     OW35130   4.394   3.054   6.043
 7700SOL    HW135131   4.402   3.154   6.038
 7700SOL    HW235132   4.468   3.018   6.099
 7701SOL     OW35133   6.406   3.013   5.804
 7701SOL    HW135134   6.325   3.013   5.745
 7701SOL    HW235135   6.481   2.964   5.760
 7702SOL     OW35136   3.933   5.520   6.616
 7702SOL    HW135137   3.893   5.498   6.527
 7702SOL    HW235138   4.032   5.531   6.605
 7703SOL     OW35139   1.904   6.812   0.985
 7703SOL    HW135140   1.995   6.844   1.009
 7703SOL    HW235141   1.835   6.872   1.027
 7704SOL     OW35142   4.717   1.170   0.713
 7704SOL    HW135143   4.619   1.164   0.693
 7704SOL    HW235144   4.732   1.160   0.811
 7705SOL     OW35145   5.859   0.661   6.365
 7705SOL    HW135146   5.949   0.619   6.377
 7705SOL    HW235147   5.861   0.723   6.286
 7706SOL     OW35148   1.508   6.134   5.043
 7706SOL    HW135149   1.560   6.068   4.989
 7706SOL    HW235150   1.469   6.088   5.123
 7707SOL     OW35151   6.650   7.625   0.625
 7707SOL    HW135152   6.710   7.552   0.593
 7707SOL    HW235153   6.656   7.703   0.563
 7708SOL     OW35154   4.626   4.334   0.983
 7708SOL    HW135155   4.599   4.252   0.932
 7708SOL    HW235156   4.720   4.359   0.958
 7709SOL     OW35157   1.288   2.911   6.404
 7709SOL    HW135158   1.237   2.968   6.469
 7709SOL    HW235159   1.238   2.905   6.318
 7710SOL     OW35160   7.654   7.880   1.026
 7710SOL    HW135161   7.604   7.940   0.964
 7710SOL    HW235162   7.606   7.792   1.033
 7711SOL     OW35163   7.281   0.617   5.660
 7711SOL    HW135164   7.305   0.579   5.750
 7711SOL    HW235165   7.348   0.688   5.635
 7712SOL     OW35166   0.113   4.547   5.938
 7712SOL    HW135167   0.056   4.570   6.017
 7712SOL    HW235168   0.133   4.631   5.887
 7713SOL     OW35169   1.933   0.394   6.170
 7713SOL    HW135170   1.911   0.435   6.082
 7713SOL    HW235171   1.852   0.346   6.205
 7714SOL     OW35172   3.538   5.459   0.636
 7714SOL    HW135173   3.572   5.525   0.703
 7714SOL    HW235174   3.582   5.475   0.548
 7715SOL     OW35175   7.056   3.673   6.101
 7715SOL    HW135176   7.109   3.735   6.043
 7715SOL    HW235177   6.970   3.650   6.056
 7716SOL     OW35178   7.063   0.708   0.472
 7716SOL    HW135179   7.045   0.683   0.376
 7716SOL    HW235180   7.082   0.806   0.477
 7717SOL     OW35181   0.856   2.916   1.090
 7717SOL    HW135182   0.782   2.972   1.128
 7717SOL    HW235183   0.898   2.965   1.013
 7718SOL     OW35184   4.443   5.820   0.437
 7718SOL    HW135185   4.383   5.794   0.513
 7718SOL    HW235186   4.425   5.760   0.359
 7719SOL     OW35187   6.702   7.892   5.758
 7719SOL    HW135188   6.714   7.929   5.667
 7719SOL    HW235189   6.632   7.944   5.807
 7720SOL     OW35190   5.074   6.724   5.681
 7720SOL    HW135191   5.106   6.673   5.761
 7720SOL    HW235192   5.037   6.661   5.613
 7721SOL     OW35193   6.753   2.093   1.982
 7721SOL    HW135194   6.823   2.029   1.948
 7721SOL    HW235195   6.666   2.074   1.938
 7722SOL     OW35196   2.805   1.187   6.561
 7722SOL    HW135197   2.766   1.201   6.470
 7722SOL    HW235198   2.733   1.158   6.624
 7723SOL     OW35199   6.325   8.435   5.921
 7723SOL    HW135200   6.296   8.360   5.980
 7723SOL    HW235201   6.424   8.433   5.909
 7724SOL     OW35202   1.795   1.357   6.052
 7724SOL    HW135203   1.880   1.410   6.048
 7724SOL    HW235204   1.810   1.268   6.010
 7725SOL     OW35205   2.213   5.767   0.631
 7725SOL    HW135206   2.120   5.752   0.664
 7725SOL    HW235207   2.278   5.731   0.698
 7726SOL     OW35208   5.445   2.505   6.575
 7726SOL    HW135209   5.542   2.513   6.551
 7726SOL    HW235210   5.431   2.536   6.669
 7727SOL     OW35211   0.313   6.314   6.377
 7727SOL    HW135212   0.217   6.283   6.374
 7727SOL    HW235213   0.329   6.363   6.462
 7728SOL     OW35214   8.824   8.233   0.033
 7728SOL    HW135215   8.838   8.150  -0.021
 7728SOL    HW235216   8.909   8.257   0.079
 7729SOL     OW35217   5.411   7.214   0.871
 7729SOL    HW135218   5.504   7.230   0.838
 7729SOL    HW235219   5.395   7.268   0.954
 7730SOL     OW35220   0.835   1.431   5.408
 7730SOL    HW135221   0.750   1.483   5.408
 7730SOL    HW235222   0.839   1.373   5.328
 7731SOL     OW35223   2.883   2.164   0.099
 7731SOL    HW135224   2.793   2.130   0.071
 7731SOL    HW235225   2.949   2.088   0.097
 7732SOL     OW35226   0.607   3.609   5.954
 7732SOL    HW135227   0.668   3.667   6.008
 7732SOL    HW235228   0.599   3.519   5.997
 7733SOL     OW35229   4.689   5.197   5.839
 7733SOL    HW135230   4.751   5.232   5.769
 7733SOL    HW235231   4.740   5.148   5.909
 7734SOL     OW35232   4.095   1.986   1.603
 7734SOL    HW135233   4.049   2.075   1.604
 7734SOL    HW235234   4.191   1.997   1.628
 7735SOL     OW35235   0.377   4.112   6.062
 7735SOL    HW135236   0.386   4.021   6.020
 7735SOL    HW235237   0.380   4.103   6.162
 7736SOL     OW35238   3.645   5.217   0.174
 7736SOL    HW135239   3.565   5.231   0.116
 7736SOL    HW235240   3.723   5.265   0.134
 7737SOL     OW35241   4.265   2.080   5.496
 7737SOL    HW135242   4.181   2.027   5.500
 7737SOL    HW235243   4.274   2.135   5.579
 7738SOL     OW35244   4.849   5.848   5.401
 7738SOL    HW135245   4.938   5.828   5.360
 7738SOL    HW235246   4.784   5.872   5.329
 7739SOL     OW35247   4.442   7.703   6.438
 7739SOL    HW135248   4.535   7.734   6.460
 7739SOL    HW235249   4.389   7.778   6.400
 7740SOL     OW35250   5.773   3.642   0.246
 7740SOL    HW135251   5.872   3.647   0.260
 7740SOL    HW235252   5.741   3.551   0.274
 7741SOL     OW35253   3.654   2.315   0.146
 7741SOL    HW135254   3.637   2.331   0.244
 7741SOL    HW235255   3.582   2.257   0.109
 7742SOL     OW35256   8.485   3.895   0.220
 7742SOL    HW135257   8.567   3.878   0.165
 7742SOL    HW235258   8.412   3.833   0.189
 7743SOL     OW35259   2.113   4.155   6.080
 7743SOL    HW135260   2.082   4.091   6.009
 7743SOL    HW235261   2.036   4.177   6.140
 7744SOL     OW35262   1.514   5.579   0.297
 7744SOL    HW135263   1.526   5.539   0.388
 7744SOL    HW235264   1.422   5.616   0.288
 7745SOL     OW35265   6.784   8.014   1.009
 7745SOL    HW135266   6.685   8.013   1.023
 7745SOL    HW235267   6.830   7.971   1.087
 7746SOL     OW35268   8.177   0.807   5.780
 7746SOL    HW135269   8.205   0.867   5.706
 7746SOL    HW235270   8.078   0.803   5.785
 7747SOL     OW35271   5.368   5.797   0.449
 7747SOL    HW135272   5.445   5.750   0.493
 7747SOL    HW235273   5.392   5.893   0.434
 7748SOL     OW35274   1.611   6.069   0.838
 7748SOL    HW135275   1.673   6.015   0.781
 7748SOL    HW235276   1.639   6.062   0.934
 7749SOL     OW35277   4.259   1.840   0.182
 7749SOL    HW135278   4.224   1.861   0.273
 7749SOL    HW235279   4.270   1.925   0.130
 7750SOL     OW35280   9.254   0.726   6.571
 7750SOL    HW135281   9.331   0.767   6.621
 7750SOL    HW235282   9.183   0.795   6.559
 7751SOL     OW35283   4.308   3.026   5.800
 7751SOL    HW135284   4.286   3.121   5.779
 7751SOL    HW235285   4.360   3.022   5.885
 7752SOL     OW35286   8.955   0.754   5.833
 7752SOL    HW135287   9.013   0.827   5.870
 7752SOL    HW235288   8.869   0.793   5.802
 7753SOL     OW35289   6.801   7.352   5.630
 7753SOL    HW135290   6.840   7.396   5.549
 7753SOL    HW235291   6.851   7.383   5.711
 7754SOL     OW35292   9.415   4.941   6.436
 7754SOL    HW135293   9.382   5.026   6.395
 7754SOL    HW235294   9.401   4.944   6.535
 7755SOL     OW35295   1.402   0.952   6.211
 7755SOL    HW135296   1.386   0.876   6.275
 7755SOL    HW235297   1.459   1.021   6.255
 7756SOL     OW35298   5.979   3.517   0.383
 7756SOL    HW135299   5.933   3.428   0.384
 7756SOL    HW235300   5.981   3.554   0.476
 7757SOL     OW35301   1.181   8.480   0.809
 7757SOL    HW135302   1.172   8.550   0.880
 7757SOL    HW235303   1.264   8.426   0.825
 7758SOL     OW35304   9.145   3.178   5.809
 7758SOL    HW135305   9.222   3.198   5.749
 7758SOL    HW235306   9.066   3.233   5.781
 7759SOL     OW35307   5.502   3.755   1.153
 7759SOL    HW135308   5.410   3.784   1.125
 7759SOL    HW235309   5.544   3.827   1.207
 7760SOL     OW35310   9.471   7.366   5.718
 7760SOL    HW135311   9.482   7.354   5.817
 7760SOL    HW235312   9.504   7.457   5.692
 7761SOL     OW35313   6.033   5.066   5.231
 7761SOL    HW135314   5.965   5.082   5.159
 7761SOL    HW235315   6.101   5.140   5.229
 7762SOL     OW35316   2.898   5.062   6.050
 7762SOL    HW135317   2.805   5.047   6.084
 7762SOL    HW235318   2.946   5.126   6.109
 7763SOL     OW35319   5.595   5.741   0.738
 7763SOL    HW135320   5.563   5.830   0.770
 7763SOL    HW235321   5.609   5.681   0.816
 7764SOL     OW35322   4.399   0.863   5.964
 7764SOL    HW135323   4.319   0.815   6.000
 7764SOL    HW235324   4.479   0.840   6.019
 7765SOL     OW35325   7.544   1.393   0.334
 7765SOL    HW135326   7.632   1.394   0.286
 7765SOL    HW235327   7.489   1.471   0.303
 7766SOL     OW35328   0.130   8.483   0.437
 7766SOL    HW135329   0.158   8.387   0.438
 7766SOL    HW235330   0.033   8.489   0.414
 7767SOL     OW35331   6.004   6.105   0.880
 7767SOL    HW135332   6.100   6.088   0.901
 7767SOL    HW235333   5.948   6.083   0.960
 7768SOL     OW35334   1.169   1.175   6.658
 7768SOL    HW135335   1.103   1.106   6.629
 7768SOL    HW235336   1.128   1.233   6.729
 7769SOL     OW35337   7.818   6.181   5.993
 7769SOL    HW135338   7.779   6.145   5.908
 7769SOL    HW235339   7.774   6.137   6.071
 7770SOL     OW35340   7.769   7.933   0.640
 7770SOL    HW135341   7.802   8.001   0.575
 7770SOL    HW235342   7.670   7.920   0.627
 7771SOL     OW35343   0.840   0.703   1.476
 7771SOL    HW135344   0.875   0.726   1.567
 7771SOL    HW235345   0.753   0.751   1.461
 7772SOL     OW35346   5.126   8.298   0.355
 7772SOL    HW135347   5.095   8.204   0.340
 7772SOL    HW235348   5.226   8.299   0.360
 7773SOL     OW35349   0.126   2.211   5.652
 7773SOL    HW135350   0.097   2.245   5.741
 7773SOL    HW235351   0.111   2.112   5.647
 7774SOL     OW35352   0.242   0.331   4.596
 7774SOL    HW135353   0.305   0.385   4.651
 7774SOL    HW235354   0.188   0.392   4.538
 7775SOL     OW35355   1.236   0.019   6.117
 7775SOL    HW135356   1.276  -0.003   6.028
 7775SOL    HW235357   1.277  -0.040   6.188
 7776SOL     OW35358   6.205   5.547   1.143
 7776SOL    HW135359   6.267   5.476   1.177
 7776SOL    HW235360   6.166   5.519   1.056
 7777SOL     OW35361   2.158   0.723   0.318
 7777SOL    HW135362   2.206   0.811   0.312
 7777SOL    HW235363   2.211   0.660   0.375
 7778SOL     OW35364   2.609   6.056   0.501
 7778SOL    HW135365   2.651   5.998   0.571
 7778SOL    HW235366   2.605   6.005   0.415
 7779SOL     OW35367   8.850   0.494   0.192
 7779SOL    HW135368   8.797   0.502   0.107
 7779SOL    HW235369   8.942   0.530   0.176
 7780SOL     OW35370   0.050   2.844   5.893
 7780SOL    HW135371   0.056   2.883   5.801
 7780SOL    HW235372  -0.046   2.829   5.916
 7781SOL     OW35373   8.634   5.701   5.814
 7781SOL    HW135374   8.730   5.714   5.788
 7781SOL    HW235375   8.619   5.742   5.904
 7782SOL     OW35376   8.306   8.132   0.459
 7782SOL    HW135377   8.221   8.180   0.435
 7782SOL    HW235378   8.370   8.137   0.382
 7783SOL     OW35379   6.518   0.899   1.091
 7783SOL    HW135380   6.595   0.893   1.154
 7783SOL    HW235381   6.477   0.808   1.080
 7784SOL     OW35382   1.808   4.217   0.335
 7784SOL    HW135383   1.851   4.299   0.299
 7784SOL    HW235384   1.721   4.240   0.379
 7785SOL     OW35385   0.632   8.450   0.091
 7785SOL    HW135386   0.545   8.476   0.047
 7785SOL    HW235387   0.625   8.466   0.189
 7786SOL     OW35388   6.988   5.183   1.324
 7786SOL    HW135389   6.934   5.138   1.395
 7786SOL    HW235390   7.009   5.118   1.251
 7787SOL     OW35391   1.966   1.245   1.462
 7787SOL    HW135392   2.047   1.187   1.449
 7787SOL    HW235393   1.981   1.304   1.542
 7788SOL     OW35394   3.306   8.456   1.209
 7788SOL    HW135395   3.333   8.379   1.265
 7788SOL    HW235396   3.384   8.487   1.154
 7789SOL     OW35397   3.802   4.761   6.717
 7789SOL    HW135398   3.744   4.842   6.710
 7789SOL    HW235399   3.763   4.688   6.660
 7790SOL     OW35400   0.275   7.248   4.196
 7790SOL    HW135401   0.310   7.207   4.280
 7790SOL    HW235402   0.276   7.181   4.123
 7791SOL     OW35403   8.758   5.833   6.312
 7791SOL    HW135404   8.727   5.928   6.324
 7791SOL    HW235405   8.800   5.823   6.222
 7792SOL     OW35406   9.466   7.801   5.811
 7792SOL    HW135407   9.459   7.889   5.765
 7792SOL    HW235408   9.513   7.736   5.751
 7793SOL     OW35409   5.419   6.181   0.204
 7793SOL    HW135410   5.478   6.129   0.142
 7793SOL    HW235411   5.403   6.273   0.166
 7794SOL     OW35412   4.072   2.914   5.837
 7794SOL    HW135413   4.002   2.971   5.794
 7794SOL    HW235414   4.163   2.950   5.814
 7795SOL     OW35415   4.886   5.349   5.287
 7795SOL    HW135416   4.886   5.262   5.237
 7795SOL    HW235417   4.800   5.358   5.337
 7796SOL     OW35418   1.381   5.665   1.249
 7796SOL    HW135419   1.462   5.724   1.244
 7796SOL    HW235420   1.394   5.597   1.320
 7797SOL     OW35421   6.245   0.061   6.313
 7797SOL    HW135422   6.340   0.051   6.281
 7797SOL    HW235423   6.183   0.053   6.236
 7798SOL     OW35424   4.067   4.779   6.154
 7798SOL    HW135425   4.085   4.751   6.060
 7798SOL    HW235426   4.098   4.872   6.168
 7799SOL     OW35427   2.803   6.331   0.648
 7799SOL    HW135428   2.837   6.270   0.720
 7799SOL    HW235429   2.751   6.278   0.581
 7800SOL     OW35430   7.384   6.379   1.370
 7800SOL    HW135431   7.343   6.458   1.416
 7800SOL    HW235432   7.482   6.377   1.387
 7801SOL     OW35433   0.350   4.647   6.191
 7801SOL    HW135434   0.409   4.570   6.217
 7801SOL    HW235435   0.255   4.625   6.214
 7802SOL     OW35436   7.652   1.008   5.489
 7802SOL    HW135437   7.571   1.028   5.434
 7802SOL    HW235438   7.732   1.053   5.448
 7803SOL     OW35439   8.238   5.129   5.584
 7803SOL    HW135440   8.214   5.037   5.555
 7803SOL    HW235441   8.156   5.178   5.613
 7804SOL     OW35442   0.097   5.575   5.830
 7804SOL    HW135443   0.143   5.656   5.867
 7804SOL    HW235444   0.156   5.532   5.762
 7805SOL     OW35445   0.856   6.705   1.051
 7805SOL    HW135446   0.847   6.735   1.146
 7805SOL    HW235447   0.787   6.752   0.995
 7806SOL     OW35448   9.203   4.155   1.262
 7806SOL    HW135449   9.249   4.196   1.341
 7806SOL    HW235450   9.146   4.224   1.217
 7807SOL     OW35451   5.968   4.453   6.537
 7807SOL    HW135452   5.874   4.486   6.532
 7807SOL    HW235453   6.005   4.444   6.444
 7808SOL     OW35454   3.568   8.348   6.533
 7808SOL    HW135455   3.646   8.390   6.580
 7808SOL    HW235456   3.510   8.420   6.494
 7809SOL     OW35457   5.141   3.975   0.944
 7809SOL    HW135458   5.062   4.019   0.987
 7809SOL    HW235459   5.216   4.041   0.936
 7810SOL     OW35460   1.047   3.146   0.747
 7810SOL    HW135461   1.003   3.199   0.819
 7810SOL    HW235462   1.024   3.184   0.657
 7811SOL     OW35463   4.343   6.902   0.617
 7811SOL    HW135464   4.287   6.973   0.660
 7811SOL    HW235465   4.286   6.823   0.594
 7812SOL     OW35466   2.452   3.000   0.745
 7812SOL    HW135467   2.467   3.010   0.647
 7812SOL    HW235468   2.470   3.088   0.790
 7813SOL     OW35469   6.724   7.305   0.669
 7813SOL    HW135470   6.823   7.301   0.653
 7813SOL    HW235471   6.704   7.260   0.756
 7814SOL     OW35472   5.335   6.744   5.594
 7814SOL    HW135473   5.393   6.663   5.599
 7814SOL    HW235474   5.262   6.737   5.662
 7815SOL     OW35475   9.413   1.765   5.805
 7815SOL    HW135476   9.413   1.687   5.742
 7815SOL    HW235477   9.455   1.738   5.892
 7816SOL     OW35478   1.831   4.466   0.660
 7816SOL    HW135479   1.751   4.419   0.623
 7816SOL    HW235480   1.893   4.400   0.700
 7817SOL     OW35481   8.772   0.860   6.200
 7817SOL    HW135482   8.710   0.826   6.129
 7817SOL    HW235483   8.761   0.806   6.283
 7818SOL     OW35484   1.001   0.739   1.257
 7818SOL    HW135485   0.939   0.714   1.331
 7818SOL    HW235486   1.095   0.719   1.284
 7819SOL     OW35487   5.480   7.669   1.434
 7819SOL    HW135488   5.561   7.715   1.470
 7819SOL    HW235489   5.411   7.663   1.506
 7820SOL     OW35490   7.653   7.017   6.400
 7820SOL    HW135491   7.586   6.990   6.331
 7820SOL    HW235492   7.743   7.023   6.358
 7821SOL     OW35493   6.309   4.442   1.080
 7821SOL    HW135494   6.265   4.528   1.054
 7821SOL    HW235495   6.317   4.438   1.179
 7822SOL     OW35496   1.709   3.303   6.297
 7822SOL    HW135497   1.777   3.308   6.371
 7822SOL    HW235498   1.627   3.354   6.323
 7823SOL     OW35499   0.778   8.091   5.388
 7823SOL    HW135500   0.800   8.166   5.450
 7823SOL    HW235501   0.723   8.023   5.436
 7824SOL     OW35502   1.374   8.480   5.870
 7824SOL    HW135503   1.292   8.519   5.829
 7824SOL    HW235504   1.453   8.536   5.844
 7825SOL     OW35505   9.344   7.918   0.652
 7825SOL    HW135506   9.257   7.881   0.619
 7825SOL    HW235507   9.400   7.844   0.689
 7826SOL     OW35508   3.446   0.999   2.191
 7826SOL    HW135509   3.479   0.996   2.285
 7826SOL    HW235510   3.406   0.911   2.166
 7827SOL     OW35511   5.019   5.360   5.713
 7827SOL    HW135512   4.972   5.428   5.657
 7827SOL    HW235513   5.019   5.272   5.665
 7828SOL     OW35514   3.030   4.810   6.279
 7828SOL    HW135515   3.120   4.771   6.262
 7828SOL    HW235516   3.040   4.902   6.316
 7829SOL     OW35517   2.459   3.264   6.097
 7829SOL    HW135518   2.549   3.280   6.138
 7829SOL    HW235519   2.471   3.230   6.003
 7830SOL     OW35520   0.303   4.909   6.395
 7830SOL    HW135521   0.308   4.906   6.495
 7830SOL    HW235522   0.394   4.932   6.358
 7831SOL     OW35523   5.058   6.106   6.502
 7831SOL    HW135524   5.006   6.154   6.431
 7831SOL    HW235525   5.079   6.169   6.576
 7832SOL     OW35526   2.140   1.363   6.111
 7832SOL    HW135527   2.097   1.283   6.152
 7832SOL    HW235528   2.190   1.335   6.028
 7833SOL     OW35529   2.521   7.803   5.829
 7833SOL    HW135530   2.466   7.720   5.838
 7833SOL    HW235531   2.602   7.796   5.887
 7834SOL     OW35532   6.015   5.526   5.844
 7834SOL    HW135533   6.094   5.465   5.850
 7834SOL    HW235534   5.951   5.506   5.919
 7835SOL     OW35535   8.296   6.726   0.930
 7835SOL    HW135536   8.396   6.735   0.922
 7835SOL    HW235537   8.274   6.645   0.983
 7836SOL     OW35538   1.256   1.664   6.253
 7836SOL    HW135539   1.197   1.690   6.177
 7836SOL    HW235540   1.214   1.587   6.302
 7837SOL     OW35541   2.104   6.311   6.139
 7837SOL    HW135542   2.186   6.351   6.098
 7837SOL    HW235543   2.022   6.352   6.097
 7838SOL     OW35544   2.445   8.004   0.269
 7838SOL    HW135545   2.431   7.939   0.343
 7838SOL    HW235546   2.507   7.966   0.201
 7839SOL     OW35547   0.445   6.555   4.051
 7839SOL    HW135548   0.542   6.532   4.052
 7839SOL    HW235549   0.428   6.630   4.115
 7840SOL     OW35550   5.341   2.993   0.548
 7840SOL    HW135551   5.266   3.012   0.485
 7840SOL    HW235552   5.344   3.062   0.620
 7841SOL     OW35553   2.278   7.367   6.606
 7841SOL    HW135554   2.359   7.366   6.665
 7841SOL    HW235555   2.236   7.457   6.607
 7842SOL     OW35556   1.292   5.635   5.006
 7842SOL    HW135557   1.375   5.597   4.964
 7842SOL    HW235558   1.236   5.679   4.936
 7843SOL     OW35559   9.430   4.002   1.581
 7843SOL    HW135560   9.367   4.065   1.535
 7843SOL    HW235561   9.457   4.041   1.669
 7844SOL     OW35562   8.880   5.799   6.075
 7844SOL    HW135563   8.854   5.843   5.990
 7844SOL    HW235564   8.905   5.704   6.057
 7845SOL     OW35565   2.170   7.651   6.580
 7845SOL    HW135566   2.227   7.721   6.622
 7845SOL    HW235567   2.166   7.665   6.481
 7846SOL     OW35568   0.108   2.230   6.455
 7846SOL    HW135569   0.086   2.154   6.517
 7846SOL    HW235570   0.195   2.211   6.409
 7847SOL     OW35571   1.838   0.343   5.200
 7847SOL    HW135572   1.910   0.334   5.131
 7847SOL    HW235573   1.847   0.432   5.245
 7848SOL     OW35574   6.970   5.265   4.900
 7848SOL    HW135575   6.924   5.250   4.812
 7848SOL    HW235576   7.069   5.271   4.885
 7849SOL     OW35577   5.311   7.351   0.117
 7849SOL    HW135578   5.361   7.390   0.041
 7849SOL    HW235579   5.222   7.396   0.126
 7850SOL     OW35580   0.418   3.179   0.130
 7850SOL    HW135581   0.346   3.113   0.154
 7850SOL    HW235582   0.403   3.264   0.180
 7851SOL     OW35583   8.863   4.985   5.782
 7851SOL    HW135584   8.849   4.970   5.880
 7851SOL    HW235585   8.939   4.929   5.750
 7852SOL     OW35586   4.389   8.434   0.648
 7852SOL    HW135587   4.485   8.425   0.621
 7852SOL    HW235588   4.378   8.403   0.743
 7853SOL     OW35589   1.848   2.164   5.838
 7853SOL    HW135590   1.864   2.120   5.926
 7853SOL    HW235591   1.752   2.191   5.831
 7854SOL     OW35592   2.119   0.741   6.660
 7854SOL    HW135593   2.145   0.834   6.682
 7854SOL    HW235594   2.030   0.741   6.614
 7855SOL     OW35595   7.796   3.051   0.773
 7855SOL    HW135596   7.874   3.074   0.830
 7855SOL    HW235597   7.768   2.956   0.792
 7856SOL     OW35598   1.113   5.320   5.473
 7856SOL    HW135599   1.198   5.342   5.425
 7856SOL    HW235600   1.095   5.390   5.542
 7857SOL     OW35601   0.563   1.115   0.906
 7857SOL    HW135602   0.534   1.039   0.848
 7857SOL    HW235603   0.545   1.093   1.002
 7858SOL     OW35604   6.928   6.102   0.017
 7858SOL    HW135605   6.988   6.128   0.093
 7858SOL    HW235606   6.921   6.179  -0.047
 7859SOL     OW35607   6.497   8.138   0.403
 7859SOL    HW135608   6.451   8.218   0.365
 7859SOL    HW235609   6.581   8.120   0.350
 7860SOL     OW35610   2.121   6.037   0.754
 7860SOL    HW135611   2.208   5.995   0.730
 7860SOL    HW235612   2.086   5.996   0.838
 7861SOL     OW35613   4.114   7.836   0.056
 7861SOL    HW135614   4.156   7.919   0.019
 7861SOL    HW235615   4.015   7.838   0.039
 7862SOL     OW35616   6.722   1.927   6.383
 7862SOL    HW135617   6.655   1.869   6.336
 7862SOL    HW235618   6.813   1.886   6.373
 7863SOL     OW35619   0.109   0.391   6.672
 7863SOL    HW135620   0.111   0.326   6.748
 7863SOL    HW235621   0.195   0.386   6.622
 7864SOL     OW35622   1.726   3.986   5.608
 7864SOL    HW135623   1.675   3.920   5.554
 7864SOL    HW235624   1.692   4.079   5.588
 7865SOL     OW35625   2.421   1.014   6.649
 7865SOL    HW135626   2.328   0.990   6.677
 7865SOL    HW235627   2.420   1.105   6.606
 7866SOL     OW35628   2.978   7.602   5.257
 7866SOL    HW135629   2.999   7.697   5.283
 7866SOL    HW235630   3.062   7.558   5.224
 7867SOL     OW35631   0.486   5.183   0.688
 7867SOL    HW135632   0.393   5.219   0.699
 7867SOL    HW235633   0.481   5.086   0.665
 7868SOL     OW35634   5.882   2.115   0.304
 7868SOL    HW135635   5.835   2.195   0.340
 7868SOL    HW235636   5.834   2.032   0.331
 7869SOL     OW35637   7.017   1.008   5.601
 7869SOL    HW135638   6.936   1.038   5.652
 7869SOL    HW235639   7.010   1.038   5.506
 7870SOL     OW35640   6.123   6.727   1.180
 7870SOL    HW135641   6.209   6.678   1.165
 7870SOL    HW235642   6.065   6.718   1.098
 7871SOL     OW35643   6.033   3.030   0.561
 7871SOL    HW135644   6.001   2.990   0.647
 7871SOL    HW235645   6.096   3.105   0.580
 7872SOL     OW35646   0.673   8.124   5.767
 7872SOL    HW135647   0.648   8.184   5.690
 7872SOL    HW235648   0.772   8.127   5.780
 7873SOL     OW35649   8.274   7.470   6.724
 7873SOL    HW135650   8.228   7.538   6.781
 7873SOL    HW235651   8.368   7.500   6.705
 7874SOL     OW35652   4.014   2.694   6.581
 7874SOL    HW135653   3.949   2.619   6.575
 7874SOL    HW235654   4.041   2.723   6.489
 7875SOL     OW35655   5.941   0.349   5.431
 7875SOL    HW135656   6.014   0.308   5.377
 7875SOL    HW235657   5.865   0.284   5.440
 7876SOL     OW35658   1.607   7.416   6.045
 7876SOL    HW135659   1.637   7.511   6.029
 7876SOL    HW235660   1.559   7.383   5.964
 7877SOL     OW35661   9.001   2.624   6.633
 7877SOL    HW135662   9.003   2.673   6.720
 7877SOL    HW235663   8.921   2.653   6.580
 7878SOL     OW35664   8.319   6.972   4.926
 7878SOL    HW135665   8.320   6.886   4.977
 7878SOL    HW235666   8.264   6.961   4.843
 7879SOL     OW35667   1.002   4.538   5.605
 7879SOL    HW135668   1.093   4.532   5.646
 7879SOL    HW235669   1.010   4.556   5.507
 7880SOL     OW35670   6.489   1.683   6.705
 7880SOL    HW135671   6.529   1.773   6.721
 7880SOL    HW235672   6.533   1.616   6.766
 7881SOL     OW35673   1.833   6.518   1.002
 7881SOL    HW135674   1.788   6.472   0.926
 7881SOL    HW235675   1.860   6.610   0.973
 7882SOL     OW35676   0.061   5.292   6.578
 7882SOL    HW135677   0.122   5.346   6.636
 7882SOL    HW235678   0.068   5.195   6.603
 7883SOL     OW35679   2.117   5.259   0.635
 7883SOL    HW135680   2.180   5.264   0.712
 7883SOL    HW235681   2.078   5.168   0.629
 7884SOL     OW35682   3.914   1.536   1.554
 7884SOL    HW135683   3.981   1.609   1.548
 7884SOL    HW235684   3.960   1.449   1.574
 7885SOL     OW35685   0.237   6.595   5.794
 7885SOL    HW135686   0.189   6.682   5.797
 7885SOL    HW235687   0.176   6.522   5.826
 7886SOL     OW35688   7.637   7.301   1.385
 7886SOL    HW135689   7.634   7.257   1.474
 7886SOL    HW235690   7.699   7.380   1.388
 7887SOL     OW35691   3.843   0.404   6.168
 7887SOL    HW135692   3.930   0.353   6.168
 7887SOL    HW235693   3.788   0.373   6.246
 7888SOL     OW35694   3.331   4.081   0.242
 7888SOL    HW135695   3.253   4.045   0.292
 7888SOL    HW235696   3.325   4.180   0.236
 7889SOL     OW35697   0.039   8.483   6.168
 7889SOL    HW135698   0.075   8.423   6.240
 7889SOL    HW235699   0.077   8.574   6.179
 7890SOL     OW35700   3.665   1.490   1.139
 7890SOL    HW135701   3.687   1.397   1.170
 7890SOL    HW235702   3.706   1.556   1.203
 7891SOL     OW35703   1.667   5.039   0.441
 7891SOL    HW135704   1.572   5.021   0.463
 7891SOL    HW235705   1.676   5.060   0.343
 7892SOL     OW35706   4.056   5.511   0.904
 7892SOL    HW135707   4.001   5.588   0.937
 7892SOL    HW235708   4.071   5.446   0.978
 7893SOL     OW35709   9.369   7.145   4.938
 7893SOL    HW135710   9.388   7.097   4.852
 7893SOL    HW235711   9.424   7.228   4.943
 7894SOL     OW35712   4.834   4.096   6.355
 7894SOL    HW135713   4.928   4.129   6.347
 7894SOL    HW235714   4.830   4.001   6.324
 7895SOL     OW35715   5.626   4.847   5.850
 7895SOL    HW135716   5.536   4.821   5.813
 7895SOL    HW235717   5.682   4.766   5.864
 7896SOL     OW35718   3.131   5.151   5.636
 7896SOL    HW135719   3.186   5.079   5.679
 7896SOL    HW235720   3.107   5.122   5.543
 7897SOL     OW35721   8.247   2.619   1.362
 7897SOL    HW135722   8.280   2.581   1.449
 7897SOL    HW235723   8.227   2.545   1.299
 7898SOL     OW35724   2.634   7.679   1.085
 7898SOL    HW135725   2.695   7.663   1.163
 7898SOL    HW235726   2.540   7.655   1.111
 7899SOL     OW35727   0.154   2.443   0.701
 7899SOL    HW135728   0.211   2.361   0.704
 7899SOL    HW235729   0.209   2.522   0.730
 7900SOL     OW35730   8.695   7.103   5.874
 7900SOL    HW135731   8.663   7.014   5.839
 7900SOL    HW235732   8.627   7.138   5.939
 7901SOL     OW35733   9.326   2.347   0.082
 7901SOL    HW135734   9.369   2.282   0.146
 7901SOL    HW235735   9.393   2.375   0.013
 7902SOL     OW35736   2.010   3.351   5.087
 7902SOL    HW135737   2.066   3.386   5.011
 7902SOL    HW235738   1.951   3.277   5.054
 7903SOL     OW35739   6.813   8.488   6.607
 7903SOL    HW135740   6.824   8.437   6.522
 7903SOL    HW235741   6.737   8.451   6.659
 7904SOL     OW35742   3.132   7.091   6.061
 7904SOL    HW135743   3.155   6.993   6.055
 7904SOL    HW235744   3.046   7.108   6.013
 7905SOL     OW35745   5.649   8.409   6.139
 7905SOL    HW135746   5.562   8.430   6.094
 7905SOL    HW235747   5.675   8.486   6.197
 7906SOL     OW35748   6.273   6.508   0.713
 7906SOL    HW135749   6.337   6.443   0.672
 7906SOL    HW235750   6.202   6.459   0.762
 7907SOL     OW35751   0.413   6.143   5.813
 7907SOL    HW135752   0.381   6.100   5.898
 7907SOL    HW235753   0.432   6.240   5.830
 7908SOL     OW35754   8.720   7.912   5.586
 7908SOL    HW135755   8.772   7.830   5.609
 7908SOL    HW235756   8.624   7.889   5.573
 7909SOL     OW35757   0.710   2.470   1.428
 7909SOL    HW135758   0.705   2.536   1.503
 7909SOL    HW235759   0.805   2.447   1.409
 7910SOL     OW35760   5.552   4.932   1.916
 7910SOL    HW135761   5.530   4.849   1.967
 7910SOL    HW235762   5.501   5.009   1.953
 7911SOL     OW35763   5.251   4.329   1.273
 7911SOL    HW135764   5.325   4.361   1.214
 7911SOL    HW235765   5.289   4.292   1.358
 7912SOL     OW35766   2.528   3.526   0.220
 7912SOL    HW135767   2.617   3.501   0.258
 7912SOL    HW235768   2.457   3.512   0.289
 7913SOL     OW35769   4.018   0.924   5.205
 7913SOL    HW135770   4.097   0.903   5.262
 7913SOL    HW235771   3.943   0.959   5.262
 7914SOL     OW35772   1.451   2.187   0.961
 7914SOL    HW135773   1.481   2.167   1.054
 7914SOL    HW235774   1.398   2.272   0.961
 7915SOL     OW35775   4.459   2.045   5.896
 7915SOL    HW135776   4.443   2.036   5.798
 7915SOL    HW235777   4.459   2.141   5.922
 7916SOL     OW35778   7.863   7.029   6.027
 7916SOL    HW135779   7.927   7.032   5.950
 7916SOL    HW235780   7.913   7.046   6.112
 7917SOL     OW35781   2.796   7.680   6.605
 7917SOL    HW135782   2.849   7.644   6.682
 7917SOL    HW235783   2.829   7.772   6.582
 7918SOL     OW35784   6.380   7.872   5.099
 7918SOL    HW135785   6.462   7.863   5.155
 7918SOL    HW235786   6.385   7.957   5.046
 7919SOL     OW35787   1.590   7.909   6.028
 7919SOL    HW135788   1.668   7.972   6.025
 7919SOL    HW235789   1.506   7.960   6.010
 7920SOL     OW35790   1.547   3.828   0.488
 7920SOL    HW135791   1.620   3.870   0.542
 7920SOL    HW235792   1.462   3.827   0.541
 7921SOL     OW35793   2.914   2.435   5.815
 7921SOL    HW135794   2.971   2.403   5.739
 7921SOL    HW235795   2.918   2.370   5.890
 7922SOL     OW35796   7.953   1.120   6.244
 7922SOL    HW135797   7.975   1.097   6.150
 7922SOL    HW235798   7.916   1.040   6.291
 7923SOL     OW35799   7.765   2.889   6.164
 7923SOL    HW135800   7.786   2.813   6.103
 7923SOL    HW235801   7.680   2.869   6.214
 7924SOL     OW35802   0.620   6.674   6.394
 7924SOL    HW135803   0.556   6.746   6.421
 7924SOL    HW235804   0.695   6.715   6.342
 7925SOL     OW35805   1.224   1.688   5.761
 7925SOL    HW135806   1.188   1.672   5.853
 7925SOL    HW235807   1.185   1.621   5.698
 7926SOL     OW35808   2.999   3.630   0.550
 7926SOL    HW135809   3.079   3.645   0.492
 7926SOL    HW235810   2.921   3.603   0.493
 7927SOL     OW35811   6.368   1.747   1.537
 7927SOL    HW135812   6.343   1.842   1.519
 7927SOL    HW235813   6.322   1.687   1.472
 7928SOL     OW35814   0.137   2.395   0.224
 7928SOL    HW135815   0.076   2.454   0.276
 7928SOL    HW235816   0.187   2.334   0.286
 7929SOL     OW35817   8.336   0.856   6.059
 7929SOL    HW135818   8.321   0.784   6.127
 7929SOL    HW235819   8.281   0.837   5.977
 7930SOL     OW35820   0.331   7.850   0.419
 7930SOL    HW135821   0.310   7.777   0.485
 7930SOL    HW235822   0.420   7.890   0.441
 7931SOL     OW35823   0.878   0.238   1.219
 7931SOL    HW135824   0.850   0.310   1.156
 7931SOL    HW235825   0.893   0.153   1.167
 7932SOL     OW35826   0.567   2.229   5.883
 7932SOL    HW135827   0.515   2.314   5.879
 7932SOL    HW235828   0.663   2.249   5.903
 7933SOL     OW35829   6.702   0.216   6.068
 7933SOL    HW135830   6.800   0.218   6.053
 7933SOL    HW235831   6.658   0.286   6.011
 7934X2IT   H1835832   1.339   0.184   0.705
 7934X2IT    N435833   1.299   0.274   0.727
 7934X2IT   H1735834   1.338   0.324   0.805
 7934X2IT   C1435835   1.246   0.344   0.622
 7934X2IT    O535836   1.218   0.297   0.513
 7934X2IT    O435837   1.223   0.473   0.660
 7934X2IT   C1335838   1.161   0.558   0.561
 7934X2IT   C1035839   1.008   0.541   0.561
 7934X2IT    C935840   0.938   0.634   0.464
 7934X2IT    C435841   0.847   0.714   0.530
 7934X2IT    C535842   0.762   0.817   0.463
 7934X2IT    O135843   0.680   0.882   0.531
 7934X2IT    C635844   0.780   0.834   0.321
 7934X2IT   C1235845   0.697   0.937   0.247
 7934X2IT    C735846   0.870   0.753   0.254
 7934X2IT    C835847   0.957   0.648   0.324
 7934X2IT    O235848   1.038   0.584   0.255
 7934X2IT    N335849   0.893   0.760   0.122
 7934X2IT   H1535850   0.847   0.826   0.062
 7934X2IT   H1635851   0.964   0.697   0.084
 7934X2IT    N235852   0.839   0.682   0.662
 7934X2IT    C335853   0.812   0.772   0.775
 7934X2IT    C235854   0.937   0.756   0.860
 7934X2IT    H235855   0.934   0.783   0.966
 7934X2IT    N135856   1.061   0.775   0.782
 7934X2IT   H1435857   1.138   0.798   0.846
 7934X2IT    C135858   1.014   0.639   0.812
 7934X2IT    H135859   1.071   0.574   0.877
 7934X2IT   C1135860   0.937   0.575   0.697
 7934X2IT    O335861   0.874   0.463   0.756
 7934X2IT   C1535862   0.763   0.405   0.685
 7935X2IT   H1835863   5.614   2.455   0.434
 7935X2IT    N435864   5.583   2.373   0.385
 7935X2IT   H1735865   5.646   2.294   0.384
 7935X2IT   C1435866   5.448   2.351   0.381
 7935X2IT    O535867   5.363   2.434   0.406
 7935X2IT    O435868   5.423   2.223   0.340
 7935X2IT   C1335869   5.284   2.188   0.325
 7935X2IT   C1035870   5.229   2.233   0.188
 7935X2IT    C935871   5.086   2.191   0.165
 7935X2IT    C435872   5.076   2.113   0.051
 7935X2IT    C535873   4.948   2.055   0.000
 7935X2IT    O135874   4.948   1.989  -0.105
 7935X2IT    C635875   4.830   2.081   0.079
 7935X2IT   C1235876   4.696   2.024   0.034
 7935X2IT    C735877   4.839   2.159   0.192
 7935X2IT    C835878   4.971   2.219   0.243
 7935X2IT    O235879   4.968   2.284   0.348
 7935X2IT    N335880   4.735   2.190   0.271
 7935X2IT   H1535881   4.641   2.158   0.253
 7935X2IT   H1635882   4.753   2.248   0.353
 7935X2IT    N235883   5.195   2.103  -0.014
 7935X2IT    C335884   5.246   1.988  -0.091
 7935X2IT    C235885   5.374   1.953  -0.015
 7935X2IT    H235886   5.451   1.895  -0.065
 7935X2IT    N135887   5.350   1.935   0.130
 7935X2IT   H1435888   5.426   1.879   0.170
 7935X2IT    C135889   5.407   2.062   0.080
 7935X2IT    H135890   5.508   2.091   0.104
 7935X2IT   C1135891   5.303   2.172   0.063
 7935X2IT    O335892   5.369   2.270  -0.016
 7935X2IT   C1535893   5.286   2.367  -0.081
   9.48825   8.49895   6.73470
