; Topology for DPPC + MMC membrane system
; Generated by build_dppc_mmc_cases.sh

; Include chain topologies
#include "../../gromos53a6_lipid.ff/forcefield.itp"
#include "../../dppc.itp"

; Include water topology
#include "../../gromos53a6_lipid.ff/spc.itp"

; Include ion topologies
#include "../../gromos53a6_lipid.ff/ions.itp"

#include "../../../mitomycin_c/mmc.itp"

[ system ]
; Name
256 DPPC bilayer + 16 X2IT in water

[ molecules ]
; Compound        #mols
DPPC              256
SOL               7469
X2IT              16
