UNITED ATOM STRUCTURE FOR MOLECULE UNK
11828
    0X2IT   H18    1   3.092   2.352   2.583
    0X2IT    N4    2   3.026   2.419   2.548
    0X2IT   H17    3   3.059   2.484   2.478
    0X2IT   C14    4   2.895   2.380   2.546
    0X2IT    O5    5   2.849   2.285   2.607
    0X2IT    O4    6   2.822   2.466   2.469
    0X2IT   C13    7   2.680   2.441   2.463
    0X2IT   C10    8   2.607   2.502   2.584
    0X2IT    C9    9   2.457   2.484   2.578
    0X2IT    C4   10   2.394   2.607   2.582
    0X2IT    C5   11   2.245   2.625   2.577
    0X2IT    O1   12   2.197   2.739   2.585
    0X2IT    C6   13   2.166   2.505   2.564
    0X2IT   C12   14   2.015   2.516   2.558
    0X2IT    C7   15   2.229   2.382   2.561
    0X2IT    C8   16   2.381   2.365   2.567
    0X2IT    O2   17   2.427   2.250   2.559
    0X2IT    N3   18   2.164   2.265   2.551
    0X2IT   H15   19   2.064   2.258   2.544
    0X2IT   H16   20   2.221   2.180   2.548
    0X2IT    N2   21   2.482   2.709   2.599
    0X2IT    C3   22   2.473   2.846   2.546
    0X2IT    C2   23   2.599   2.856   2.461
    0X2IT    H2   24   2.639   2.954   2.435
    0X2IT    N1   25   2.611   2.744   2.365
    0X2IT   H14   26   2.674   2.771   2.289
    0X2IT    C1   27   2.688   2.741   2.491
    0X2IT    H1   28   2.796   2.748   2.490
    0X2IT   C11   29   2.622   2.658   2.600
    0X2IT    O3   30   2.691   2.695   2.718
    0X2IT   C15   31   2.628   2.664   2.843
    1X2IT   H18   32   3.856   2.108   1.614
    1X2IT    N4   33   3.921   2.054   1.669
    1X2IT   H17   34   3.990   2.106   1.721
    1X2IT   C14   35   3.876   1.935   1.718
    1X2IT    O5   36   3.777   1.876   1.679
    1X2IT    O4   37   3.961   1.889   1.814
    1X2IT   C13   38   3.930   1.760   1.871
    1X2IT   C10   39   3.983   1.646   1.783
    1X2IT    C9   40   3.958   1.509   1.842
    1X2IT    C4   41   4.077   1.442   1.858
    1X2IT    C5   42   4.088   1.303   1.916
    1X2IT    O1   43   4.199   1.249   1.923
    1X2IT    C6   44   3.965   1.241   1.959
    1X2IT   C12   45   3.969   1.102   2.018
    1X2IT    C7   46   3.845   1.308   1.941
    1X2IT    C8   47   3.836   1.449   1.882
    1X2IT    O2   48   3.723   1.502   1.875
    1X2IT    N3   49   3.726   1.258   1.976
    1X2IT   H15   50   3.714   1.168   2.018
    1X2IT   H16   51   3.644   1.317   1.960
    1X2IT    N2   52   4.182   1.512   1.809
    1X2IT    C3   53   4.321   1.514   1.859
    1X2IT    C2   54   4.340   1.661   1.894
    1X2IT    H2   55   4.441   1.702   1.902
    1X2IT    N1   56   4.233   1.713   1.981
    1X2IT   H14   57   4.266   1.797   2.029
    1X2IT    C1   58   4.229   1.740   1.836
    1X2IT    H1   59   4.241   1.841   1.798
    1X2IT   C11   60   4.138   1.645   1.759
    1X2IT    O3   61   4.174   1.665   1.624
    1X2IT   C15   62   4.135   1.564   1.530
    2X2IT   H18   63   3.391   1.497   1.782
    2X2IT    N4   64   3.431   1.565   1.845
    2X2IT   H17   65   3.452   1.656   1.807
    2X2IT   C14   66   3.395   1.554   1.976
    2X2IT    O5   67   3.343   1.455   2.027
    2X2IT    O4   68   3.429   1.667   2.043
    2X2IT   C13   69   3.403   1.667   2.185
    2X2IT   C10   70   3.516   1.598   2.263
    2X2IT    C9   71   3.496   1.602   2.413
    2X2IT    C4   72   3.604   1.664   2.474
    2X2IT    C5   73   3.615   1.686   2.622
    2X2IT    O1   74   3.717   1.739   2.668
    2X2IT    C6   75   3.504   1.640   2.703
    2X2IT   C12   76   3.509   1.659   2.853
    2X2IT    C7   77   3.397   1.577   2.642
    2X2IT    C8   78   3.387   1.555   2.491
    2X2IT    O2   79   3.284   1.502   2.446
    2X2IT    N3   80   3.291   1.530   2.708
    2X2IT   H15   81   3.280   1.538   2.808
    2X2IT   H16   82   3.216   1.487   2.653
    2X2IT    N2   83   3.701   1.696   2.385
    2X2IT    C3   84   3.792   1.812   2.389
    2X2IT    C2   85   3.759   1.883   2.258
    2X2IT    H2   86   3.831   1.953   2.215
    2X2IT    N1   87   3.614   1.909   2.244
    2X2IT   H14   88   3.600   1.984   2.176
    2X2IT    C1   89   3.676   1.795   2.173
    2X2IT    H1   90   3.683   1.793   2.065
    2X2IT   C11   91   3.659   1.662   2.246
    2X2IT    O3   92   3.751   1.576   2.183
    2X2IT   C15   93   3.787   1.456   2.253
    3X2IT   H18   94   1.789   3.576   1.781
    3X2IT    N4   95   1.854   3.535   1.845
    3X2IT   H17   96   1.835   3.440   1.875
    3X2IT   C14   97   1.984   3.577   1.836
    3X2IT    O5   98   2.021   3.677   1.778
    3X2IT    O4   99   2.065   3.492   1.905
    3X2IT   C13  100   2.205   3.527   1.910
    3X2IT   C10  101   2.233   3.630   2.021
    3X2IT    C9  102   2.380   3.665   2.033
    3X2IT    C4  103   2.425   3.637   2.161
    3X2IT    C5  104   2.566   3.659   2.207
    3X2IT    O1  105   2.596   3.635   2.325
    3X2IT    C6  106   2.659   3.710   2.109
    3X2IT   C12  107   2.803   3.734   2.148
    3X2IT    C7  108   2.614   3.738   1.981
    3X2IT    C8  109   2.469   3.716   1.936
    3X2IT    O2  110   2.441   3.741   1.818
    3X2IT    N3  111   2.692   3.787   1.884
    3X2IT   H15  112   2.790   3.806   1.896
    3X2IT   H16  113   2.648   3.803   1.793
    3X2IT    N2  114   2.324   3.595   2.242
    3X2IT    C3  115   2.332   3.498   2.353
    3X2IT    C2  116   2.235   3.390   2.308
    3X2IT    H2  117   2.193   3.321   2.382
    3X2IT    N1  118   2.264   3.342   2.171
    3X2IT   H14  119   2.222   3.249   2.158
    3X2IT    C1  120   2.155   3.439   2.194
    3X2IT    H1  121   2.052   3.412   2.177
    3X2IT   C11  122   2.197   3.583   2.167
    3X2IT    O3  123   2.093   3.660   2.225
    3X2IT   C15  124   2.121   3.799   2.251
    4X2IT   H18  125   3.307   1.749   4.273
    4X2IT    N4  126   3.212   1.722   4.288
    4X2IT   H17  127   3.149   1.730   4.210
    4X2IT   C14  128   3.190   1.624   4.381
    4X2IT    O5  129   3.271   1.587   4.465
    4X2IT    O4  130   3.063   1.576   4.369
    4X2IT   C13  131   3.023   1.476   4.466
    4X2IT   C10  132   2.977   1.540   4.598
    4X2IT    C9  133   2.929   1.439   4.699
    4X2IT    C4  134   2.798   1.467   4.735
    4X2IT    C5  135   2.719   1.385   4.833
    4X2IT    O1  136   2.604   1.420   4.863
    4X2IT    C6  137   2.785   1.270   4.889
    4X2IT   C12  138   2.711   1.183   4.989
    4X2IT    C7  139   2.916   1.243   4.854
    4X2IT    C8  140   2.996   1.327   4.754
    4X2IT    O2  141   3.111   1.291   4.726
    4X2IT    N3  142   2.987   1.139   4.902
    4X2IT   H15  143   2.949   1.072   4.967
    4X2IT   H16  144   3.082   1.128   4.867
    4X2IT    N2  145   2.752   1.581   4.678
    4X2IT    C3  146   2.615   1.612   4.634
    4X2IT    C2  147   2.633   1.637   4.485
    4X2IT    H2  148   2.558   1.694   4.431
    4X2IT    N1  149   2.705   1.527   4.418
    4X2IT   H14  150   2.685   1.530   4.317
    4X2IT    C1  151   2.778   1.650   4.455
    4X2IT    H1  152   2.816   1.717   4.379
    4X2IT   C11  153   2.854   1.638   4.586
    4X2IT    O3  154   2.887   1.772   4.619
    4X2IT   C15  155   2.925   1.798   4.755
    5X2IT   H18  156   2.373   0.290   0.429
    5X2IT    N4  157   2.441   0.342   0.481
    5X2IT   H17  158   2.502   0.403   0.429
    5X2IT   C14  159   2.406   0.375   0.609
    5X2IT    O5  160   2.315   0.325   0.673
    5X2IT    O4  161   2.492   0.470   0.657
    5X2IT   C13  162   2.472   0.510   0.794
    5X2IT   C10  163   2.539   0.412   0.892
    5X2IT    C9  164   2.526   0.455   1.037
    5X2IT    C4  165   2.651   0.470   1.094
    5X2IT    C5  166   2.674   0.512   1.236
    5X2IT    O1  167   2.790   0.519   1.280
    5X2IT    C6  168   2.556   0.541   1.314
    5X2IT   C12  169   2.572   0.584   1.459
    5X2IT    C7  170   2.431   0.525   1.258
    5X2IT    C8  171   2.409   0.481   1.113
    5X2IT    O2  172   2.293   0.475   1.071
    5X2IT    N3  173   2.316   0.548   1.323
    5X2IT   H15  174   2.312   0.579   1.418
    5X2IT   H16  175   2.229   0.535   1.271
    5X2IT    N2  176   2.751   0.434   1.009
    5X2IT    C3  177   2.886   0.491   0.999
    5X2IT    C2  178   2.889   0.543   0.855
    5X2IT    H2  179   2.985   0.560   0.806
    5X2IT    N1  180   2.773   0.630   0.825
    5X2IT   H14  181   2.795   0.688   0.744
    5X2IT    C1  182   2.772   0.489   0.781
    5X2IT    H1  183   2.775   0.463   0.676
    5X2IT   C11  184   2.695   0.397   0.875
    5X2IT    O3  185   2.734   0.267   0.836
    5X2IT   C15  186   2.709   0.161   0.929
    6X2IT   H18  187   5.027   1.536   4.945
    6X2IT    N4  188   4.949   1.588   4.910
    6X2IT   H17  189   4.859   1.570   4.952
    6X2IT   C14  190   4.976   1.713   4.862
    6X2IT    O5  191   5.087   1.755   4.833
    6X2IT    O4  192   4.860   1.784   4.847
    6X2IT   C13  193   4.873   1.916   4.790
    6X2IT   C10  194   4.879   1.911   4.637
    6X2IT    C9  195   4.885   2.048   4.573
    6X2IT    C4  196   4.779   2.065   4.486
    6X2IT    C5  197   4.755   2.190   4.407
    6X2IT    O1  198   4.659   2.196   4.329
    6X2IT    C6  199   4.848   2.298   4.428
    6X2IT   C12  200   4.829   2.428   4.352
    6X2IT    C7  201   4.955   2.281   4.514
    6X2IT    C8  202   4.979   2.152   4.593
    6X2IT    O2  203   5.075   2.149   4.671
    6X2IT    N3  204   5.048   2.375   4.538
    6X2IT   H15  205   5.046   2.466   4.496
    6X2IT   H16  206   5.122   2.351   4.605
    6X2IT    N2  207   4.704   1.953   4.475
    6X2IT    C3  208   4.558   1.943   4.452
    6X2IT    C2  209   4.512   1.867   4.576
    6X2IT    H2  210   4.416   1.815   4.574
    6X2IT    N1  211   4.560   1.929   4.701
    6X2IT   H14  212   4.500   1.898   4.779
    6X2IT    C1  213   4.630   1.811   4.647
    6X2IT    H1  214   4.627   1.716   4.699
    6X2IT   C11  215   4.754   1.846   4.566
    6X2IT    O3  216   4.785   1.727   4.497
    6X2IT   C15  217   4.873   1.738   4.384
    7X2IT   H18  218  -0.214   4.328   2.150
    7X2IT    N4  219  -0.164   4.255   2.197
    7X2IT   H17  220  -0.208   4.165   2.203
    7X2IT   C14  221  -0.027   4.262   2.191
    7X2IT    O5  222   0.037   4.360   2.159
    7X2IT    O4  223   0.027   4.143   2.232
    7X2IT   C13  224   0.171   4.137   2.237
    7X2IT   C10  225   0.225   4.196   2.369
    7X2IT    C9  226   0.375   4.185   2.381
    7X2IT    C4  227   0.408   4.114   2.495
    7X2IT    C5  228   0.550   4.085   2.537
    7X2IT    O1  229   0.570   4.023   2.642
    7X2IT    C6  230   0.654   4.132   2.449
    7X2IT   C12  231   0.799   4.105   2.485
    7X2IT    C7  232   0.620   4.204   2.336
    7X2IT    C8  233   0.476   4.234   2.295
    7X2IT    O2  234   0.457   4.296   2.189
    7X2IT    N3  235   0.710   4.254   2.250
    7X2IT   H15  236   0.810   4.242   2.260
    7X2IT   H16  237   0.674   4.304   2.168
    7X2IT    N2  238   0.299   4.081   2.569
    7X2IT    C3  239   0.279   3.960   2.651
    7X2IT    C2  240   0.156   3.898   2.585
    7X2IT    H2  241   0.096   3.826   2.641
    7X2IT    N1  242   0.172   3.881   2.439
    7X2IT   H14  243   0.107   3.810   2.405
    7X2IT    C1  244   0.094   3.995   2.492
    7X2IT    H1  245  -0.012   4.002   2.475
    7X2IT   C11  246   0.174   4.124   2.500
    7X2IT    O3  247   0.095   4.209   2.582
    7X2IT   C15  248   0.160   4.323   2.640
    8X2IT   H18  249   5.076   4.406   3.616
    8X2IT    N4  250   5.029   4.319   3.597
    8X2IT   H17  251   5.081   4.234   3.616
    8X2IT   C14  252   4.894   4.319   3.612
    8X2IT    O5  253   4.823   4.419   3.617
    8X2IT    O4  254   4.847   4.191   3.614
    8X2IT   C13  255   4.704   4.175   3.622
    8X2IT   C10  256   4.638   4.186   3.484
    8X2IT    C9  257   4.489   4.164   3.487
    8X2IT    C4  258   4.455   4.058   3.404
    8X2IT    C5  259   4.314   4.009   3.384
    8X2IT    O1  260   4.292   3.917   3.305
    8X2IT    C6  261   4.211   4.076   3.461
    8X2IT   C12  262   4.067   4.031   3.446
    8X2IT    C7  263   4.245   4.181   3.543
    8X2IT    C8  264   4.389   4.231   3.561
    8X2IT    O2  265   4.409   4.324   3.641
    8X2IT    N3  266   4.157   4.250   3.616
    8X2IT   H15  267   4.058   4.230   3.618
    8X2IT   H16  268   4.193   4.326   3.675
    8X2IT    N2  269   4.562   4.010   3.336
    8X2IT    C3  270   4.587   3.871   3.294
    8X2IT    C2  271   4.718   3.840   3.366
    8X2IT    H2  272   4.781   3.758   3.330
    8X2IT    N1  273   4.711   3.869   3.510
    8X2IT   H14  274   4.784   3.816   3.559
    8X2IT    C1  275   4.777   3.965   3.419
    8X2IT    H1  276   4.883   3.983   3.425
    8X2IT   C11  277   4.687   4.080   3.378
    8X2IT    O3  278   4.754   4.139   3.268
    8X2IT   C15  279   4.677   4.225   3.182
    9X2IT   H18  280   2.193   2.405   2.225
    9X2IT    N4  281   2.129   2.440   2.156
    9X2IT   H17  282   2.063   2.510   2.185
    9X2IT   C14  283   2.175   2.442   2.027
    9X2IT    O5  284   2.272   2.381   1.985
    9X2IT    O4  285   2.092   2.519   1.949
    9X2IT   C13  286   2.124   2.525   1.809
    9X2IT   C10  287   2.067   2.404   1.733
    9X2IT    C9  288   2.093   2.410   1.584
    9X2IT    C4  289   1.973   2.406   1.515
    9X2IT    C5  290   1.963   2.411   1.365
    9X2IT    O1  291   1.851   2.403   1.312
    9X2IT    C6  292   2.086   2.425   1.292
    9X2IT   C12  293   2.083   2.431   1.141
    9X2IT    C7  294   2.206   2.428   1.361
    9X2IT    C8  295   2.215   2.422   1.514
    9X2IT    O2  296   2.328   2.430   1.566
    9X2IT    N3  297   2.326   2.438   1.302
    9X2IT   H15  298   2.338   2.445   1.203
    9X2IT   H16  299   2.408   2.441   1.363
    9X2IT    N2  300   1.867   2.389   1.598
    9X2IT    C3  301   1.730   2.442   1.582
    9X2IT    C2  302   1.714   2.527   1.707
    9X2IT    H2  303   1.614   2.552   1.742
    9X2IT    N1  304   1.825   2.623   1.725
    9X2IT   H14  305   1.795   2.699   1.787
    9X2IT    C1  306   1.825   2.497   1.802
    9X2IT    H1  307   1.812   2.498   1.909
    9X2IT   C11  308   1.911   2.388   1.740
    9X2IT    O3  309   1.871   2.270   1.807
    9X2IT   C15  310   1.905   2.145   1.746
   10X2IT   H18  311  -0.531   1.491   2.764
   10X2IT    N4  312  -0.446   1.509   2.713
   10X2IT   H17  313  -0.455   1.529   2.614
   10X2IT   C14  314  -0.344   1.567   2.784
   10X2IT    O5  315  -0.337   1.573   2.905
   10X2IT    O4  316  -0.249   1.614   2.698
   10X2IT   C13  317  -0.132   1.672   2.758
   10X2IT   C10  318  -0.030   1.564   2.798
   10X2IT    C9  319   0.098   1.621   2.856
   10X2IT    C4  320   0.207   1.580   2.781
   10X2IT    C5  321   0.349   1.620   2.810
   10X2IT    O1  322   0.440   1.575   2.740
   10X2IT    C6  323   0.369   1.708   2.922
   10X2IT   C12  324   0.509   1.753   2.958
   10X2IT    C7  325   0.260   1.749   2.998
   10X2IT    C8  326   0.116   1.707   2.967
   10X2IT    O2  327   0.025   1.753   3.038
   10X2IT    N3  328   0.269   1.830   3.104
   10X2IT   H15  329   0.356   1.868   3.137
   10X2IT   H16  330   0.181   1.854   3.152
   10X2IT    N2  331   0.171   1.493   2.682
   10X2IT    C3  332   0.232   1.478   2.549
   10X2IT    C2  333   0.115   1.508   2.457
   10X2IT    H2  334   0.118   1.473   2.353
   10X2IT    N1  335   0.049   1.636   2.489
   10X2IT   H14  336  -0.003   1.669   2.408
   10X2IT    C1  337  -0.011   1.509   2.535
   10X2IT    H1  338  -0.106   1.475   2.496
   10X2IT   C11  339   0.024   1.475   2.679
   10X2IT    O3  340  -0.013   1.338   2.692
   10X2IT   C15  341   0.042   1.266   2.803
   11X2IT   H18  342   0.616   2.309  -0.526
   11X2IT    N4  343   0.600   2.240  -0.454
   11X2IT   H17  344   0.626   2.145  -0.475
   11X2IT   C14  345   0.609   2.285  -0.325
   11X2IT    O5  346   0.606   2.402  -0.291
   11X2IT    O4  347   0.617   2.179  -0.240
   11X2IT   C13  348   0.620   2.211  -0.099
   11X2IT   C10  349   0.478   2.233  -0.043
   11X2IT    C9  350   0.476   2.260   0.105
   11X2IT    C4  351   0.398   2.166   0.170
   11X2IT    C5  352   0.376   2.163   0.318
   11X2IT    O1  353   0.301   2.077   0.367
   11X2IT    C6  354   0.444   2.264   0.396
   11X2IT   C12  355   0.426   2.267   0.546
   11X2IT    C7  356   0.521   2.359   0.331
   11X2IT    C8  357   0.542   2.361   0.179
   11X2IT    O2  358   0.618   2.448   0.132
   11X2IT    N3  359   0.587   2.457   0.394
   11X2IT   H15  360   0.585   2.469   0.494
   11X2IT   H16  361   0.642   2.521   0.336
   11X2IT    N2  362   0.338   2.081   0.083
   11X2IT    C3  363   0.305   1.939   0.102
   11X2IT    C2  364   0.384   1.872  -0.009
   11X2IT    H2  365   0.356   1.772  -0.043
   11X2IT    N1  366   0.526   1.912  -0.009
   11X2IT   H14  367   0.581   1.842  -0.060
   11X2IT    C1  368   0.432   1.975  -0.104
   11X2IT    H1  369   0.441   1.958  -0.211
   11X2IT   C11  370   0.381   2.110  -0.057
   11X2IT    O3  371   0.270   2.136  -0.142
   11X2IT   C15  372   0.177   2.236  -0.099
   12X2IT   H18  373   3.828   4.518   1.582
   12X2IT    N4  374   3.904   4.511   1.647
   12X2IT   H17  375   3.882   4.530   1.744
   12X2IT   C14  376   4.003   4.422   1.617
   12X2IT    O5  377   4.021   4.372   1.508
   12X2IT    O4  378   4.081   4.401   1.727
   12X2IT   C13  379   4.195   4.314   1.708
   12X2IT   C10  380   4.314   4.389   1.648
   12X2IT    C9  381   4.438   4.303   1.633
   12X2IT    C4  382   4.543   4.358   1.703
   12X2IT    C5  383   4.680   4.297   1.710
   12X2IT    O1  384   4.770   4.355   1.772
   12X2IT    C6  385   4.698   4.171   1.641
   12X2IT   C12  386   4.834   4.104   1.644
   12X2IT    C7  387   4.593   4.117   1.570
   12X2IT    C8  388   4.454   4.181   1.563
   12X2IT    O2  389   4.366   4.121   1.500
   12X2IT    N3  390   4.601   4.002   1.501
   12X2IT   H15  391   4.684   3.946   1.496
   12X2IT   H16  392   4.516   3.970   1.453
   12X2IT    N2  393   4.511   4.478   1.759
   12X2IT    C3  394   4.560   4.535   1.885
   12X2IT    C2  395   4.431   4.552   1.964
   12X2IT    H2  396   4.429   4.622   2.048
   12X2IT    N1  397   4.351   4.428   1.970
   12X2IT   H14  398   4.287   4.432   2.049
   12X2IT    C1  399   4.315   4.535   1.874
   12X2IT    H1  400   4.222   4.590   1.885
   12X2IT   C11  401   4.368   4.510   1.734
   12X2IT    O3  402   4.352   4.635   1.669
   12X2IT   C15  403   4.428   4.656   1.549
   13X2IT   H18  404   2.152   0.697   0.094
   13X2IT    N4  405   2.125   0.609   0.133
   13X2IT   H17  406   2.066   0.611   0.215
   13X2IT   C14  407   2.112   0.505   0.045
   13X2IT    O5  408   2.158   0.503  -0.068
   13X2IT    O4  409   2.046   0.401   0.105
   13X2IT   C13  410   2.032   0.281   0.026
   13X2IT   C10  411   2.157   0.193   0.034
   13X2IT    C9  412   2.144   0.063  -0.042
   13X2IT    C4  413   2.163  -0.044   0.043
   13X2IT    C5  414   2.155  -0.188  -0.000
   13X2IT    O1  415   2.178  -0.277   0.082
   13X2IT    C6  416   2.122  -0.212  -0.139
   13X2IT   C12  417   2.113  -0.354  -0.189
   13X2IT    C7  418   2.104  -0.104  -0.224
   13X2IT    C8  419   2.113   0.042  -0.179
   13X2IT    O2  420   2.090   0.130  -0.263
   13X2IT    N3  421   2.075  -0.117  -0.354
   13X2IT   H15  422   2.064  -0.205  -0.400
   13X2IT   H16  423   2.062  -0.030  -0.408
   13X2IT    N2  424   2.197  -0.004   0.168
   13X2IT    C3  425   2.164  -0.069   0.296
   13X2IT    C2  426   2.086   0.039   0.368
   13X2IT    H2  427   2.075   0.036   0.477
   13X2IT    N1  428   1.975   0.093   0.286
   13X2IT   H14  429   1.906   0.138   0.347
   13X2IT    C1  430   2.102   0.168   0.296
   13X2IT    H1  431   2.106   0.264   0.346
   13X2IT   C11  432   2.196   0.144   0.179
   13X2IT    O3  433   2.320   0.195   0.223
   13X2IT   C15  434   2.437   0.153   0.151
   14X2IT   H18  435   1.294   4.876   4.376
   14X2IT    N4  436   1.218   4.814   4.355
   14X2IT   H17  437   1.233   4.715   4.370
   14X2IT   C14  438   1.092   4.865   4.370
   14X2IT    O5  439   1.065   4.984   4.380
   14X2IT    O4  440   1.000   4.764   4.369
   14X2IT   C13  441   0.861   4.804   4.378
   14X2IT   C10  442   0.806   4.845   4.240
   14X2IT    C9  443   0.659   4.881   4.244
   14X2IT    C4  444   0.588   4.799   4.158
   14X2IT    C5  445   0.439   4.808   4.138
   14X2IT    O1  446   0.384   4.734   4.055
   14X2IT    C6  447   0.369   4.906   4.218
   14X2IT   C12  448   0.219   4.920   4.203
   14X2IT    C7  449   0.440   4.987   4.304
   14X2IT    C8  450   0.592   4.978   4.322
   14X2IT    O2  451   0.645   5.053   4.405
   14X2IT    N3  452   0.384   5.082   4.380
   14X2IT   H15  453   0.286   5.100   4.382
   14X2IT   H16  454   0.447   5.136   4.442
   14X2IT    N2  455   0.669   4.717   4.087
   14X2IT    C3  456   0.639   4.580   4.040
   14X2IT    C2  457   0.748   4.498   4.109
   14X2IT    H2  458   0.774   4.400   4.070
   14X2IT    N1  459   0.752   4.523   4.255
   14X2IT   H14  460   0.799   4.444   4.301
   14X2IT    C1  461   0.850   4.590   4.166
   14X2IT    H1  462   0.955   4.565   4.171
   14X2IT   C11  463   0.810   4.732   4.130
   14X2IT    O3  464   0.895   4.765   4.022
   14X2IT   C15  465   0.857   4.877   3.940
   15X2IT   H18  466   0.478   2.036   4.140
   15X2IT    N4  467   0.421   2.081   4.071
   15X2IT   H17  468   0.353   2.149   4.105
   15X2IT   C14  469   0.475   2.098   3.947
   15X2IT    O5  470   0.574   2.040   3.905
   15X2IT    O4  471   0.400   2.186   3.875
   15X2IT   C13  472   0.443   2.209   3.739
   15X2IT   C10  473   0.389   2.100   3.644
   15X2IT    C9  474   0.425   2.124   3.499
   15X2IT    C4  475   0.311   2.132   3.422
   15X2IT    C5  476   0.311   2.156   3.274
   15X2IT    O1  477   0.204   2.158   3.212
   15X2IT    C6  478   0.440   2.174   3.212
   15X2IT   C12  479   0.448   2.199   3.063
   15X2IT    C7  480   0.555   2.165   3.289
   15X2IT    C8  481   0.553   2.140   3.440
   15X2IT    O2  482   0.662   2.138   3.500
   15X2IT    N3  483   0.679   2.179   3.240
   15X2IT   H15  484   0.698   2.198   3.144
   15X2IT   H16  485   0.756   2.172   3.307
   15X2IT    N2  486   0.199   2.108   3.494
   15X2IT    C3  487   0.065   2.166   3.476
   15X2IT    C2  488   0.041   2.235   3.610
   15X2IT    H2  489  -0.061   2.259   3.641
   15X2IT    N1  490   0.152   2.325   3.647
   15X2IT   H14  491   0.119   2.394   3.715
   15X2IT    C1  492   0.144   2.190   3.707
   15X2IT    H1  493   0.123   2.178   3.813
   15X2IT   C11  494   0.232   2.088   3.638
   15X2IT    O3  495   0.185   1.963   3.687
   15X2IT   C15  496   0.221   1.846   3.613
   16X2IT   H18  497   3.598   2.986   1.987
   16X2IT    N4  498   3.649   2.912   2.031
   16X2IT   H17  499   3.742   2.893   1.997
   16X2IT   C14  500   3.621   2.889   2.163
   16X2IT    O5  501   3.523   2.931   2.223
   16X2IT    O4  502   3.717   2.809   2.218
   16X2IT   C13  503   3.697   2.771   2.356
   16X2IT   C10  504   3.603   2.650   2.367
   16X2IT    C9  505   3.585   2.602   2.510
   16X2IT    C4  506   3.622   2.470   2.521
   16X2IT    C5  507   3.618   2.392   2.649
   16X2IT    O1  508   3.650   2.272   2.649
   16X2IT    C6  509   3.574   2.464   2.767
   16X2IT   C12  510   3.567   2.391   2.899
   16X2IT    C7  511   3.536   2.596   2.755
   16X2IT    C8  512   3.540   2.674   2.624
   16X2IT    O2  513   3.507   2.794   2.626
   16X2IT    N3  514   3.492   2.670   2.858
   16X2IT   H15  515   3.484   2.635   2.952
   16X2IT   H16  516   3.467   2.768   2.838
   16X2IT    N2  517   3.657   2.416   2.401
   16X2IT    C3  518   3.758   2.313   2.374
   16X2IT    C2  519   3.853   2.385   2.279
   16X2IT    H2  520   3.919   2.327   2.215
   16X2IT    N1  521   3.898   2.515   2.334
   16X2IT   H14  522   3.985   2.543   2.288
   16X2IT    C1  523   3.790   2.511   2.233
   16X2IT    H1  524   3.806   2.552   2.134
   16X2IT   C11  525   3.651   2.519   2.294
   16X2IT    O3  526   3.565   2.481   2.188
   16X2IT   C15  527   3.432   2.441   2.223
   17X2IT   H18  528   2.288  -0.127   3.345
   17X2IT    N4  529   2.347  -0.080   3.411
   17X2IT   H17  530   2.416  -0.016   3.375
   17X2IT   C14  531   2.293  -0.058   3.535
   17X2IT    O5  532   2.193  -0.112   3.579
   17X2IT    O4  533   2.371   0.031   3.604
   17X2IT   C13  534   2.329   0.060   3.739
   17X2IT   C10  535   2.381  -0.046   3.837
   17X2IT    C9  536   2.345  -0.016   3.981
   17X2IT    C4  537   2.460  -0.008   4.058
   17X2IT    C5  538   2.461   0.021   4.205
   17X2IT    O1  539   2.568   0.023   4.267
   17X2IT    C6  540   2.332   0.045   4.266
   17X2IT   C12  541   2.326   0.076   4.415
   17X2IT    C7  542   2.218   0.036   4.190
   17X2IT    C8  543   2.218   0.005   4.040
   17X2IT    O2  544   2.110   0.004   3.980
   17X2IT    N3  545   2.094   0.055   4.238
   17X2IT   H15  546   2.075   0.078   4.334
   17X2IT   H16  547   2.016   0.047   4.172
   17X2IT    N2  548   2.572  -0.038   3.986
   17X2IT    C3  549   2.707   0.018   4.002
   17X2IT    C2  550   2.732   0.082   3.866
   17X2IT    H2  551   2.834   0.102   3.834
   17X2IT    N1  552   2.623   0.173   3.825
   17X2IT   H14  553   2.657   0.238   3.754
   17X2IT    C1  554   2.628   0.036   3.770
   17X2IT    H1  555   2.648   0.019   3.665
   17X2IT   C11  556   2.537  -0.062   3.843
   17X2IT    O3  557   2.582  -0.189   3.799
   17X2IT   C15  558   2.543  -0.303   3.878
   18X2IT   H18  559   2.210   1.046   2.329
   18X2IT    N4  560   2.148   1.081   2.400
   18X2IT   H17  561   2.065   1.026   2.419
   18X2IT   C14  562   2.205   1.153   2.501
   18X2IT    O5  563   2.316   1.201   2.499
   18X2IT    O4  564   2.116   1.167   2.604
   18X2IT   C13  565   2.160   1.247   2.716
   18X2IT   C10  566   2.138   1.397   2.689
   18X2IT    C9  567   2.176   1.484   2.807
   18X2IT    C4  568   2.068   1.559   2.848
   18X2IT    C5  569   2.072   1.656   2.963
   18X2IT    O1  570   1.971   1.722   2.990
   18X2IT    C6  571   2.196   1.665   3.035
   18X2IT   C12  572   2.207   1.761   3.152
   18X2IT    C7  573   2.305   1.591   2.993
   18X2IT    C8  574   2.300   1.493   2.875
   18X2IT    O2  575   2.402   1.428   2.849
   18X2IT    N3  576   2.425   1.594   3.052
   18X2IT   H15  577   2.445   1.651   3.133
   18X2IT   H16  578   2.498   1.533   3.014
   18X2IT    N2  579   1.960   1.542   2.767
   18X2IT    C3  580   1.818   1.545   2.804
   18X2IT    C2  581   1.771   1.406   2.764
   18X2IT    H2  582   1.665   1.387   2.748
   18X2IT    N1  583   1.856   1.300   2.822
   18X2IT   H14  584   1.804   1.211   2.824
   18X2IT    C1  585   1.875   1.340   2.681
   18X2IT    H1  586   1.852   1.272   2.600
   18X2IT   C11  587   1.989   1.440   2.662
   18X2IT    O3  588   1.969   1.490   2.532
   18X2IT   C15  589   2.035   1.613   2.498
   19X2IT   H18  590   4.378   0.156   3.418
   19X2IT    N4  591   4.361   0.190   3.511
   19X2IT   H17  592   4.298   0.136   3.568
   19X2IT   C14  593   4.463   0.259   3.570
   19X2IT    O5  594   4.560   0.306   3.512
   19X2IT    O4  595   4.439   0.272   3.704
   19X2IT   C13  596   4.536   0.349   3.779
   19X2IT   C10  597   4.508   0.500   3.768
   19X2IT    C9  598   4.603   0.583   3.851
   19X2IT    C4  599   4.532   0.660   3.942
   19X2IT    C5  600   4.597   0.754   4.040
   19X2IT    O1  601   4.525   0.821   4.116
   19X2IT    C6  602   4.741   0.759   4.039
   19X2IT   C12  603   4.812   0.852   4.136
   19X2IT    C7  604   4.811   0.684   3.947
   19X2IT    C8  605   4.745   0.589   3.847
   19X2IT    O2  606   4.818   0.522   3.772
   19X2IT    N3  607   4.945   0.684   3.937
   19X2IT   H15  608   5.005   0.739   3.997
   19X2IT   H16  609   4.987   0.623   3.867
   19X2IT    N2  610   4.398   0.646   3.927
   19X2IT    C3  611   4.294   0.651   4.031
   19X2IT    C2  612   4.230   0.514   4.019
   19X2IT    H2  613   4.130   0.497   4.059
   19X2IT    N1  614   4.330   0.405   4.025
   19X2IT   H14  615   4.284   0.317   4.052
   19X2IT    C1  616   4.276   0.448   3.894
   19X2IT    H1  617   4.213   0.382   3.836
   19X2IT   C11  618   4.367   0.546   3.821
   19X2IT    O3  619   4.285   0.600   3.719
   19X2IT   C15  620   4.328   0.722   3.658
   20X2IT   H18  621   0.794   0.798   0.884
   20X2IT    N4  622   0.781   0.722   0.820
   20X2IT   H17  623   0.809   0.737   0.724
   20X2IT   C14  624   0.790   0.596   0.873
   20X2IT    O5  625   0.785   0.569   0.991
   20X2IT    O4  626   0.802   0.504   0.772
   20X2IT   C13  627   0.805   0.365   0.813
   20X2IT   C10  628   0.664   0.310   0.835
   20X2IT    C9  629   0.662   0.163   0.871
   20X2IT    C4  630   0.587   0.092   0.780
   20X2IT    C5  631   0.566  -0.057   0.786
   20X2IT    O1  632   0.494  -0.112   0.701
   20X2IT    C6  633   0.633  -0.127   0.893
   20X2IT   C12  634   0.616  -0.277   0.905
   20X2IT    C7  635   0.707  -0.056   0.985
   20X2IT    C8  636   0.727   0.096   0.978
   20X2IT    O2  637   0.800   0.149   1.064
   20X2IT    N3  638   0.771  -0.112   1.089
   20X2IT   H15  639   0.770  -0.210   1.107
   20X2IT   H16  640   0.824  -0.049   1.150
   20X2IT    N2  641   0.528   0.173   0.688
   20X2IT    C3  642   0.499   0.144   0.547
   20X2IT    C2  643   0.578   0.252   0.475
   20X2IT    H2  644   0.552   0.279   0.372
   20X2IT    N1  645   0.720   0.256   0.518
   20X2IT   H14  646   0.776   0.303   0.446
   20X2IT    C1  647   0.623   0.354   0.573
   20X2IT    H1  648   0.632   0.459   0.549
   20X2IT   C11  649   0.569   0.315   0.709
   20X2IT    O3  650   0.457   0.400   0.728
   20X2IT   C15  651   0.362   0.362   0.828
   21X2IT   H18  652   2.728   3.147   1.938
   21X2IT    N4  653   2.770   3.080   1.876
   21X2IT   H17  654   2.754   2.982   1.896
   21X2IT   C14  655   2.785   3.120   1.746
   21X2IT    O5  656   2.779   3.235   1.706
   21X2IT    O4  657   2.814   3.011   1.668
   21X2IT   C13  658   2.839   3.039   1.528
   21X2IT   C10  659   2.985   3.082   1.506
   21X2IT    C9  660   3.019   3.105   1.360
   21X2IT    C4  661   3.123   3.023   1.321
   21X2IT    C5  662   3.180   3.020   1.182
   21X2IT    O1  663   3.276   2.946   1.158
   21X2IT    C6  664   3.118   3.107   1.085
   21X2IT   C12  665   3.170   3.108   0.943
   21X2IT    C7  666   3.014   3.189   1.124
   21X2IT    C8  667   2.957   3.192   1.267
   21X2IT    O2  668   2.861   3.267   1.289
   21X2IT    N3  669   2.952   3.274   1.042
   21X2IT   H15  670   2.975   3.284   0.945
   21X2IT   H16  671   2.875   3.330   1.081
   21X2IT    N2  672   3.173   2.951   1.425
   21X2IT    C3  673   3.230   2.816   1.422
   21X2IT    C2  674   3.138   2.740   1.517
   21X2IT    H2  675   3.172   2.646   1.562
   21X2IT    N1  676   2.995   2.756   1.482
   21X2IT   H14  677   2.941   2.680   1.522
   21X2IT    C1  678   3.053   2.836   1.592
   21X2IT    H1  679   3.022   2.820   1.694
   21X2IT   C11  680   3.094   2.976   1.549
   21X2IT    O3  681   3.176   3.022   1.655
   21X2IT   C15  682   3.261   3.135   1.629
   22X2IT   H18  683   1.702   0.602   3.031
   22X2IT    N4  684   1.747   0.593   3.120
   22X2IT   H17  685   1.838   0.549   3.120
   22X2IT   C14  686   1.719   0.690   3.212
   22X2IT    O5  687   1.625   0.767   3.207
   22X2IT    O4  688   1.810   0.684   3.315
   22X2IT   C13  689   1.789   0.776   3.424
   22X2IT   C10  690   1.685   0.721   3.524
   22X2IT    C9  691   1.666   0.812   3.644
   22X2IT    C4  692   1.693   0.743   3.760
   22X2IT    C5  693   1.684   0.804   3.897
   22X2IT    O1  694   1.708   0.734   3.997
   22X2IT    C6  695   1.647   0.943   3.904
   22X2IT   C12  696   1.637   1.011   4.039
   22X2IT    C7  697   1.618   1.011   3.787
   22X2IT    C8  698   1.627   0.948   3.648
   22X2IT    O2  699   1.603   1.020   3.550
   22X2IT    N3  700   1.581   1.140   3.783
   22X2IT   H15  701   1.572   1.198   3.865
   22X2IT   H16  702   1.564   1.181   3.691
   22X2IT    N2  703   1.722   0.612   3.737
   22X2IT    C3  704   1.815   0.526   3.812
   22X2IT    C2  705   1.915   0.485   3.704
   22X2IT    H2  706   1.976   0.396   3.718
   22X2IT    N1  707   1.970   0.602   3.631
   22X2IT   H14  708   2.058   0.575   3.587
   22X2IT    C1  709   1.861   0.523   3.571
   22X2IT    H1  710   1.878   0.464   3.481
   22X2IT   C11  711   1.723   0.584   3.591
   22X2IT    O3  712   1.634   0.479   3.557
   22X2IT   C15  713   1.498   0.492   3.602
   23X2IT   H18  714   1.465   2.076   0.609
   23X2IT    N4  715   1.560   2.072   0.642
   23X2IT   H17  716   1.591   2.148   0.702
   23X2IT   C14  717   1.615   1.948   0.658
   23X2IT    O5  718   1.570   1.845   0.611
   23X2IT    O4  719   1.730   1.957   0.731
   23X2IT   C13  720   1.803   1.834   0.750
   23X2IT   C10  721   1.893   1.802   0.629
   23X2IT    C9  722   1.976   1.678   0.648
   23X2IT    C4  723   2.110   1.708   0.636
   23X2IT    C5  724   2.221   1.607   0.650
   23X2IT    O1  725   2.338   1.642   0.634
   23X2IT    C6  726   2.180   1.472   0.682
   23X2IT   C12  727   2.286   1.365   0.698
   23X2IT    C7  728   2.046   1.441   0.693
   23X2IT    C8  729   1.935   1.545   0.677
   23X2IT    O2  730   1.817   1.508   0.694
   23X2IT    N3  731   1.999   1.319   0.720
   23X2IT   H15  732   2.058   1.239   0.735
   23X2IT   H16  733   1.897   1.308   0.728
   23X2IT    N2  734   2.131   1.837   0.602
   23X2IT    C3  735   2.243   1.925   0.641
   23X2IT    C2  736   2.172   2.037   0.714
   23X2IT    H2  737   2.222   2.134   0.727
   23X2IT    N1  738   2.082   1.987   0.820
   23X2IT   H14  739   2.064   2.062   0.888
   23X2IT    C1  740   2.026   2.028   0.690
   23X2IT    H1  741   1.962   2.115   0.682
   23X2IT   C11  742   2.002   1.911   0.596
   23X2IT    O3  743   1.982   1.972   0.470
   23X2IT   C15  744   1.995   1.889   0.354
   24X2IT   H18  745   3.926   0.347   4.079
   24X2IT    N4  746   3.886   0.371   3.990
   24X2IT   H17  747   3.932   0.337   3.907
   24X2IT   C14  748   3.750   0.388   3.988
   24X2IT    O5  749   3.679   0.404   4.086
   24X2IT    O4  750   3.705   0.390   3.859
   24X2IT   C13  751   3.564   0.414   3.840
   24X2IT   C10  752   3.532   0.564   3.843
   24X2IT    C9  753   3.386   0.594   3.817
   24X2IT    C4  754   3.373   0.677   3.707
   24X2IT    C5  755   3.242   0.726   3.654
   24X2IT    O1  756   3.240   0.803   3.557
   24X2IT    C6  757   3.123   0.678   3.722
   24X2IT   C12  758   2.987   0.723   3.673
   24X2IT    C7  759   3.137   0.596   3.832
   24X2IT    C8  760   3.272   0.548   3.886
   24X2IT    O2  761   3.271   0.471   3.983
   24X2IT    N3  762   3.033   0.549   3.903
   24X2IT   H15  763   2.937   0.569   3.880
   24X2IT   H16  764   3.054   0.488   3.982
   24X2IT    N2  765   3.494   0.716   3.658
   24X2IT    C3  766   3.530   0.744   3.518
   24X2IT    C2  767   3.641   0.642   3.493
   24X2IT    H2  768   3.711   0.658   3.411
   24X2IT    N1  769   3.600   0.505   3.530
   24X2IT   H14  770   3.660   0.438   3.481
   24X2IT    C1  771   3.684   0.584   3.622
   24X2IT    H1  772   3.787   0.555   3.642
   24X2IT   C11  773   3.605   0.651   3.733
   24X2IT    O3  774   3.695   0.745   3.788
   24X2IT   C15  775   3.639   0.850   3.867
   25X2IT   H18  776   4.371   0.778   1.112
   25X2IT    N4  777   4.407   0.863   1.074
   25X2IT   H17  778   4.503   0.887   1.097
   25X2IT   C14  779   4.355   0.903   0.954
   25X2IT    O5  780   4.252   0.860   0.904
   25X2IT    O4  781   4.433   1.001   0.900
   25X2IT   C13  782   4.387   1.058   0.776
   25X2IT   C10  783   4.282   1.168   0.800
   25X2IT    C9  784   4.236   1.234   0.672
   25X2IT    C4  785   4.260   1.370   0.678
   25X2IT    C5  786   4.226   1.466   0.567
   25X2IT    O1  787   4.248   1.587   0.583
   25X2IT    C6  788   4.169   1.409   0.448
   25X2IT   C12  789   4.134   1.500   0.332
   25X2IT    C7  790   4.145   1.273   0.442
   25X2IT    C8  791   4.178   1.177   0.556
   25X2IT    O2  792   4.156   1.056   0.538
   25X2IT    N3  793   4.090   1.212   0.336
   25X2IT   H15  794   4.064   1.260   0.252
   25X2IT   H16  795   4.078   1.110   0.342
   25X2IT    N2  796   4.309   1.408   0.799
   25X2IT    C3  797   4.404   1.517   0.827
   25X2IT    C2  798   4.520   1.442   0.892
   25X2IT    H2  799   4.592   1.496   0.954
   25X2IT    N1  800   4.566   1.328   0.809
   25X2IT   H14  801   4.662   1.303   0.836
   25X2IT    C1  802   4.477   1.304   0.925
   25X2IT    H1  803   4.513   1.250   1.012
   25X2IT   C11  804   4.331   1.290   0.886
   25X2IT    O3  805   4.262   1.301   1.009
   25X2IT   C15  806   4.121   1.331   1.003
   26X2IT   H18  807   4.603   4.569   0.159
   26X2IT    N4  808   4.536   4.502   0.192
   26X2IT   H17  809   4.503   4.513   0.287
   26X2IT   C14  810   4.452   4.448   0.099
   26X2IT    O5  811   4.469   4.453  -0.022
   26X2IT    O4  812   4.349   4.384   0.161
   26X2IT   C13  813   4.256   4.316   0.074
   26X2IT   C10  814   4.307   4.176   0.035
   26X2IT    C9  815   4.209   4.099  -0.050
   26X2IT    C4  816   4.176   3.979   0.012
   26X2IT    C5  817   4.080   3.879  -0.046
   26X2IT    O1  818   4.060   3.773   0.015
   26X2IT    C6  819   4.018   3.914  -0.171
   26X2IT   C12  820   3.920   3.817  -0.235
   26X2IT    C7  821   4.051   4.032  -0.233
   26X2IT    C8  822   4.150   4.134  -0.174
   26X2IT    O2  823   4.169   4.239  -0.236
   26X2IT    N3  824   4.000   4.072  -0.351
   26X2IT   H15  825   3.933   4.019  -0.402
   26X2IT   H16  826   4.031   4.163  -0.387
   26X2IT    N2  827   4.246   3.960   0.126
   26X2IT    C3  828   4.203   3.891   0.248
   26X2IT    C2  829   4.214   4.001   0.353
   26X2IT    H2  830   4.221   3.974   0.459
   26X2IT    N1  831   4.144   4.124   0.313
   26X2IT   H14  832   4.124   4.181   0.396
   26X2IT    C1  833   4.290   4.115   0.296
   26X2IT    H1  834   4.357   4.177   0.355
   26X2IT   C11  835   4.333   4.078   0.155
   26X2IT    O3  836   4.469   4.041   0.169
   26X2IT   C15  837   4.527   3.965   0.062
   27X2IT   H18  838   4.248   3.207   4.575
   27X2IT    N4  839   4.150   3.220   4.556
   27X2IT   H17  840   4.122   3.224   4.459
   27X2IT   C14  841   4.063   3.168   4.647
   27X2IT    O5  842   4.092   3.133   4.761
   27X2IT    O4  843   3.937   3.164   4.595
   27X2IT   C13  844   3.833   3.117   4.683
   27X2IT   C10  845   3.781   3.230   4.774
   27X2IT    C9  846   3.667   3.186   4.864
   27X2IT    C4  847   3.556   3.266   4.841
   27X2IT    C5  848   3.425   3.249   4.913
   27X2IT    O1  849   3.332   3.327   4.889
   27X2IT    C6  850   3.417   3.141   5.008
   27X2IT   C12  851   3.288   3.118   5.083
   27X2IT    C7  852   3.529   3.062   5.031
   27X2IT    C8  853   3.662   3.081   4.958
   27X2IT    O2  854   3.754   3.002   4.984
   27X2IT    N3  855   3.531   2.961   5.119
   27X2IT   H15  856   3.452   2.933   5.174
   27X2IT   H16  857   3.619   2.908   5.127
   27X2IT    N2  858   3.582   3.365   4.752
   27X2IT    C3  859   3.489   3.425   4.655
   27X2IT    C2  860   3.560   3.396   4.522
   27X2IT    H2  861   3.535   3.456   4.434
   27X2IT    N1  862   3.595   3.254   4.507
   27X2IT   H14  863   3.609   3.232   4.408
   27X2IT    C1  864   3.698   3.351   4.549
   27X2IT    H1  865   3.782   3.374   4.484
   27X2IT   C11  866   3.721   3.354   4.699
   27X2IT    O3  867   3.795   3.473   4.721
   27X2IT   C15  868   3.799   3.525   4.854
   28X2IT   H18  869   0.471   3.080   2.556
   28X2IT    N4  870   0.562   3.044   2.579
   28X2IT   H17  871   0.571   2.998   2.669
   28X2IT   C14  872   0.640   3.003   2.474
   28X2IT    O5  873   0.621   3.031   2.357
   28X2IT    O4  874   0.744   2.929   2.521
   28X2IT   C13  875   0.839   2.883   2.422
   28X2IT   C10  876   0.943   2.992   2.389
   28X2IT    C9  877   1.048   2.947   2.291
   28X2IT    C4  878   1.174   2.959   2.347
   28X2IT    C5  879   1.301   2.922   2.276
   28X2IT    O1  880   1.410   2.940   2.332
   28X2IT    C6  881   1.287   2.867   2.143
   28X2IT   C12  882   1.411   2.826   2.066
   28X2IT    C7  883   1.161   2.855   2.087
   28X2IT    C8  884   1.032   2.894   2.160
   28X2IT    O2  885   0.924   2.876   2.102
   28X2IT    N3  886   1.138   2.807   1.964
   28X2IT   H15  887   1.211   2.774   1.903
   28X2IT   H16  888   1.041   2.801   1.933
   28X2IT    N2  889   1.170   3.017   2.469
   28X2IT    C3  890   1.258   2.991   2.584
   28X2IT    C2  891   1.160   2.943   2.690
   28X2IT    H2  892   1.188   2.947   2.796
   28X2IT    N1  893   1.074   2.833   2.642
   28X2IT   H14  894   1.037   2.781   2.721
   28X2IT    C1  895   1.022   2.970   2.645
   28X2IT    H1  896   0.942   2.997   2.713
   28X2IT   C11  897   1.029   3.042   2.511
   28X2IT    O3  898   1.007   3.178   2.543
   28X2IT   C15  899   1.046   3.275   2.445
   29X2IT   H18  900   1.873   4.137   1.344
   29X2IT    N4  901   1.785   4.094   1.324
   29X2IT   H17  902   1.753   4.099   1.228
   29X2IT   C14  903   1.751   3.986   1.400
   29X2IT    O5  904   1.803   3.955   1.506
   29X2IT    O4  905   1.647   3.919   1.343
   29X2IT   C13  906   1.595   3.806   1.416
   29X2IT   C10  907   1.495   3.850   1.525
   29X2IT    C9  908   1.434   3.734   1.600
   29X2IT    C4  909   1.296   3.737   1.588
   29X2IT    C5  910   1.204   3.636   1.649
   29X2IT    O1  911   1.082   3.649   1.637
   29X2IT    C6  912   1.267   3.528   1.722
   29X2IT   C12  913   1.180   3.422   1.787
   29X2IT    C7  914   1.405   3.525   1.735
   29X2IT    C8  915   1.497   3.630   1.672
   29X2IT    O2  916   1.620   3.616   1.686
   29X2IT    N3  917   1.472   3.431   1.802
   29X2IT   H15  918   1.427   3.353   1.848
   29X2IT   H16  919   1.574   3.438   1.803
   29X2IT    N2  920   1.253   3.847   1.521
   29X2IT    C3  921   1.136   3.859   1.432
   29X2IT    C2  922   1.200   3.900   1.300
   29X2IT    H2  923   1.139   3.949   1.224
   29X2IT    N1  924   1.309   3.809   1.260
   29X2IT   H14  925   1.325   3.818   1.159
   29X2IT    C1  926   1.341   3.939   1.323
   29X2IT    H1  927   1.391   4.017   1.267
   29X2IT   C11  928   1.369   3.928   1.472
   29X2IT    O3  929   1.363   4.062   1.518
   29X2IT   C15  930   1.346   4.082   1.659
   30X2IT   H18  931   2.931   3.993   3.257
   30X2IT    N4  932   2.958   4.033   3.169
   30X2IT   H17  933   2.947   4.133   3.158
   30X2IT   C14  934   3.058   3.970   3.102
   30X2IT    O5  935   3.098   3.857   3.125
   30X2IT    O4  936   3.104   4.050   3.001
   30X2IT   C13  937   3.207   3.993   2.917
   30X2IT   C10  938   3.146   3.905   2.806
   30X2IT    C9  939   3.249   3.849   2.711
   30X2IT    C4  940   3.221   3.888   2.581
   30X2IT    C5  941   3.305   3.850   2.463
   30X2IT    O1  942   3.270   3.887   2.349
   30X2IT    C6  943   3.423   3.771   2.489
   30X2IT   C12  944   3.512   3.730   2.374
   30X2IT    C7  945   3.450   3.731   2.619
   30X2IT    C8  946   3.364   3.770   2.739
   30X2IT    O2  947   3.400   3.732   2.851
   30X2IT    N3  948   3.556   3.656   2.653
   30X2IT   H15  949   3.624   3.624   2.586
   30X2IT   H16  950   3.568   3.634   2.752
   30X2IT    N2  951   3.105   3.958   2.573
   30X2IT    C3  952   3.072   4.067   2.481
   30X2IT    C2  953   3.042   4.182   2.576
   30X2IT    H2  954   2.983   4.267   2.542
   30X2IT    N1  955   3.151   4.203   2.674
   30X2IT   H14  956   3.145   4.298   2.711
   30X2IT    C1  957   3.030   4.129   2.714
   30X2IT    H1  958   2.961   4.171   2.788
   30X2IT   C11  959   3.046   3.978   2.708
   30X2IT    O3  960   2.914   3.929   2.717
   30X2IT   C15  961   2.892   3.793   2.676
   31X2IT   H18  962   0.548   4.680   1.389
   31X2IT    N4  963   0.608   4.661   1.311
   31X2IT   H17  964   0.574   4.687   1.219
   31X2IT   C14  965   0.743   4.663   1.336
   31X2IT    O5  966   0.794   4.658   1.446
   31X2IT    O4  967   0.811   4.665   1.217
   31X2IT   C13  968   0.955   4.661   1.228
   31X2IT   C10  969   1.006   4.516   1.243
   31X2IT    C9  970   1.157   4.507   1.247
   31X2IT    C4  971   1.202   4.424   1.146
   31X2IT    C5  972   1.347   4.394   1.121
   31X2IT    O1  973   1.378   4.316   1.030
   31X2IT    C6  974   1.442   4.458   1.208
   31X2IT   C12  975   1.590   4.432   1.188
   31X2IT    C7  976   1.397   4.540   1.310
   31X2IT    C8  977   1.249   4.570   1.335
   31X2IT    O2  978   1.220   4.648   1.427
   31X2IT    N3  979   1.478   4.603   1.397
   31X2IT   H15  980   1.578   4.596   1.394
   31X2IT   H16  981   1.433   4.662   1.468
   31X2IT    N2  982   1.100   4.368   1.076
   31X2IT    C3  983   1.096   4.333   0.933
   31X2IT    C2  984   0.980   4.417   0.883
   31X2IT    H2  985   0.930   4.390   0.790
   31X2IT    N1  986   0.993   4.560   0.920
   31X2IT   H14  987   0.936   4.617   0.858
   31X2IT    C1  988   0.904   4.472   0.998
   31X2IT    H1  989   0.797   4.486   0.997
   31X2IT   C11  990   0.969   4.419   1.126
   31X2IT    O3  991   0.883   4.313   1.166
   31X2IT   C15  992   0.936   4.219   1.260
   32X2IT   H18  993   1.464   3.028   4.740
   32X2IT    N4  994   1.522   2.972   4.681
   32X2IT   H17  995   1.498   2.874   4.671
   32X2IT   C14  996   1.581   3.036   4.575
   32X2IT    O5  997   1.592   3.157   4.564
   32X2IT    O4  998   1.630   2.945   4.487
   32X2IT   C13  999   1.701   2.998   4.373
   32X2IT   C10 1000   1.848   3.029   4.408
   32X2IT    C9 1001   1.928   3.078   4.290
   32X2IT    C4 1002   2.036   2.996   4.267
   32X2IT    C5 1003   2.136   3.016   4.157
   32X2IT    O1 1004   2.233   2.939   4.147
   32X2IT    C6 1005   2.112   3.128   4.068
   32X2IT   C12 1006   2.209   3.154   3.954
   32X2IT    C7 1007   2.004   3.211   4.091
   32X2IT    C8 1008   1.904   3.189   4.205
   32X2IT    O2 1009   1.808   3.268   4.213
   32X2IT    N3 1010   1.975   3.318   4.016
   32X2IT   H15 1011   2.029   3.345   3.936
   32X2IT   H16 1012   1.892   3.371   4.041
   32X2IT    N2 1013   2.047   2.899   4.362
   32X2IT    C3 1014   2.098   2.762   4.345
   32X2IT    C2 1015   1.977   2.678   4.386
   32X2IT    H2 1016   1.991   2.574   4.416
   32X2IT    N1 1017   1.855   2.717   4.312
   32X2IT   H14 1018   1.787   2.639   4.315
   32X2IT    C1 1019   1.876   2.765   4.450
   32X2IT    H1 1020   1.812   2.731   4.531
   32X2IT   C11 1021   1.933   2.906   4.457
   32X2IT    O3 1022   1.976   2.919   4.591
   32X2IT   C15 1023   2.069   3.025   4.620
   33X2IT   H18 1024   4.700  -0.400   5.410
   33X2IT    N4 1025   4.650  -0.333   5.353
   33X2IT   H17 1026   4.549  -0.339   5.353
   33X2IT   C14 1027   4.710  -0.211   5.336
   33X2IT    O5 1028   4.827  -0.187   5.360
   33X2IT    O4 1029   4.620  -0.122   5.285
   33X2IT   C13 1030   4.672   0.009   5.255
   33X2IT   C10 1031   4.740   0.013   5.117
   33X2IT    C9 1032   4.789   0.151   5.080
   33X2IT    C4 1033   4.732   0.191   4.960
   33X2IT    C5 1034   4.758   0.324   4.895
   33X2IT    O1 1035   4.705   0.350   4.786
   33X2IT    C6 1036   4.847   0.413   4.965
   33X2IT   C12 1037   4.878   0.549   4.904
   33X2IT    C7 1038   4.905   0.373   5.083
   33X2IT    C8 1039   4.878   0.237   5.149
   33X2IT    O2 1040   4.932   0.213   5.257
   33X2IT    N3 1041   4.991   0.449   5.154
   33X2IT   H15 1042   5.018   0.541   5.127
   33X2IT   H16 1043   5.026   0.409   5.241
   33X2IT    N2 1044   4.655   0.094   4.906
   33X2IT    C3 1045   4.532   0.110   4.826
   33X2IT    C2 1046   4.429   0.034   4.909
   33X2IT    H2 1047   4.337  -0.001   4.863
   33X2IT    N1 1048   4.428   0.079   5.050
   33X2IT   H14 1049   4.338   0.054   5.093
   33X2IT    C1 1050   4.499  -0.045   5.014
   33X2IT    H1 1051   4.464  -0.141   5.049
   33X2IT   C11 1052   4.649  -0.025   4.995
   33X2IT    O3 1053   4.691  -0.143   4.930
   33X2IT   C15 1054   4.818  -0.139   4.864
   34X2IT   H18 1055   2.019   4.013   3.536
   34X2IT    N4 1056   2.052   4.073   3.462
   34X2IT   H17 1057   2.115   4.147   3.488
   34X2IT   C14 1058   2.064   4.015   3.338
   34X2IT    O5 1059   2.013   3.910   3.304
   34X2IT    O4 1060   2.138   4.096   3.257
   34X2IT   C13 1061   2.153   4.052   3.120
   34X2IT   C10 1062   2.032   4.091   3.034
   34X2IT    C9 1063   2.047   4.052   2.889
   34X2IT    C4 1064   2.037   4.164   2.808
   34X2IT    C5 1065   2.048   4.161   2.658
   34X2IT    O1 1066   2.034   4.265   2.594
   34X2IT    C6 1067   2.075   4.032   2.599
   34X2IT   C12 1068   2.088   4.022   2.448
   34X2IT    C7 1069   2.084   3.920   2.679
   34X2IT    C8 1070   2.071   3.925   2.832
   34X2IT    O2 1071   2.086   3.819   2.895
   34X2IT    N3 1072   2.106   3.796   2.633
   34X2IT   H15 1073   2.119   3.775   2.535
   34X2IT   H16 1074   2.113   3.721   2.702
   34X2IT    N2 1075   2.007   4.276   2.879
   34X2IT    C3 1076   2.050   4.414   2.852
   34X2IT    C2 1077   2.127   4.449   2.979
   34X2IT    H2 1078   2.143   4.554   3.005
   34X2IT    N1 1079   2.231   4.349   3.011
   34X2IT   H14 1080   2.301   4.391   3.072
   34X2IT    C1 1081   2.101   4.346   3.083
   34X2IT    H1 1082   2.096   4.369   3.188
   34X2IT   C11 1083   2.003   4.246   3.025
   34X2IT    O3 1084   1.879   4.282   3.083
   34X2IT   C15 1085   1.760   4.232   3.020
   35X2IT   H18 1086   0.948   3.045   3.295
   35X2IT    N4 1087   1.007   2.988   3.352
   35X2IT   H17 1088   0.992   2.992   3.452
   35X2IT   C14 1089   1.053   2.872   3.296
   35X2IT    O5 1090   1.051   2.846   3.177
   35X2IT    O4 1091   1.105   2.791   3.393
   35X2IT   C13 1092   1.164   2.668   3.347
   35X2IT   C10 1093   1.308   2.688   3.299
   35X2IT    C9 1094   1.376   2.559   3.257
   35X2IT    C4 1095   1.490   2.539   3.331
   35X2IT    C5 1096   1.581   2.420   3.315
   35X2IT    O1 1097   1.684   2.412   3.384
   35X2IT    C6 1098   1.540   2.321   3.218
   35X2IT   C12 1099   1.627   2.199   3.197
   35X2IT    C7 1100   1.426   2.342   3.143
   35X2IT    C8 1101   1.336   2.465   3.159
   35X2IT    O2 1102   1.233   2.471   3.090
   35X2IT    N3 1103   1.382   2.257   3.049
   35X2IT   H15 1104   1.428   2.171   3.026
   35X2IT   H16 1105   1.295   2.282   3.000
   35X2IT    N2 1106   1.516   2.643   3.415
   35X2IT    C3 1107   1.579   2.638   3.548
   35X2IT    C2 1108   1.470   2.697   3.637
   35X2IT    H2 1109   1.497   2.737   3.734
   35X2IT    N1 1110   1.340   2.628   3.618
   35X2IT   H14 1111   1.282   2.645   3.700
   35X2IT    C1 1112   1.365   2.758   3.552
   35X2IT    H1 1113   1.310   2.847   3.582
   35X2IT   C11 1114   1.408   2.745   3.407
   35X2IT    O3 1115   1.458   2.873   3.374
   35X2IT   C15 1116   1.541   2.883   3.257
   36X2IT   H18 1117   2.051   4.458   2.168
   36X2IT    N4 1118   2.035   4.501   2.079
   36X2IT   H17 1119   2.015   4.600   2.079
   36X2IT   C14 1120   2.100   4.446   1.972
   36X2IT    O5 1121   2.152   4.336   1.971
   36X2IT    O4 1122   2.094   4.531   1.866
   36X2IT   C13 1123   2.153   4.483   1.743
   36X2IT   C10 1124   2.055   4.393   1.665
   36X2IT    C9 1125   2.110   4.346   1.532
   36X2IT    C4 1126   2.027   4.386   1.429
   36X2IT    C5 1127   2.054   4.357   1.284
   36X2IT    O1 1128   1.971   4.393   1.199
   36X2IT    C6 1129   2.175   4.285   1.254
   36X2IT   C12 1130   2.208   4.253   1.110
   36X2IT    C7 1131   2.258   4.245   1.357
   36X2IT    C8 1132   2.230   4.275   1.504
   36X2IT    O2 1133   2.313   4.238   1.588
   36X2IT    N3 1134   2.372   4.177   1.339
   36X2IT   H15 1135   2.407   4.151   1.248
   36X2IT   H16 1136   2.426   4.153   1.423
   36X2IT    N2 1137   1.915   4.448   1.475
   36X2IT    C3 1138   1.839   4.556   1.411
   36X2IT    C2 1139   1.847   4.667   1.515
   36X2IT    H2 1140   1.775   4.748   1.514
   36X2IT    N1 1141   1.987   4.694   1.558
   36X2IT   H14 1142   1.992   4.787   1.599
   36X2IT    C1 1143   1.899   4.611   1.643
   36X2IT    H1 1144   1.866   4.646   1.740
   36X2IT   C11 1145   1.919   4.461   1.623
   36X2IT    O3 1146   1.807   4.402   1.685
   36X2IT   C15 1147   1.777   4.267   1.651
   37X2IT   H18 1148   1.292   1.188   3.368
   37X2IT    N4 1149   1.344   1.271   3.345
   37X2IT   H17 1150   1.418   1.298   3.408
   37X2IT   C14 1151   1.356   1.299   3.212
   37X2IT    O5 1152   1.289   1.250   3.123
   37X2IT    O4 1153   1.453   1.394   3.193
   37X2IT   C13 1154   1.473   1.439   3.058
   37X2IT   C10 1155   1.371   1.548   3.019
   37X2IT    C9 1156   1.393   1.603   2.880
   37X2IT    C4 1157   1.414   1.740   2.885
   37X2IT    C5 1158   1.439   1.825   2.765
   37X2IT    O1 1159   1.453   1.948   2.778
   37X2IT    C6 1160   1.445   1.757   2.637
   37X2IT   C12 1161   1.471   1.837   2.512
   37X2IT    C7 1162   1.424   1.621   2.632
   37X2IT    C8 1163   1.397   1.535   2.756
   37X2IT    O2 1164   1.383   1.413   2.740
   37X2IT    N3 1165   1.425   1.549   2.519
   37X2IT   H15 1166   1.443   1.590   2.428
   37X2IT   H16 1167   1.409   1.448   2.527
   37X2IT    N2 1168   1.400   1.789   3.011
   37X2IT    C3 1169   1.472   1.901   3.073
   37X2IT    C2 1170   1.542   1.835   3.191
   37X2IT    H2 1171   1.576   1.895   3.275
   37X2IT    N1 1172   1.619   1.715   3.150
   37X2IT   H14 1173   1.690   1.695   3.221
   37X2IT    C1 1174   1.486   1.699   3.211
   37X2IT    H1 1175   1.474   1.653   3.308
   37X2IT   C11 1176   1.375   1.678   3.108
   37X2IT    O3 1177   1.256   1.699   3.182
   37X2IT   C15 1178   1.136   1.724   3.107
   38X2IT   H18 1179   1.047   3.090   5.125
   38X2IT    N4 1180   1.007   3.100   5.034
   38X2IT   H17 1181   0.950   3.024   5.000
   38X2IT   C14 1182   0.979   3.228   4.993
   38X2IT    O5 1183   1.023   3.329   5.045
   38X2IT    O4 1184   0.899   3.225   4.883
   38X2IT   C13 1185   0.866   3.353   4.824
   38X2IT   C10 1186   0.978   3.401   4.730
   38X2IT    C9 1187   0.945   3.532   4.661
   38X2IT    C4 1188   0.949   3.516   4.524
   38X2IT    C5 1189   0.920   3.626   4.426
   38X2IT    O1 1190   0.930   3.604   4.305
   38X2IT    C6 1191   0.883   3.754   4.482
   38X2IT   C12 1192   0.852   3.869   4.389
   38X2IT    C7 1193   0.880   3.770   4.619
   38X2IT    C8 1194   0.910   3.657   4.718
   38X2IT    O2 1195   0.900   3.682   4.839
   38X2IT    N3 1196   0.848   3.885   4.680
   38X2IT   H15 1197   0.823   3.969   4.630
   38X2IT   H16 1198   0.847   3.885   4.782
   38X2IT    N2 1199   0.990   3.392   4.488
   38X2IT    C3 1200   0.948   3.313   4.371
   38X2IT    C2 1201   0.888   3.189   4.435
   38X2IT    H2 1202   0.878   3.097   4.377
   38X2IT    N1 1203   0.785   3.222   4.537
   38X2IT   H14 1204   0.724   3.142   4.551
   38X2IT    C1 1205   0.922   3.186   4.579
   38X2IT    H1 1206   0.940   3.094   4.634
   38X2IT   C11 1207   1.010   3.306   4.609
   38X2IT    O3 1208   1.141   3.253   4.614
   38X2IT   C15 1209   1.250   3.345   4.602
   39X2IT   H18 1210   3.716   5.121   1.002
   39X2IT    N4 1211   3.628   5.078   0.980
   39X2IT   H17 1212   3.617   5.040   0.887
   39X2IT   C14 1213   3.561   5.020   1.084
   39X2IT    O5 1214   3.585   5.039   1.202
   39X2IT    O4 1215   3.461   4.940   1.037
   39X2IT   C13 1216   3.377   4.877   1.136
   39X2IT   C10 1217   3.266   4.972   1.185
   39X2IT    C9 1218   3.172   4.908   1.284
   39X2IT    C4 1219   3.043   4.913   1.237
   39X2IT    C5 1220   2.924   4.857   1.310
   39X2IT    O1 1221   2.811   4.869   1.262
   39X2IT    C6 1222   2.952   4.792   1.436
   39X2IT   C12 1223   2.837   4.733   1.516
   39X2IT    C7 1224   3.082   4.787   1.484
   39X2IT    C8 1225   3.201   4.846   1.408
   39X2IT    O2 1226   3.314   4.832   1.458
   39X2IT    N3 1227   3.117   4.731   1.600
   39X2IT   H15 1228   3.051   4.686   1.662
   39X2IT   H16 1229   3.216   4.732   1.625
   39X2IT    N2 1230   3.033   4.981   1.120
   39X2IT    C3 1231   2.940   4.958   1.008
   39X2IT    C2 1232   3.036   4.929   0.893
   39X2IT    H2 1233   3.001   4.940   0.790
   39X2IT    N1 1234   3.134   4.824   0.926
   39X2IT   H14 1235   3.171   4.784   0.839
   39X2IT    C1 1236   3.174   4.966   0.932
   39X2IT    H1 1237   3.246   5.007   0.863
   39X2IT   C11 1238   3.168   5.024   1.073
   39X2IT    O3 1239   3.176   5.164   1.053
   39X2IT   C15 1240   3.134   5.248   1.162
   40X2IT   H18 1241   1.014   0.428   5.414
   40X2IT    N4 1242   0.969   0.386   5.335
   40X2IT   H17 1243   0.871   0.363   5.344
   40X2IT   C14 1244   1.017   0.421   5.212
   40X2IT    O5 1245   1.125   0.475   5.191
   40X2IT    O4 1246   0.929   0.384   5.115
   40X2IT   C13 1247   0.970   0.408   4.978
   40X2IT   C10 1248   1.061   0.297   4.926
   40X2IT    C9 1249   1.101   0.315   4.781
   40X2IT    C4 1250   1.061   0.206   4.706
   40X2IT    C5 1251   1.085   0.193   4.559
   40X2IT    O1 1252   1.049   0.089   4.500
   40X2IT    C6 1253   1.149   0.304   4.493
   40X2IT   C12 1254   1.175   0.297   4.344
   40X2IT    C7 1255   1.189   0.413   4.568
   40X2IT    C8 1256   1.166   0.425   4.719
   40X2IT    O2 1257   1.202   0.529   4.775
   40X2IT    N3 1258   1.251   0.520   4.517
   40X2IT   H15 1259   1.273   0.530   4.419
   40X2IT   H16 1260   1.275   0.596   4.581
   40X2IT    N2 1261   1.007   0.108   4.783
   40X2IT    C3 1262   0.900   0.014   4.747
   40X2IT    C2 1263   0.792   0.046   4.851
   40X2IT    H2 1264   0.715  -0.027   4.873
   40X2IT    N1 1265   0.761   0.191   4.855
   40X2IT   H14 1266   0.668   0.204   4.897
   40X2IT    C1 1267   0.850   0.132   4.957
   40X2IT    H1 1268   0.820   0.127   5.061
   40X2IT   C11 1269   0.998   0.152   4.925
   40X2IT    O3 1270   1.064   0.063   5.013
   40X2IT   C15 1271   1.200   0.029   4.982
   41X2IT   H18 1272   0.464   3.444   0.172
   41X2IT    N4 1273   0.399   3.399   0.111
   41X2IT   H17 1274   0.410   3.415   0.011
   41X2IT   C14 1275   0.347   3.280   0.153
   41X2IT    O5 1276   0.352   3.238   0.268
   41X2IT    O4 1277   0.286   3.216   0.050
   41X2IT   C13 1278   0.221   3.091   0.081
   41X2IT   C10 1279   0.080   3.114   0.139
   41X2IT    C9 1280   0.005   2.986   0.167
   41X2IT    C4 1281  -0.113   2.983   0.097
   41X2IT    C5 1282  -0.211   2.869   0.101
   41X2IT    O1 1283  -0.317   2.876   0.038
   41X2IT    C6 1284  -0.174   2.756   0.183
   41X2IT   C12 1285  -0.267   2.637   0.192
   41X2IT    C7 1286  -0.056   2.759   0.255
   41X2IT    C8 1287   0.043   2.877   0.249
   41X2IT    O2 1288   0.148   2.867   0.314
   41X2IT    N3 1289  -0.014   2.660   0.335
   41X2IT   H15 1290  -0.065   2.575   0.348
   41X2IT   H16 1291   0.077   2.673   0.381
   41X2IT    N2 1292  -0.135   3.098   0.029
   41X2IT    C3 1293  -0.204   3.116  -0.101
   41X2IT    C2 1294  -0.095   3.178  -0.187
   41X2IT    H2 1295  -0.122   3.233  -0.277
   41X2IT    N1 1296   0.031   3.100  -0.183
   41X2IT   H14 1297   0.087   3.123  -0.266
   41X2IT    C1 1298   0.018   3.221  -0.100
   41X2IT    H1 1299   0.078   3.309  -0.120
   41X2IT   C11 1300  -0.020   3.191   0.044
   41X2IT    O3 1301  -0.060   3.317   0.096
   41X2IT   C15 1302  -0.137   3.316   0.217
   42X2IT   H18 1303  -0.105   2.373   2.039
   42X2IT    N4 1304  -0.025   2.426   2.010
   42X2IT   H17 1305   0.023   2.395   1.926
   42X2IT   C14 1306  -0.026   2.559   2.040
   42X2IT    O5 1307  -0.100   2.612   2.122
   42X2IT    O4 1308   0.070   2.624   1.969
   42X2IT   C13 1309   0.085   2.765   1.995
   42X2IT   C10 1310   0.173   2.790   2.119
   42X2IT    C9 1311   0.197   2.937   2.147
   42X2IT    C4 1312   0.333   2.964   2.147
   42X2IT    C5 1313   0.391   3.100   2.170
   42X2IT    O1 1314   0.514   3.114   2.172
   42X2IT    C6 1315   0.297   3.208   2.190
   42X2IT   C12 1316   0.349   3.348   2.214
   42X2IT    C7 1317   0.161   3.180   2.191
   42X2IT    C8 1318   0.103   3.041   2.168
   42X2IT    O2 1319  -0.020   3.028   2.166
   42X2IT    N3 1320   0.067   3.273   2.210
   42X2IT   H15 1321   0.087   3.371   2.225
   42X2IT   H16 1322  -0.031   3.242   2.207
   42X2IT    N2 1323   0.407   2.851   2.131
   42X2IT    C3 1324   0.537   2.837   2.063
   42X2IT    C2 1325   0.505   2.736   1.954
   42X2IT    H2 1326   0.586   2.680   1.907
   42X2IT    N1 1327   0.387   2.776   1.873
   42X2IT   H14 1328   0.390   2.728   1.783
   42X2IT    C1 1329   0.373   2.675   1.980
   42X2IT    H1 1330   0.349   2.572   1.956
   42X2IT   C11 1331   0.320   2.732   2.111
   42X2IT    O3 1332   0.345   2.631   2.206
   42X2IT   C15 1333   0.342   2.668   2.344
   43X2IT   H18 1334   3.993   1.152   3.403
   43X2IT    N4 1335   3.988   1.246   3.437
   43X2IT   H17 1336   3.985   1.320   3.367
   43X2IT   C14 1337   3.924   1.265   3.556
   43X2IT    O5 1338   3.899   1.177   3.637
   43X2IT    O4 1339   3.897   1.398   3.574
   43X2IT   C13 1340   3.836   1.434   3.700
   43X2IT   C10 1341   3.941   1.449   3.811
   43X2IT    C9 1342   3.881   1.494   3.943
   43X2IT    C4 1343   3.939   1.612   3.984
   43X2IT    C5 1344   3.902   1.684   4.111
   43X2IT    O1 1345   3.963   1.787   4.142
   43X2IT    C6 1346   3.797   1.625   4.190
   43X2IT   C12 1347   3.754   1.693   4.319
   43X2IT    C7 1348   3.739   1.506   4.149
   43X2IT    C8 1349   3.778   1.434   4.020
   43X2IT    O2 1350   3.717   1.330   3.991
   43X2IT    N3 1351   3.642   1.443   4.217
   43X2IT   H15 1352   3.603   1.478   4.302
   43X2IT   H16 1353   3.605   1.357   4.176
   43X2IT    N2 1354   4.039   1.651   3.902
   43X2IT    C3 1355   4.080   1.789   3.868
   43X2IT    C2 1356   4.061   1.792   3.717
   43X2IT    H2 1357   4.112   1.867   3.657
   43X2IT    N1 1358   3.925   1.746   3.677
   43X2IT   H14 1359   3.904   1.782   3.583
   43X2IT    C1 1360   4.040   1.653   3.667
   43X2IT    H1 1361   4.075   1.619   3.570
   43X2IT   C11 1362   4.051   1.559   3.785
   43X2IT    O3 1363   4.181   1.504   3.774
   43X2IT   C15 1364   4.236   1.442   3.890
   44X2IT   H18 1365   3.796   4.641   1.099
   44X2IT    N4 1366   3.800   4.670   1.195
   44X2IT   H17 1367   3.798   4.598   1.266
   44X2IT   C14 1368   3.869   4.786   1.221
   44X2IT    O5 1369   3.900   4.869   1.137
   44X2IT    O4 1370   3.893   4.797   1.355
   44X2IT   C13 1371   3.959   4.918   1.398
   44X2IT   C10 1372   3.859   5.033   1.416
   44X2IT    C9 1373   3.923   5.160   1.467
   44X2IT    C4 1374   3.863   5.199   1.586
   44X2IT    C5 1375   3.904   5.320   1.664
   44X2IT    O1 1376   3.842   5.350   1.768
   44X2IT    C6 1377   4.014   5.397   1.612
   44X2IT   C12 1378   4.061   5.521   1.686
   44X2IT    C7 1379   4.073   5.359   1.492
   44X2IT    C8 1380   4.030   5.235   1.413
   44X2IT    O2 1381   4.093   5.208   1.310
   44X2IT    N3 1382   4.175   5.425   1.435
   44X2IT   H15 1383   4.217   5.507   1.474
   44X2IT   H16 1384   4.212   5.386   1.347
   44X2IT    N2 1385   3.759   5.119   1.619
   44X2IT    C3 1386   3.713   5.081   1.754
   44X2IT    C2 1387   3.726   4.929   1.751
   44X2IT    H2 1388   3.670   4.869   1.822
   44X2IT    N1 1389   3.860   4.885   1.707
   44X2IT   H14 1390   3.877   4.789   1.738
   44X2IT    C1 1391   3.748   4.885   1.611
   44X2IT    H1 1392   3.709   4.791   1.572
   44X2IT   C11 1393   3.745   5.008   1.521
   44X2IT    O3 1394   3.615   5.004   1.463
   44X2IT   C15 1395   3.567   5.126   1.405
   45X2IT   H18 1396   3.777   3.716   0.609
   45X2IT    N4 1397   3.736   3.799   0.645
   45X2IT   H17 1398   3.641   3.793   0.679
   45X2IT   C14 1399   3.821   3.889   0.703
   45X2IT    O5 1400   3.943   3.889   0.690
   45X2IT    O4 1401   3.751   3.981   0.775
   45X2IT   C13 1402   3.828   4.087   0.837
   45X2IT   C10 1403   3.857   4.200   0.737
   45X2IT    C9 1404   3.932   4.316   0.800
   45X2IT    C4 1405   3.859   4.433   0.785
   45X2IT    C5 1406   3.905   4.566   0.837
   45X2IT    O1 1407   3.835   4.667   0.816
   45X2IT    C6 1408   4.030   4.569   0.909
   45X2IT   C12 1409   4.081   4.700   0.964
   45X2IT    C7 1410   4.103   4.452   0.922
   45X2IT    C8 1411   4.056   4.316   0.868
   45X2IT    O2 1412   4.127   4.217   0.890
   45X2IT    N3 1413   4.221   4.444   0.985
   45X2IT   H15 1414   4.265   4.524   1.028
   45X2IT   H16 1415   4.265   4.352   0.991
   45X2IT    N2 1416   3.747   4.414   0.712
   45X2IT    C3 1417   3.617   4.483   0.726
   45X2IT    C2 1418   3.522   4.368   0.756
   45X2IT    H2 1419   3.415   4.380   0.739
   45X2IT    N1 1420   3.570   4.283   0.867
   45X2IT   H14 1421   3.491   4.231   0.906
   45X2IT    C1 1422   3.591   4.239   0.728
   45X2IT    H1 1423   3.540   4.152   0.689
   45X2IT   C11 1424   3.730   4.271   0.676
   45X2IT    O3 1425   3.719   4.252   0.536
   45X2IT   C15 1426   3.821   4.311   0.454
   46X2IT   H18 1427   5.607   3.231   0.684
   46X2IT    N4 1428   5.529   3.172   0.707
   46X2IT   H17 1429   5.543   3.073   0.698
   46X2IT   C14 1430   5.444   3.220   0.803
   46X2IT    O5 1431   5.438   3.335   0.841
   46X2IT    O4 1432   5.362   3.119   0.846
   46X2IT   C13 1433   5.261   3.156   0.943
   46X2IT   C10 1434   5.137   3.215   0.874
   46X2IT    C9 1435   5.026   3.248   0.972
   46X2IT    C4 1436   4.911   3.179   0.938
   46X2IT    C5 1437   4.782   3.189   1.015
   46X2IT    O1 1438   4.683   3.127   0.976
   46X2IT    C6 1439   4.783   3.274   1.132
   46X2IT   C12 1440   4.657   3.288   1.214
   46X2IT    C7 1441   4.898   3.343   1.165
   46X2IT    C8 1442   5.028   3.333   1.085
   46X2IT    O2 1443   5.127   3.396   1.126
   46X2IT    N3 1444   4.908   3.425   1.270
   46X2IT   H15 1445   4.833   3.442   1.334
   46X2IT   H16 1446   4.999   3.470   1.286
   46X2IT    N2 1447   4.925   3.108   0.823
   46X2IT    C3 1448   4.863   2.979   0.788
   46X2IT    C2 1449   4.984   2.890   0.766
   46X2IT    H2 1450   4.973   2.799   0.707
   46X2IT    N1 1451   5.078   2.894   0.880
   46X2IT   H14 1452   5.137   2.810   0.878
   46X2IT    C1 1453   5.106   2.973   0.759
   46X2IT    H1 1454   5.191   2.949   0.696
   46X2IT   C11 1455   5.065   3.119   0.772
   46X2IT    O3 1456   5.068   3.168   0.639
   46X2IT   C15 1457   4.998   3.289   0.612
   47X2IT   H18 1458   2.529   5.314   2.950
   47X2IT    N4 1459   2.614   5.272   2.982
   47X2IT   H17 1460   2.638   5.287   3.079
   47X2IT   C14 1461   2.653   5.156   2.921
   47X2IT    O5 1462   2.609   5.116   2.814
   47X2IT    O4 1463   2.751   5.096   2.993
   47X2IT   C13 1464   2.807   4.975   2.937
   47X2IT   C10 1465   2.916   5.007   2.833
   47X2IT    C9 1466   2.982   4.883   2.777
   47X2IT    C4 1467   3.118   4.886   2.800
   47X2IT    C5 1468   3.213   4.778   2.757
   47X2IT    O1 1469   3.334   4.791   2.779
   47X2IT    C6 1470   3.155   4.664   2.691
   47X2IT   C12 1471   3.245   4.551   2.646
   47X2IT    C7 1472   3.019   4.661   2.667
   47X2IT    C8 1473   2.923   4.772   2.710
   47X2IT    O2 1474   2.802   4.757   2.687
   47X2IT    N3 1475   2.956   4.560   2.604
   47X2IT   H15 1476   3.004   4.478   2.571
   47X2IT   H16 1477   2.855   4.568   2.593
   47X2IT    N2 1478   3.157   5.002   2.859
   47X2IT    C3 1479   3.266   5.022   2.955
   47X2IT    C2 1480   3.192   5.078   3.077
   47X2IT    H2 1481   3.247   5.134   3.153
   47X2IT    N1 1482   3.078   4.992   3.116
   47X2IT   H14 1483   3.054   5.012   3.214
   47X2IT    C1 1484   3.054   5.115   3.037
   47X2IT    H1 1485   3.001   5.199   3.080
   47X2IT   C11 1486   3.039   5.088   2.888
   47X2IT    O3 1487   3.051   5.217   2.829
   47X2IT   C15 1488   3.080   5.221   2.689
   48X2IT   H18 1489   4.130   2.478   0.820
   48X2IT    N4 1490   4.052   2.482   0.883
   48X2IT   H17 1491   3.965   2.441   0.851
   48X2IT   C14 1492   4.081   2.482   1.016
   48X2IT    O5 1493   4.191   2.504   1.064
   48X2IT    O4 1494   3.968   2.457   1.089
   48X2IT   C13 1495   3.983   2.459   1.232
   48X2IT   C10 1496   3.975   2.603   1.287
   48X2IT    C9 1497   3.983   2.610   1.438
   48X2IT    C4 1498   3.870   2.672   1.489
   48X2IT    C5 1499   3.846   2.694   1.635
   48X2IT    O1 1500   3.744   2.754   1.672
   48X2IT    C6 1501   3.946   2.644   1.725
   48X2IT   C12 1502   3.928   2.662   1.875
   48X2IT    C7 1503   4.059   2.583   1.674
   48X2IT    C8 1504   4.083   2.561   1.525
   48X2IT    O2 1505   4.186   2.501   1.490
   48X2IT    N3 1506   4.159   2.534   1.750
   48X2IT   H15 1507   4.158   2.538   1.851
   48X2IT   H16 1508   4.237   2.489   1.702
   48X2IT    N2 1509   3.788   2.718   1.391
   48X2IT    C3 1510   3.641   2.727   1.393
   48X2IT    C2 1511   3.602   2.638   1.275
   48X2IT    H2 1512   3.504   2.649   1.230
   48X2IT    N1 1513   3.664   2.504   1.283
   48X2IT   H14 1514   3.610   2.438   1.226
   48X2IT    C1 1515   3.722   2.606   1.195
   48X2IT    H1 1516   3.720   2.594   1.087
   48X2IT   C11 1517   3.840   2.679   1.256
   48X2IT    O3 1518   3.859   2.792   1.173
   48X2IT   C15 1519   3.936   2.901   1.225
   49X2IT   H18 1520   1.915   1.165   3.450
   49X2IT    N4 1521   1.972   1.158   3.533
   49X2IT   H17 1522   2.071   1.179   3.522
   49X2IT   C14 1523   1.911   1.187   3.651
   49X2IT    O5 1524   1.790   1.192   3.669
   49X2IT    O4 1525   2.004   1.206   3.749
   49X2IT   C13 1526   1.954   1.230   3.882
   49X2IT   C10 1527   1.918   1.099   3.954
   49X2IT    C9 1528   1.871   1.120   4.096
   49X2IT    C4 1529   1.952   1.050   4.183
   49X2IT    C5 1530   1.933   1.050   4.332
   49X2IT    O1 1531   2.008   0.981   4.403
   49X2IT    C6 1532   1.825   1.131   4.384
   49X2IT   C12 1533   1.801   1.136   4.533
   49X2IT    C7 1534   1.744   1.200   4.296
   49X2IT    C8 1535   1.764   1.198   4.144
   49X2IT    O2 1536   1.687   1.268   4.075
   49X2IT    N3 1537   1.641   1.276   4.334
   49X2IT   H15 1538   1.615   1.290   4.430
   49X2IT   H16 1539   1.588   1.324   4.261
   49X2IT    N2 1540   2.045   0.975   4.119
   49X2IT    C3 1541   2.181   0.943   4.163
   49X2IT    C2 1542   2.267   1.002   4.052
   49X2IT    H2 1543   2.369   0.967   4.038
   49X2IT    N1 1544   2.233   1.144   4.026
   49X2IT   H14 1545   2.312   1.189   3.978
   49X2IT    C1 1546   2.180   1.038   3.937
   49X2IT    H1 1547   2.212   1.031   3.834
   49X2IT   C11 1548   2.037   0.997   3.972
   49X2IT    O3 1549   2.018   0.876   3.901
   49X2IT   C15 1550   1.909   0.793   3.942
   50X2IT   H18 1551   1.700   3.457   2.203
   50X2IT    N4 1552   1.758   3.428   2.280
   50X2IT   H17 1553   1.847   3.387   2.258
   50X2IT   C14 1554   1.744   3.499   2.396
   50X2IT    O5 1555   1.652   3.574   2.423
   50X2IT    O4 1556   1.848   3.471   2.480
   50X2IT   C13 1557   1.844   3.534   2.610
   50X2IT   C10 1558   1.755   3.456   2.708
   50X2IT    C9 1559   1.754   3.515   2.847
   50X2IT    C4 1560   1.797   3.421   2.939
   50X2IT    C5 1561   1.808   3.448   3.087
   50X2IT    O1 1562   1.844   3.357   3.163
   50X2IT    C6 1563   1.774   3.581   3.131
   50X2IT   C12 1564   1.783   3.615   3.278
   50X2IT    C7 1565   1.730   3.674   3.039
   50X2IT    C8 1566   1.718   3.646   2.889
   50X2IT    O2 1567   1.682   3.738   2.815
   50X2IT    N3 1568   1.695   3.800   3.071
   50X2IT   H15 1569   1.698   3.836   3.164
   50X2IT   H16 1570   1.665   3.861   2.994
   50X2IT    N2 1571   1.820   3.300   2.882
   50X2IT    C3 1572   1.921   3.200   2.920
   50X2IT    C2 1573   2.004   3.188   2.793
   50X2IT    H2 1574   2.065   3.100   2.777
   50X2IT    N1 1575   2.050   3.320   2.743
   50X2IT   H14 1576   2.130   3.306   2.682
   50X2IT    C1 1577   1.932   3.255   2.681
   50X2IT    H1 1578   1.936   3.220   2.579
   50X2IT   C11 1579   1.800   3.307   2.735
   50X2IT    O3 1580   1.705   3.212   2.690
   50X2IT   C15 1581   1.577   3.211   2.755
   51X2IT   H18 1582   0.260   1.110   1.462
   51X2IT    N4 1583   0.181   1.077   1.409
   51X2IT   H17 1584   0.090   1.084   1.453
   51X2IT   C14 1585   0.191   1.088   1.273
   51X2IT    O5 1586   0.294   1.107   1.211
   51X2IT    O4 1587   0.068   1.070   1.216
   51X2IT   C13 1588   0.063   1.073   1.072
   51X2IT   C10 1589   0.100   0.936   1.013
   51X2IT    C9 1590   0.090   0.932   0.862
   51X2IT    C4 1591   0.002   0.833   0.822
   51X2IT    C5 1592  -0.032   0.803   0.679
   51X2IT    O1 1593  -0.109   0.710   0.653
   51X2IT    C6 1594   0.031   0.887   0.579
   51X2IT   C12 1595   0.001   0.862   0.433
   51X2IT    C7 1596   0.120   0.985   0.619
   51X2IT    C8 1597   0.154   1.013   0.765
   51X2IT    O2 1598   0.232   1.107   0.789
   51X2IT    N3 1599   0.185   1.066   0.533
   51X2IT   H15 1600   0.172   1.062   0.434
   51X2IT   H16 1601   0.247   1.136   0.574
   51X2IT    N2 1602  -0.045   0.761   0.928
   51X2IT    C3 1603  -0.177   0.699   0.943
   51X2IT    C2 1604  -0.230   0.768   1.068
   51X2IT    H2 1605  -0.311   0.722   1.125
   51X2IT    N1 1606  -0.222   0.916   1.059
   51X2IT   H14 1607  -0.288   0.958   1.125
   51X2IT    C1 1608  -0.120   0.842   1.135
   51X2IT    H1 1609  -0.112   0.852   1.242
   51X2IT   C11 1610   0.008   0.816   1.056
   51X2IT    O3 1611   0.076   0.718   1.132
   51X2IT   C15 1612   0.180   0.645   1.065
   52X2IT   H18 1613   4.280   4.609   3.716
   52X2IT    N4 1614   4.313   4.549   3.789
   52X2IT   H17 1615   4.389   4.486   3.767
   52X2IT   C14 1616   4.304   4.598   3.917
   52X2IT    O5 1617   4.235   4.693   3.950
   52X2IT    O4 1618   4.380   4.523   4.002
   52X2IT   C13 1619   4.374   4.559   4.141
   52X2IT   C10 1620   4.252   4.497   4.210
   52X2IT    C9 1621   4.246   4.527   4.359
   52X2IT    C4 1622   4.244   4.410   4.431
   52X2IT    C5 1623   4.239   4.404   4.581
   52X2IT    O1 1624   4.233   4.293   4.637
   52X2IT    C6 1625   4.240   4.530   4.651
   52X2IT   C12 1626   4.235   4.531   4.802
   52X2IT    C7 1627   4.241   4.648   4.578
   52X2IT    C8 1628   4.245   4.652   4.425
   52X2IT    O2 1629   4.251   4.764   4.370
   52X2IT    N3 1630   4.240   4.770   4.634
   52X2IT   H15 1631   4.240   4.785   4.733
   52X2IT   H16 1632   4.243   4.850   4.570
   52X2IT    N2 1633   4.238   4.300   4.351
   52X2IT    C3 1634   4.297   4.168   4.374
   52X2IT    C2 1635   4.392   4.153   4.256
   52X2IT    H2 1636   4.425   4.053   4.226
   52X2IT    N1 1637   4.482   4.269   4.241
   52X2IT   H14 1638   4.564   4.241   4.186
   52X2IT    C1 1639   4.362   4.258   4.156
   52X2IT    H1 1640   4.371   4.243   4.049
   52X2IT   C11 1641   4.245   4.340   4.207
   52X2IT    O3 1642   4.134   4.291   4.134
   52X2IT   C15 1643   4.003   4.320   4.185
   53X2IT   H18 1644   2.814   1.125   3.240
   53X2IT    N4 1645   2.911   1.150   3.238
   53X2IT   H17 1646   2.953   1.180   3.325
   53X2IT   C14 1647   2.989   1.083   3.146
   53X2IT    O5 1648   2.946   1.020   3.051
   53X2IT    O4 1649   3.121   1.102   3.175
   53X2IT   C13 1650   3.215   1.043   3.083
   53X2IT   C10 1651   3.238   1.134   2.960
   53X2IT    C9 1652   3.341   1.079   2.864
   53X2IT    C4 1653   3.444   1.169   2.848
   53X2IT    C5 1654   3.563   1.146   2.760
   53X2IT    O1 1655   3.649   1.234   2.748
   53X2IT    C6 1656   3.569   1.018   2.692
   53X2IT   C12 1657   3.687   0.988   2.602
   53X2IT    C7 1658   3.466   0.928   2.708
   53X2IT    C8 1659   3.344   0.954   2.797
   53X2IT    O2 1660   3.259   0.864   2.808
   53X2IT    N3 1661   3.461   0.808   2.648
   53X2IT   H15 1662   3.534   0.774   2.587
   53X2IT   H16 1663   3.380   0.749   2.668
   53X2IT    N2 1664   3.421   1.286   2.914
   53X2IT    C3 1665   3.519   1.375   2.977
   53X2IT    C2 1666   3.475   1.374   3.123
   53X2IT    H2 1667   3.506   1.455   3.189
   53X2IT    N1 1668   3.459   1.237   3.177
   53X2IT   H14 1669   3.464   1.240   3.279
   53X2IT    C1 1670   3.340   1.313   3.133
   53X2IT    H1 1671   3.265   1.345   3.205
   53X2IT   C11 1672   3.294   1.277   2.992
   53X2IT    O3 1673   3.204   1.381   2.958
   53X2IT   C15 1674   3.173   1.398   2.819
   54X2IT   H18 1675   1.762   4.054   4.313
   54X2IT    N4 1676   1.696   4.051   4.237
   54X2IT   H17 1677   1.599   4.067   4.261
   54X2IT   C14 1678   1.742   4.088   4.114
   54X2IT    O5 1679   1.859   4.098   4.083
   54X2IT    O4 1680   1.637   4.110   4.030
   54X2IT   C13 1681   1.671   4.143   3.893
   54X2IT   C10 1682   1.700   4.018   3.810
   54X2IT    C9 1683   1.730   4.048   3.665
   54X2IT    C4 1684   1.641   3.981   3.583
   54X2IT    C5 1685   1.641   3.990   3.433
   54X2IT    O1 1686   1.560   3.924   3.368
   54X2IT    C6 1687   1.740   4.078   3.374
   54X2IT   C12 1688   1.746   4.092   3.224
   54X2IT    C7 1689   1.830   4.144   3.456
   54X2IT    C8 1690   1.828   4.133   3.609
   54X2IT    O2 1691   1.911   4.200   3.673
   54X2IT    N3 1692   1.926   4.226   3.411
   54X2IT   H15 1693   1.940   4.246   3.313
   54X2IT   H16 1694   1.986   4.271   3.481
   54X2IT    N2 1695   1.558   3.900   3.654
   54X2IT    C3 1696   1.418   3.866   3.624
   54X2IT    C2 1697   1.345   3.916   3.748
   54X2IT    H2 1698   1.246   3.877   3.772
   54X2IT    N1 1699   1.378   4.057   3.779
   54X2IT   H14 1700   1.305   4.097   3.837
   54X2IT    C1 1701   1.444   3.948   3.853
   54X2IT    H1 1702   1.425   3.934   3.959
   54X2IT   C11 1703   1.582   3.914   3.800
   54X2IT    O3 1704   1.613   3.790   3.860
   54X2IT   C15 1705   1.718   3.712   3.801
   55X2IT   H18 1706   0.159   0.648   3.111
   55X2IT    N4 1707   0.195   0.725   3.164
   55X2IT   H17 1708   0.163   0.817   3.138
   55X2IT   C14 1709   0.227   0.699   3.294
   55X2IT    O5 1710   0.242   0.588   3.343
   55X2IT    O4 1711   0.245   0.817   3.362
   55X2IT   C13 1712   0.286   0.805   3.500
   55X2IT   C10 1713   0.439   0.786   3.511
   55X2IT    C9 1714   0.487   0.781   3.655
   55X2IT    C4 1715   0.580   0.880   3.677
   55X2IT    C5 1716   0.648   0.903   3.810
   55X2IT    O1 1717   0.733   0.992   3.820
   55X2IT    C6 1718   0.608   0.817   3.918
   55X2IT   C12 1719   0.671   0.835   4.054
   55X2IT    C7 1720   0.515   0.717   3.895
   55X2IT    C8 1721   0.448   0.694   3.759
   55X2IT    O2 1722   0.362   0.604   3.751
   55X2IT    N3 1723   0.473   0.631   3.989
   55X2IT   H15 1724   0.506   0.633   4.084
   55X2IT   H16 1725   0.403   0.562   3.961
   55X2IT    N2 1726   0.610   0.949   3.564
   55X2IT    C3 1727   0.646   1.091   3.552
   55X2IT    C2 1728   0.536   1.145   3.461
   55X2IT    H2 1729   0.551   1.238   3.407
   55X2IT    N1 1730   0.401   1.110   3.511
   55X2IT   H14 1731   0.332   1.175   3.470
   55X2IT    C1 1732   0.461   1.031   3.402
   55X2IT    H1 1733   0.419   1.033   3.302
   55X2IT   C11 1734   0.526   0.902   3.450
   55X2IT    O3 1735   0.605   0.860   3.340
   55X2IT   C15 1736   0.708   0.764   3.367
   56X2IT   H18 1737   4.511   3.277   4.760
   56X2IT    N4 1738   4.558   3.318   4.682
   56X2IT   H17 1739   4.654   3.347   4.695
   56X2IT   C14 1740   4.519   3.275   4.558
   56X2IT    O5 1741   4.416   3.214   4.534
   56X2IT    O4 1742   4.610   3.314   4.464
   56X2IT   C13 1743   4.578   3.281   4.327
   56X2IT   C10 1744   4.483   3.385   4.265
   56X2IT    C9 1745   4.452   3.358   4.120
   56X2IT    C4 1746   4.489   3.467   4.042
   56X2IT    C5 1747   4.473   3.472   3.893
   56X2IT    O1 1748   4.505   3.575   3.832
   56X2IT    C6 1749   4.418   3.355   3.829
   56X2IT   C12 1750   4.400   3.353   3.679
   56X2IT    C7 1751   4.381   3.247   3.907
   56X2IT    C8 1752   4.397   3.242   4.059
   56X2IT    O2 1753   4.364   3.138   4.118
   56X2IT    N3 1754   4.328   3.134   3.857
   56X2IT   H15 1755   4.312   3.119   3.759
   56X2IT   H16 1756   4.305   3.059   3.924
   56X2IT    N2 1757   4.534   3.570   4.117
   56X2IT    C3 1758   4.637   3.669   4.083
   56X2IT    C2 1759   4.740   3.648   4.193
   56X2IT    H2 1760   4.812   3.726   4.215
   56X2IT    N1 1761   4.780   3.506   4.205
   56X2IT   H14 1762   4.871   3.500   4.252
   56X2IT    C1 1763   4.682   3.563   4.299
   56X2IT    H1 1764   4.706   3.575   4.404
   56X2IT   C11 1765   4.537   3.533   4.262
   56X2IT    O3 1766   4.462   3.622   4.341
   56X2IT   C15 1767   4.326   3.646   4.302
   57X2IT   H18 1768  -0.435   0.004   1.357
   57X2IT    N4 1769  -0.352   0.044   1.319
   57X2IT   H17 1770  -0.344   0.046   1.218
   57X2IT   C14 1771  -0.293   0.143   1.392
   57X2IT    O5 1772  -0.315   0.166   1.510
   57X2IT    O4 1773  -0.201   0.209   1.316
   57X2IT   C13 1774  -0.125   0.312   1.383
   57X2IT   C10 1775  -0.005   0.253   1.460
   57X2IT    C9 1776   0.080   0.359   1.525
   57X2IT    C4 1777   0.211   0.350   1.480
   57X2IT    C5 1778   0.322   0.441   1.524
   57X2IT    O1 1779   0.436   0.423   1.481
   57X2IT    C6 1780   0.286   0.544   1.618
   57X2IT   C12 1781   0.393   0.640   1.667
   57X2IT    C7 1782   0.156   0.553   1.664
   57X2IT    C8 1783   0.044   0.459   1.619
   57X2IT    O2 1784  -0.070   0.479   1.663
   57X2IT    N3 1785   0.114   0.645   1.753
   57X2IT   H15 1786   0.174   0.715   1.791
   57X2IT   H16 1787   0.015   0.643   1.779
   57X2IT    N2 1788   0.228   0.244   1.396
   57X2IT    C3 1789   0.319   0.234   1.281
   57X2IT    C2 1790   0.223   0.209   1.166
   57X2IT    H2 1791   0.260   0.164   1.073
   57X2IT    N1 1792   0.114   0.308   1.161
   57X2IT   H14 1793   0.073   0.310   1.067
   57X2IT    C1 1794   0.089   0.175   1.220
   57X2IT    H1 1795   0.022   0.105   1.173
   57X2IT   C11 1796   0.099   0.174   1.372
   57X2IT    O3 1797   0.106   0.037   1.405
   57X2IT   C15 1798   0.155   0.004   1.536
   58X2IT   H18 1799   3.140   2.656   2.375
   58X2IT    N4 1800   3.057   2.660   2.318
   58X2IT   H17 1801   3.003   2.746   2.323
   58X2IT   C14 1802   3.058   2.589   2.202
   58X2IT    O5 1803   3.138   2.500   2.175
   58X2IT    O4 1804   2.955   2.628   2.122
   58X2IT   C13 1805   2.940   2.556   1.998
   58X2IT   C10 1806   2.863   2.424   2.018
   58X2IT    C9 1807   2.839   2.349   1.889
   58X2IT    C4 1808   2.703   2.330   1.869
   58X2IT    C5 1809   2.645   2.260   1.750
   58X2IT    O1 1810   2.522   2.244   1.742
   58X2IT    C6 1811   2.739   2.213   1.651
   58X2IT   C12 1812   2.687   2.141   1.528
   58X2IT    C7 1813   2.874   2.231   1.671
   58X2IT    C8 1814   2.932   2.303   1.793
   58X2IT    O2 1815   3.055   2.317   1.799
   58X2IT    N3 1816   2.969   2.190   1.585
   58X2IT   H15 1817   2.948   2.143   1.499
   58X2IT   H16 1818   3.066   2.210   1.610
   58X2IT    N2 1819   2.629   2.376   1.974
   58X2IT    C3 1820   2.495   2.435   1.970
   58X2IT    C2 1821   2.519   2.573   2.029
   58X2IT    H2 1822   2.435   2.630   2.071
   58X2IT    N1 1823   2.629   2.645   1.961
   58X2IT   H14 1824   2.620   2.746   1.977
   58X2IT    C1 1825   2.654   2.578   2.090
   58X2IT    H1 1826   2.677   2.636   2.179
   58X2IT   C11 1827   2.717   2.440   2.075
   58X2IT    O3 1828   2.701   2.382   2.203
   58X2IT   C15 1829   2.715   2.239   2.212
   59X2IT   H18 1830   0.396   1.524   0.909
   59X2IT    N4 1831   0.486   1.567   0.919
   59X2IT   H17 1832   0.529   1.606   0.836
   59X2IT   C14 1833   0.513   1.624   1.040
   59X2IT    O5 1834   0.450   1.604   1.143
   59X2IT    O4 1835   0.624   1.703   1.031
   59X2IT   C13 1836   0.668   1.765   1.154
   59X2IT   C10 1837   0.755   1.669   1.236
   59X2IT    C9 1838   0.810   1.732   1.363
   59X2IT    C4 1839   0.948   1.727   1.363
   59X2IT    C5 1840   1.033   1.782   1.473
   59X2IT    O1 1841   1.157   1.770   1.467
   59X2IT    C6 1842   0.964   1.846   1.583
   59X2IT   C12 1843   1.045   1.904   1.697
   59X2IT    C7 1844   0.826   1.850   1.583
   59X2IT    C8 1845   0.740   1.793   1.470
   59X2IT    O2 1846   0.617   1.807   1.478
   59X2IT    N3 1847   0.753   1.906   1.681
   59X2IT   H15 1848   0.794   1.950   1.761
   59X2IT   H16 1849   0.652   1.905   1.670
   59X2IT    N2 1850   0.997   1.660   1.256
   59X2IT    C3 1851   1.122   1.684   1.183
   59X2IT    C2 1852   1.073   1.714   1.042
   59X2IT    H2 1853   1.141   1.704   0.958
   59X2IT    N1 1854   0.969   1.819   1.040
   59X2IT   H14 1855   0.963   1.861   0.947
   59X2IT    C1 1856   0.929   1.677   1.031
   59X2IT    H1 1857   0.885   1.638   0.941
   59X2IT   C11 1858   0.886   1.618   1.165
   59X2IT    O3 1859   0.886   1.479   1.142
   59X2IT   C15 1860   0.887   1.394   1.257
   60X2IT   H18 1861   3.333   2.113   0.439
   60X2IT    N4 1862   3.376   2.060   0.512
   60X2IT   H17 1863   3.465   2.016   0.491
   60X2IT   C14 1864   3.352   2.100   0.640
   60X2IT    O5 1865   3.262   2.175   0.674
   60X2IT    O4 1866   3.439   2.040   0.726
   60X2IT   C13 1867   3.421   2.068   0.866
   60X2IT   C10 1868   3.313   1.977   0.928
   60X2IT    C9 1869   3.295   1.999   1.077
   60X2IT    C4 1870   3.317   1.881   1.145
   60X2IT    C5 1871   3.308   1.868   1.294
   60X2IT    O1 1872   3.326   1.757   1.347
   60X2IT    C6 1873   3.278   1.988   1.368
   60X2IT   C12 1874   3.269   1.982   1.519
   60X2IT    C7 1875   3.256   2.106   1.300
   60X2IT    C8 1876   3.264   2.118   1.147
   60X2IT    O2 1877   3.246   2.230   1.097
   60X2IT    N3 1878   3.226   2.222   1.359
   60X2IT   H15 1879   3.218   2.233   1.459
   60X2IT   H16 1880   3.212   2.304   1.299
   60X2IT    N2 1881   3.339   1.777   1.061
   60X2IT    C3 1882   3.426   1.660   1.083
   60X2IT    C2 1883   3.525   1.671   0.968
   60X2IT    H2 1884   3.582   1.583   0.936
   60X2IT    N1 1885   3.588   1.805   0.961
   60X2IT   H14 1886   3.676   1.799   0.909
   60X2IT    C1 1887   3.477   1.772   0.870
   60X2IT    H1 1888   3.493   1.764   0.764
   60X2IT   C11 1889   3.342   1.823   0.919
   60X2IT    O3 1890   3.248   1.754   0.839
   60X2IT   C15 1891   3.112   1.750   0.886
   61X2IT   H18 1892   4.804   1.425   1.634
   61X2IT    N4 1893   4.852   1.433   1.721
   61X2IT   H17 1894   4.886   1.525   1.747
   61X2IT   C14 1895   4.813   1.347   1.820
   61X2IT    O5 1896   4.747   1.246   1.804
   61X2IT    O4 1897   4.863   1.389   1.940
   61X2IT   C13 1898   4.835   1.304   2.054
   61X2IT   C10 1899   4.936   1.188   2.063
   61X2IT    C9 1900   4.915   1.100   2.184
   61X2IT    C4 1901   5.029   1.097   2.262
   61X2IT    C5 1902   5.042   1.020   2.390
   61X2IT    O1 1903   5.150   1.020   2.451
   61X2IT    C6 1904   4.924   0.949   2.434
   61X2IT   C12 1905   4.930   0.869   2.562
   61X2IT    C7 1906   4.810   0.951   2.356
   61X2IT    C8 1907   4.799   1.029   2.225
   61X2IT    O2 1908   4.690   1.028   2.165
   61X2IT    N3 1909   4.697   0.886   2.387
   61X2IT   H15 1910   4.686   0.831   2.471
   61X2IT   H16 1911   4.618   0.896   2.323
   61X2IT    N2 1912   5.131   1.166   2.204
   61X2IT    C3 1913   5.238   1.241   2.271
   61X2IT    C2 1914   5.218   1.382   2.216
   61X2IT    H2 1915   5.299   1.454   2.219
   61X2IT    N1 1916   5.078   1.428   2.231
   61X2IT   H14 1917   5.076   1.531   2.227
   61X2IT    C1 1918   5.124   1.376   2.101
   61X2IT    H1 1919   5.132   1.442   2.015
   61X2IT   C11 1920   5.087   1.231   2.078
   61X2IT    O3 1921   5.166   1.192   1.967
   61X2IT   C15 1922   5.184   1.052   1.945
   62X2IT   H18 1923   5.171   0.247   4.203
   62X2IT    N4 1924   5.096   0.205   4.151
   62X2IT   H17 1925   5.008   0.191   4.200
   62X2IT   C14 1926   5.094   0.230   4.017
   62X2IT    O5 1927   5.187   0.273   3.952
   62X2IT    O4 1928   4.972   0.195   3.965
   62X2IT   C13 1929   4.958   0.209   3.822
   62X2IT   C10 1930   5.015   0.088   3.747
   62X2IT    C9 1931   4.995   0.096   3.597
   62X2IT    C4 1932   4.924  -0.014   3.552
   62X2IT    C5 1933   4.886  -0.036   3.409
   62X2IT    O1 1934   4.825  -0.139   3.377
   62X2IT    C6 1935   4.926   0.066   3.315
   62X2IT   C12 1936   4.891   0.050   3.168
   62X2IT    C7 1937   4.999   0.175   3.360
   62X2IT    C8 1938   5.037   0.196   3.506
   62X2IT    O2 1939   5.098   0.300   3.536
   62X2IT    N3 1940   5.042   0.274   3.280
   62X2IT   H15 1941   5.024   0.277   3.181
   62X2IT   H16 1942   5.093   0.350   3.324
   62X2IT    N2 1943   4.898  -0.102   3.652
   62X2IT    C3 1944   4.780  -0.188   3.668
   62X2IT    C2 1945   4.724  -0.142   3.802
   62X2IT    H2 1946   4.656  -0.207   3.858
   62X2IT    N1 1947   4.705   0.005   3.807
   62X2IT   H14 1948   4.637   0.028   3.880
   62X2IT    C1 1949   4.824  -0.056   3.870
   62X2IT    H1 1950   4.836  -0.054   3.977
   62X2IT   C11 1951   4.948  -0.050   3.782
   62X2IT    O3 1952   5.038  -0.141   3.844
   62X2IT   C15 1953   5.148  -0.187   3.765
   63X2IT   H18 1954   3.283   1.109   1.558
   63X2IT    N4 1955   3.199   1.105   1.612
   63X2IT   H17 1956   3.194   1.161   1.696
   63X2IT   C14 1957   3.084   1.079   1.542
   63X2IT    O5 1958   3.078   1.035   1.429
   63X2IT    O4 1959   2.975   1.107   1.621
   63X2IT   C13 1960   2.846   1.079   1.562
   63X2IT   C10 1961   2.808   0.930   1.578
   63X2IT    C9 1962   2.671   0.898   1.525
   63X2IT    C4 1963   2.592   0.844   1.625
   63X2IT    C5 1964   2.449   0.802   1.605
   63X2IT    O1 1965   2.387   0.750   1.699
   63X2IT    C6 1966   2.393   0.823   1.474
   63X2IT   C12 1967   2.249   0.783   1.447
   63X2IT    C7 1968   2.472   0.876   1.374
   63X2IT    C8 1969   2.618   0.918   1.395
   63X2IT    O2 1970   2.678   0.969   1.299
   63X2IT    N3 1971   2.429   0.898   1.248
   63X2IT   H15 1972   2.336   0.877   1.218
   63X2IT   H16 1973   2.496   0.939   1.183
   63X2IT    N2 1974   2.661   0.826   1.740
   63X2IT    C3 1975   2.611   0.837   1.878
   63X2IT    C2 1976   2.697   0.948   1.936
   63X2IT    H2 1977   2.708   0.958   2.044
   63X2IT    N1 1978   2.696   1.070   1.851
   63X2IT   H14 1979   2.724   1.150   1.907
   63X2IT    C1 1980   2.810   0.976   1.843
   63X2IT    H1 1981   2.908   1.006   1.877
   63X2IT   C11 1982   2.800   0.879   1.727
   63X2IT    O3 1983   2.897   0.780   1.756
   63X2IT   C15 1984   2.886   0.655   1.687
   64X2IT   H18 1985   2.414   0.375   3.385
   64X2IT    N4 1986   2.407   0.475   3.383
   64X2IT   H17 1987   2.387   0.522   3.470
   64X2IT   C14 1988   2.481   0.539   3.288
   64X2IT    O5 1989   2.533   0.486   3.191
   64X2IT    O4 1990   2.486   0.673   3.315
   64X2IT   C13 1991   2.557   0.755   3.219
   64X2IT   C10 1992   2.467   0.792   3.100
   64X2IT    C9 1993   2.534   0.883   3.001
   64X2IT    C4 1994   2.462   1.000   2.987
   64X2IT    C5 1995   2.502   1.113   2.896
   64X2IT    O1 1996   2.429   1.212   2.886
   64X2IT    C6 1997   2.626   1.096   2.823
   64X2IT   C12 1998   2.672   1.207   2.730
   64X2IT    C7 1999   2.697   0.979   2.837
   64X2IT    C8 2000   2.655   0.865   2.929
   64X2IT    O2 2001   2.730   0.766   2.937
   64X2IT    N3 2002   2.812   0.954   2.773
   64X2IT   H15 2003   2.856   1.019   2.710
   64X2IT   H16 2004   2.858   0.864   2.792
   64X2IT    N2 2005   2.346   0.998   3.058
   64X2IT    C3 2006   2.278   1.110   3.123
   64X2IT    C2 2007   2.276   1.067   3.269
   64X2IT    H2 2008   2.205   1.112   3.338
   64X2IT    N1 2009   2.411   1.029   3.317
   64X2IT   H14 2010   2.413   1.035   3.420
   64X2IT    C1 2011   2.314   0.924   3.278
   64X2IT    H1 2012   2.273   0.857   3.352
   64X2IT   C11 2013   2.336   0.872   3.137
   64X2IT    O3 2014   2.217   0.801   3.108
   64X2IT   C15 2015   2.190   0.772   2.970
   65X2IT   H18 2016   0.924   3.975   4.105
   65X2IT    N4 2017   0.954   4.055   4.052
   65X2IT   H17 2018   1.045   4.092   4.074
   65X2IT   C14 2019   0.906   4.065   3.925
   65X2IT    O5 2020   0.810   4.004   3.880
   65X2IT    O4 2021   0.977   4.159   3.856
   65X2IT   C13 2022   0.933   4.186   3.721
   65X2IT   C10 2023   0.816   4.287   3.719
   65X2IT    C9 2024   0.772   4.323   3.579
   65X2IT    C4 2025   0.782   4.460   3.560
   65X2IT    C5 2026   0.746   4.529   3.432
   65X2IT    O1 2027   0.755   4.653   3.424
   65X2IT    C6 2028   0.702   4.445   3.323
   65X2IT   C12 2029   0.665   4.508   3.191
   65X2IT    C7 2030   0.691   4.309   3.343
   65X2IT    C8 2031   0.727   4.239   3.475
   65X2IT    O2 2032   0.717   4.116   3.480
   65X2IT    N3 2033   0.649   4.223   3.249
   65X2IT   H15 2034   0.623   4.251   3.156
   65X2IT   H16 2035   0.646   4.124   3.274
   65X2IT    N2 2036   0.821   4.525   3.673
   65X2IT    C3 2037   0.903   4.646   3.684
   65X2IT    C2 2038   1.022   4.597   3.766
   65X2IT    H2 2039   1.084   4.669   3.819
   65X2IT    N1 2040   1.083   4.475   3.709
   65X2IT   H14 2041   1.179   4.466   3.744
   65X2IT    C1 2042   0.990   4.464   3.823
   65X2IT    H1 2043   1.026   4.431   3.920
   65X2IT   C11 2044   0.848   4.428   3.783
   65X2IT    O3 2045   0.771   4.455   3.898
   65X2IT   C15 2046   0.629   4.468   3.881
   66X2IT   H18 2047   2.183   1.997   3.180
   66X2IT    N4 2048   2.160   1.945   3.263
   66X2IT   H17 2049   2.067   1.906   3.268
   66X2IT   C14 2050   2.263   1.879   3.324
   66X2IT    O5 2051   2.381   1.900   3.304
   66X2IT    O4 2052   2.214   1.790   3.414
   66X2IT   C13 2053   2.312   1.717   3.492
   66X2IT   C10 2054   2.359   1.799   3.613
   66X2IT    C9 2055   2.457   1.724   3.701
   66X2IT    C4 2056   2.408   1.716   3.830
   66X2IT    C5 2057   2.480   1.647   3.942
   66X2IT    O1 2058   2.431   1.647   4.056
   66X2IT    C6 2059   2.606   1.584   3.909
   66X2IT   C12 2060   2.684   1.512   4.018
   66X2IT    C7 2061   2.655   1.594   3.780
   66X2IT    C8 2062   2.581   1.665   3.667
   66X2IT    O2 2063   2.633   1.664   3.554
   66X2IT    N3 2064   2.772   1.540   3.741
   66X2IT   H15 2065   2.832   1.488   3.802
   66X2IT   H16 2066   2.798   1.552   3.642
   66X2IT    N2 2067   2.292   1.783   3.845
   66X2IT    C3 2068   2.179   1.750   3.933
   66X2IT    C2 2069   2.064   1.733   3.834
   66X2IT    H2 2070   1.961   1.741   3.869
   66X2IT    N1 2071   2.098   1.639   3.725
   66X2IT   H14 2072   2.012   1.604   3.683
   66X2IT    C1 2073   2.106   1.785   3.701
   66X2IT    H1 2074   2.038   1.833   3.633
   66X2IT   C11 2075   2.247   1.841   3.715
   66X2IT    O3 2076   2.228   1.981   3.722
   66X2IT   C15 2077   2.336   2.059   3.774
   67X2IT   H18 2078   3.694   4.274   4.463
   67X2IT    N4 2079   3.689   4.374   4.460
   67X2IT   H17 2080   3.683   4.422   4.548
   67X2IT   C14 2081   3.753   4.434   4.355
   67X2IT    O5 2082   3.789   4.378   4.253
   67X2IT    O4 2083   3.766   4.568   4.379
   67X2IT   C13 2084   3.825   4.646   4.273
   67X2IT   C10 2085   3.722   4.685   4.167
   67X2IT    C9 2086   3.779   4.773   4.058
   67X2IT    C4 2087   3.709   4.892   4.051
   67X2IT    C5 2088   3.740   5.002   3.954
   67X2IT    O1 2089   3.670   5.104   3.953
   67X2IT    C6 2090   3.852   4.981   3.866
   67X2IT   C12 2091   3.890   5.088   3.766
   67X2IT    C7 2092   3.921   4.861   3.872
   67X2IT    C8 2093   3.888   4.749   3.971
   67X2IT    O2 2094   3.959   4.648   3.970
   67X2IT    N3 2095   4.026   4.831   3.793
   67X2IT   H15 2096   4.062   4.894   3.724
   67X2IT   H16 2097   4.071   4.740   3.807
   67X2IT    N2 2098   3.604   4.895   4.137
   67X2IT    C3 2099   3.548   5.011   4.209
   67X2IT    C2 2100   3.565   4.969   4.355
   67X2IT    H2 2101   3.505   5.017   4.432
   67X2IT    N1 2102   3.703   4.927   4.385
   67X2IT   H14 2103   3.719   4.934   4.486
   67X2IT    C1 2104   3.599   4.825   4.361
   67X2IT    H1 2105   3.566   4.760   4.441
   67X2IT   C11 2106   3.600   4.770   4.219
   67X2IT    O3 2107   3.476   4.703   4.208
   67X2IT   C15 2108   3.430   4.674   4.075
   68X2IT   H18 2109   1.087   0.266   3.627
   68X2IT    N4 2110   1.138   0.313   3.555
   68X2IT   H17 2111   1.221   0.364   3.584
   68X2IT   C14 2112   1.134   0.258   3.430
   68X2IT    O5 2113   1.053   0.175   3.393
   68X2IT    O4 2114   1.231   0.313   3.352
   68X2IT   C13 2115   1.234   0.269   3.214
   68X2IT   C10 2116   1.133   0.346   3.128
   68X2IT    C9 2117   1.138   0.308   2.982
   68X2IT    C4 2118   1.165   0.419   2.904
   68X2IT    C5 2119   1.178   0.415   2.754
   68X2IT    O1 2120   1.199   0.521   2.692
   68X2IT    C6 2121   1.164   0.286   2.692
   68X2IT   C12 2122   1.176   0.275   2.541
   68X2IT    C7 2123   1.136   0.175   2.769
   68X2IT    C8 2124   1.123   0.180   2.922
   68X2IT    O2 2125   1.102   0.074   2.982
   68X2IT    N3 2126   1.119   0.052   2.720
   68X2IT   H15 2127   1.127   0.030   2.622
   68X2IT   H16 2128   1.101  -0.023   2.787
   68X2IT    N2 2129   1.171   0.533   2.978
   68X2IT    C3 2130   1.255   0.651   2.955
   68X2IT    C2 2131   1.337   0.658   3.083
   68X2IT    H2 2132   1.385   0.751   3.112
   68X2IT    N1 2133   1.403   0.529   3.114
   68X2IT   H14 2134   1.482   0.546   3.177
   68X2IT    C1 2135   1.279   0.566   3.184
   68X2IT    H1 2136   1.279   0.586   3.290
   68X2IT   C11 2137   1.155   0.502   3.123
   68X2IT    O3 2138   1.047   0.575   3.180
   68X2IT   C15 2139   0.920   0.566   3.114
   69X2IT   H18 2140   0.905   2.885   1.382
   69X2IT    N4 2141   0.873   2.947   1.309
   69X2IT   H17 2142   0.811   2.909   1.240
   69X2IT   C14 2143   0.863   3.079   1.343
   69X2IT    O5 2144   0.913   3.131   1.441
   69X2IT    O4 2145   0.791   3.146   1.247
   69X2IT   C13 2146   0.777   3.288   1.266
   69X2IT   C10 2147   0.901   3.364   1.214
   69X2IT    C9 2148   0.887   3.514   1.225
   69X2IT    C4 2149   0.900   3.573   1.101
   69X2IT    C5 2150   0.891   3.721   1.076
   69X2IT    O1 2151   0.908   3.765   0.962
   69X2IT    C6 2152   0.864   3.803   1.191
   69X2IT   C12 2153   0.853   3.953   1.174
   69X2IT    C7 2154   0.852   3.745   1.316
   69X2IT    C8 2155   0.862   3.594   1.340
   69X2IT    O2 2156   0.845   3.552   1.455
   69X2IT    N3 2157   0.828   3.813   1.429
   69X2IT   H15 2158   0.817   3.913   1.431
   69X2IT   H16 2159   0.819   3.759   1.515
   69X2IT    N2 2160   0.930   3.482   1.004
   69X2IT    C3 2161   0.890   3.484   0.863
   69X2IT    C2 2162   0.811   3.354   0.850
   69X2IT    H2 2163   0.796   3.310   0.751
   69X2IT    N1 2164   0.706   3.342   0.953
   69X2IT   H14 2165   0.635   3.275   0.921
   69X2IT    C1 2166   0.834   3.271   0.970
   69X2IT    H1 2167   0.838   3.162   0.968
   69X2IT   C11 2168   0.932   3.344   1.061
   69X2IT    O3 2169   1.055   3.279   1.037
   69X2IT   C15 2170   1.174   3.348   1.077
   70X2IT   H18 2171   3.220   2.458   4.667
   70X2IT    N4 2172   3.319   2.462   4.684
   70X2IT   H17 2173   3.361   2.554   4.690
   70X2IT   C14 2174   3.372   2.359   4.758
   70X2IT    O5 2175   3.317   2.253   4.779
   70X2IT    O4 2176   3.498   2.392   4.799
   70X2IT   C13 2177   3.570   2.291   4.873
   70X2IT   C10 2178   3.637   2.190   4.778
   70X2IT    C9 2179   3.719   2.086   4.850
   70X2IT    C4 2180   3.850   2.089   4.808
   70X2IT    C5 2181   3.958   1.999   4.860
   70X2IT    O1 2182   4.073   2.007   4.813
   70X2IT    C6 2183   3.920   1.907   4.964
   70X2IT   C12 2184   4.024   1.813   5.022
   70X2IT    C7 2185   3.788   1.902   5.006
   70X2IT    C8 2186   3.679   1.994   4.951
   70X2IT    O2 2187   3.565   1.985   4.999
   70X2IT    N3 2188   3.743   1.818   5.101
   70X2IT   H15 2189   3.802   1.753   5.149
   70X2IT   H16 2190   3.644   1.825   5.125
   70X2IT    N2 2191   3.869   2.178   4.707
   70X2IT    C3 2192   3.988   2.260   4.678
   70X2IT    C2 2193   3.933   2.401   4.688
   70X2IT    H2 2194   3.987   2.483   4.641
   70X2IT    N1 2195   3.861   2.425   4.815
   70X2IT   H14 2196   3.857   2.526   4.833
   70X2IT    C1 2197   3.785   2.397   4.691
   70X2IT    H1 2198   3.723   2.473   4.646
   70X2IT   C11 2199   3.742   2.252   4.678
   70X2IT    O3 2200   3.703   2.239   4.542
   70X2IT   C15 2201   3.695   2.107   4.489
   71X2IT   H18 2202   3.431   4.539   1.345
   71X2IT    N4 2203   3.389   4.476   1.411
   71X2IT   H17 2204   3.320   4.412   1.376
   71X2IT   C14 2205   3.466   4.439   1.518
   71X2IT    O5 2206   3.568   4.495   1.554
   71X2IT    O4 2207   3.410   4.332   1.581
   71X2IT   C13 2208   3.477   4.285   1.699
   71X2IT   C10 2209   3.437   4.367   1.823
   71X2IT    C9 2210   3.500   4.317   1.951
   71X2IT    C4 2211   3.402   4.284   2.043
   71X2IT    C5 2212   3.431   4.231   2.180
   71X2IT    O1 2213   3.337   4.207   2.257
   71X2IT    C6 2214   3.570   4.210   2.214
   71X2IT   C12 2215   3.605   4.156   2.350
   71X2IT    C7 2216   3.667   4.244   2.122
   71X2IT    C8 2217   3.637   4.300   1.983
   71X2IT    O2 2218   3.733   4.322   1.907
   71X2IT    N3 2219   3.799   4.230   2.145
   71X2IT   H15 2220   3.836   4.193   2.231
   71X2IT   H16 2221   3.863   4.257   2.069
   71X2IT    N2 2222   3.278   4.314   1.998
   71X2IT    C3 2223   3.152   4.242   2.025
   71X2IT    C2 2224   3.107   4.201   1.886
   71X2IT    H2 2225   3.003   4.175   1.868
   71X2IT    N1 2226   3.214   4.130   1.812
   71X2IT   H14 2227   3.172   4.074   1.737
   71X2IT    C1 2228   3.188   4.272   1.784
   71X2IT    H1 2229   3.149   4.304   1.689
   71X2IT   C11 2230   3.283   4.366   1.858
   71X2IT    O3 2231   3.222   4.493   1.846
   71X2IT   C15 2232   3.266   4.595   1.937
   72X2IT   H18 2233   0.760   1.257   2.207
   72X2IT    N4 2234   0.792   1.163   2.197
   72X2IT   H17 2235   0.796   1.106   2.280
   72X2IT   C14 2236   0.767   1.102   2.077
   72X2IT    O5 2237   0.734   1.160   1.974
   72X2IT    O4 2238   0.787   0.968   2.087
   72X2IT   C13 2239   0.770   0.891   1.966
   72X2IT   C10 2240   0.897   0.895   1.879
   72X2IT    C9 2241   0.886   0.810   1.755
   72X2IT    C4 2242   0.986   0.714   1.753
   72X2IT    C5 2243   1.004   0.613   1.643
   72X2IT    O1 2244   1.098   0.534   1.648
   72X2IT    C6 2245   0.907   0.617   1.536
   72X2IT   C12 2246   0.918   0.517   1.423
   72X2IT    C7 2247   0.807   0.713   1.538
   72X2IT    C8 2248   0.791   0.816   1.650
   72X2IT    O2 2249   0.696   0.895   1.643
   72X2IT    N3 2250   0.714   0.725   1.442
   72X2IT   H15 2251   0.708   0.665   1.362
   72X2IT   H16 2252   0.644   0.799   1.454
   72X2IT    N2 2253   1.072   0.728   1.857
   72X2IT    C3 2254   1.144   0.621   1.929
   72X2IT    C2 2255   1.092   0.638   2.072
   72X2IT    H2 2256   1.149   0.597   2.155
   72X2IT    N1 2257   0.944   0.639   2.077
   72X2IT   H14 2258   0.913   0.616   2.172
   72X2IT    C1 2259   1.018   0.767   2.083
   72X2IT    H1 2260   1.018   0.827   2.173
   72X2IT   C11 2261   1.027   0.837   1.948
   72X2IT    O3 2262   1.128   0.935   1.967
   72X2IT   C15 2263   1.186   0.992   1.849
   73X2IT   H18 2264   2.955   3.257   4.555
   73X2IT    N4 2265   2.877   3.216   4.604
   73X2IT   H17 2266   2.888   3.120   4.636
   73X2IT   C14 2267   2.799   3.301   4.677
   73X2IT    O5 2268   2.798   3.422   4.666
   73X2IT    O4 2269   2.719   3.229   4.762
   73X2IT   C13 2270   2.626   3.306   4.841
   73X2IT   C10 2271   2.498   3.338   4.762
   73X2IT    C9 2272   2.395   3.413   4.844
   73X2IT    C4 2273   2.277   3.341   4.847
   73X2IT    C5 2274   2.154   3.387   4.921
   73X2IT    O1 2275   2.051   3.318   4.915
   73X2IT    C6 2276   2.164   3.511   4.993
   73X2IT   C12 2277   2.044   3.562   5.070
   73X2IT    C7 2278   2.282   3.583   4.989
   73X2IT    C8 2279   2.406   3.536   4.913
   73X2IT    O2 2280   2.509   3.606   4.919
   73X2IT    N3 2281   2.301   3.700   5.051
   73X2IT   H15 2282   2.230   3.744   5.107
   73X2IT   H16 2283   2.393   3.743   5.042
   73X2IT    N2 2284   2.282   3.229   4.770
   73X2IT    C3 2285   2.215   3.100   4.794
   73X2IT    C2 2286   2.333   3.004   4.803
   73X2IT    H2 2287   2.317   2.898   4.787
   73X2IT    N1 2288   2.435   3.049   4.900
   73X2IT   H14 2289   2.492   2.970   4.929
   73X2IT    C1 2290   2.456   3.073   4.756
   73X2IT    H1 2291   2.535   3.022   4.703
   73X2IT   C11 2292   2.417   3.213   4.711
   73X2IT    O3 2293   2.413   3.204   4.570
   73X2IT   C15 2294   2.343   3.307   4.500
   74X2IT   H18 2295   4.113   2.397   3.827
   74X2IT    N4 2296   4.022   2.417   3.790
   74X2IT   H17 2297   4.004   2.389   3.695
   74X2IT   C14 2298   3.919   2.418   3.880
   74X2IT    O5 2299   3.931   2.424   4.001
   74X2IT    O4 2300   3.799   2.414   3.814
   74X2IT   C13 2301   3.681   2.421   3.896
   74X2IT   C10 2302   3.646   2.566   3.933
   74X2IT    C9 2303   3.519   2.578   4.014
   74X2IT    C4 2304   3.428   2.660   3.948
   74X2IT    C5 2305   3.291   2.692   4.000
   74X2IT    O1 2306   3.218   2.770   3.936
   74X2IT    C6 2307   3.254   2.630   4.125
   74X2IT   C12 2308   3.117   2.658   4.183
   74X2IT    C7 2309   3.344   2.549   4.191
   74X2IT    C8 2310   3.484   2.518   4.137
   74X2IT    O2 2311   3.556   2.441   4.202
   74X2IT    N3 2312   3.319   2.489   4.308
   74X2IT   H15 2313   3.231   2.497   4.356
   74X2IT   H16 2314   3.393   2.430   4.347
   74X2IT    N2 2315   3.481   2.714   3.835
   74X2IT    C3 2316   3.411   2.747   3.710
   74X2IT    C2 2317   3.485   2.660   3.608
   74X2IT    H2 2318   3.480   2.685   3.502
   74X2IT    N1 2319   3.491   2.519   3.650
   74X2IT   H14 2320   3.508   2.460   3.568
   74X2IT    C1 2321   3.608   2.606   3.670
   74X2IT    H1 2322   3.700   2.590   3.614
   74X2IT   C11 2323   3.618   2.662   3.811
   74X2IT    O3 2324   3.713   2.767   3.800
   74X2IT   C15 2325   3.717   2.863   3.906
   75X2IT   H18 2326   2.854   0.298   5.130
   75X2IT    N4 2327   2.920   0.327   5.060
   75X2IT   H17 2328   3.017   0.333   5.087
   75X2IT   C14 2329   2.889   0.296   4.930
   75X2IT    O5 2330   2.779   0.262   4.890
   75X2IT    O4 2331   2.999   0.313   4.851
   75X2IT   C13 2332   2.980   0.290   4.710
   75X2IT   C10 2333   2.922   0.415   4.640
   75X2IT    C9 2334   2.907   0.397   4.491
   75X2IT    C4 2335   2.979   0.494   4.424
   75X2IT    C5 2336   2.986   0.505   4.274
   75X2IT    O1 2337   3.050   0.598   4.222
   75X2IT    C6 2338   2.915   0.404   4.199
   75X2IT   C12 2339   2.918   0.409   4.047
   75X2IT    C7 2340   2.842   0.308   4.266
   75X2IT    C8 2341   2.835   0.298   4.418
   75X2IT    O2 2342   2.770   0.205   4.468
   75X2IT    N3 2343   2.772   0.211   4.205
   75X2IT   H15 2344   2.767   0.202   4.105
   75X2IT   H16 2345   2.723   0.144   4.264
   75X2IT    N2 2346   3.036   0.583   4.509
   75X2IT    C3 2347   3.163   0.655   4.493
   75X2IT    C2 2348   3.242   0.608   4.614
   75X2IT    H2 2349   3.327   0.667   4.650
   75X2IT    N1 2350   3.245   0.461   4.626
   75X2IT   H14 2351   3.324   0.433   4.685
   75X2IT    C1 2352   3.150   0.539   4.709
   75X2IT    H1 2353   3.161   0.544   4.816
   75X2IT   C11 2354   3.010   0.545   4.650
   75X2IT    O3 2355   2.947   0.649   4.723
   75X2IT   C15 2356   2.828   0.705   4.666
   76X2IT   H18 2357   3.925   2.235   5.283
   76X2IT    N4 2358   3.998   2.276   5.227
   76X2IT   H17 2359   3.988   2.374   5.203
   76X2IT   C14 2360   4.123   2.223   5.242
   76X2IT    O5 2361   4.148   2.116   5.294
   76X2IT    O4 2362   4.215   2.306   5.185
   76X2IT   C13 2363   4.352   2.259   5.187
   76X2IT   C10 2364   4.381   2.163   5.071
   76X2IT    C9 2365   4.525   2.118   5.065
   76X2IT    C4 2366   4.581   2.151   4.943
   76X2IT    C5 2367   4.723   2.121   4.905
   76X2IT    O1 2368   4.764   2.151   4.792
   76X2IT    C6 2369   4.804   2.056   5.006
   76X2IT   C12 2370   4.948   2.023   4.974
   76X2IT    C7 2371   4.747   2.022   5.127
   76X2IT    C8 2372   4.602   2.052   5.164
   76X2IT    O2 2373   4.563   2.021   5.278
   76X2IT    N3 2374   4.814   1.960   5.226
   76X2IT   H15 2375   4.911   1.934   5.219
   76X2IT   H16 2376   4.763   1.941   5.312
   76X2IT    N2 2377   4.490   2.207   4.859
   76X2IT    C3 2378   4.513   2.310   4.757
   76X2IT    C2 2379   4.422   2.423   4.803
   76X2IT    H2 2380   4.391   2.500   4.733
   76X2IT    N1 2381   4.444   2.458   4.945
   76X2IT   H14 2382   4.409   2.552   4.963
   76X2IT    C1 2383   4.330   2.371   4.908
   76X2IT    H1 2384   4.228   2.406   4.919
   76X2IT   C11 2385   4.358   2.223   4.927
   76X2IT    O3 2386   4.254   2.159   4.855
   76X2IT   C15 2387   4.273   2.021   4.821
   77X2IT   H18 2388   3.126   4.450   4.580
   77X2IT    N4 2389   3.187   4.445   4.659
   77X2IT   H17 2390   3.237   4.528   4.685
   77X2IT   C14 2391   3.151   4.356   4.757
   77X2IT    O5 2392   3.069   4.266   4.745
   77X2IT    O4 2393   3.223   4.380   4.871
   77X2IT   C13 2394   3.201   4.290   4.981
   77X2IT   C10 2395   3.284   4.162   4.966
   77X2IT    C9 2396   3.269   4.067   5.083
   77X2IT    C4 2397   3.392   4.042   5.141
   77X2IT    C5 2398   3.412   3.953   5.260
   77X2IT    O1 2399   3.527   3.934   5.303
   77X2IT    C6 2400   3.294   3.894   5.317
   77X2IT   C12 2401   3.307   3.804   5.438
   77X2IT    C7 2402   3.171   3.918   5.259
   77X2IT    C8 2403   3.152   4.009   5.137
   77X2IT    O2 2404   3.036   4.027   5.095
   77X2IT    N3 2405   3.055   3.866   5.304
   77X2IT   H15 2406   3.049   3.806   5.384
   77X2IT   H16 2407   2.970   3.892   5.254
   77X2IT    N2 2408   3.493   4.101   5.073
   77X2IT    C3 2409   3.619   4.156   5.127
   77X2IT    C2 2410   3.611   4.303   5.085
   77X2IT    H2 2411   3.701   4.363   5.080
   77X2IT    N1 2412   3.483   4.366   5.126
   77X2IT   H14 2413   3.495   4.467   5.128
   77X2IT    C1 2414   3.501   4.320   4.986
   77X2IT    H1 2415   3.505   4.391   4.905
   77X2IT   C11 2416   3.440   4.183   4.960
   77X2IT    O3 2417   3.496   4.144   4.836
   77X2IT   C15 2418   3.490   4.005   4.802
   78X2IT   H18 2419   2.430   1.003   0.218
   78X2IT    N4 2420   2.356   1.058   0.255
   78X2IT   H17 2421   2.361   1.084   0.353
   78X2IT   C14 2422   2.293   1.142   0.168
   78X2IT    O5 2423   2.301   1.135   0.046
   78X2IT    O4 2424   2.216   1.232   0.236
   78X2IT   C13 2425   2.139   1.323   0.156
   78X2IT   C10 2426   2.006   1.259   0.110
   78X2IT    C9 2427   1.919   1.354   0.031
   78X2IT    C4 2428   1.796   1.368   0.093
   78X2IT    C5 2429   1.685   1.456   0.041
   78X2IT    O1 2430   1.577   1.459   0.101
   78X2IT    C6 2431   1.714   1.531  -0.079
   78X2IT   C12 2432   1.607   1.622  -0.136
   78X2IT    C7 2433   1.837   1.517  -0.141
   78X2IT    C8 2434   1.948   1.426  -0.087
   78X2IT    O2 2435   2.056   1.425  -0.149
   78X2IT    N3 2436   1.871   1.581  -0.253
   78X2IT   H15 2437   1.811   1.646  -0.300
   78X2IT   H16 2438   1.966   1.564  -0.289
   78X2IT    N2 2439   1.783   1.287   0.201
   78X2IT    C3 2440   1.708   1.312   0.325
   78X2IT    C2 2441   1.818   1.305   0.431
   78X2IT    H2 2442   1.791   1.287   0.535
   78X2IT    N1 2443   1.933   1.393   0.399
   78X2IT   H14 2444   1.985   1.412   0.484
   78X2IT    C1 2445   1.941   1.248   0.370
   78X2IT    H1 2446   2.010   1.185   0.425
   78X2IT   C11 2447   1.910   1.213   0.226
   78X2IT    O3 2448   1.890   1.073   0.228
   78X2IT   C15 2449   1.823   1.015   0.116
   79X2IT   H18 2450   0.120   2.242   2.312
   79X2IT    N4 2451   0.196   2.224   2.250
   79X2IT   H17 2452   0.289   2.221   2.291
   79X2IT   C14 2453   0.169   2.145   2.142
   79X2IT    O5 2454   0.057   2.120   2.099
   79X2IT    O4 2455   0.285   2.103   2.084
   79X2IT   C13 2456   0.272   2.025   1.964
   79X2IT   C10 2457   0.254   2.114   1.840
   79X2IT    C9 2458   0.247   2.036   1.711
   79X2IT    C4 2459   0.347   2.077   1.624
   79X2IT    C5 2460   0.368   2.019   1.488
   79X2IT    O1 2461   0.458   2.064   1.415
   79X2IT    C6 2462   0.279   1.912   1.448
   79X2IT   C12 2463   0.296   1.848   1.312
   79X2IT    C7 2464   0.179   1.872   1.534
   79X2IT    C8 2465   0.158   1.932   1.673
   79X2IT    O2 2466   0.067   1.885   1.744
   79X2IT    N3 2467   0.091   1.775   1.506
   79X2IT   H15 2468   0.091   1.723   1.420
   79X2IT   H16 2469   0.021   1.752   1.578
   79X2IT    N2 2470   0.418   2.181   1.674
   79X2IT    C3 2471   0.561   2.210   1.654
   79X2IT    C2 2472   0.615   2.208   1.797
   79X2IT    H2 2473   0.709   2.257   1.820
   79X2IT    N1 2474   0.578   2.083   1.868
   79X2IT   H14 2475   0.642   2.069   1.947
   79X2IT    C1 2476   0.501   2.207   1.892
   79X2IT    H1 2477   0.505   2.256   1.989
   79X2IT   C11 2478   0.372   2.215   1.812
   79X2IT    O3 2479   0.333   2.350   1.823
   79X2IT   C15 2480   0.237   2.398   1.727
   80X2IT   H18 2481   1.710   2.368   3.855
   80X2IT    N4 2482   1.768   2.445   3.827
   80X2IT   H17 2483   1.810   2.500   3.900
   80X2IT   C14 2484   1.833   2.431   3.708
   80X2IT    O5 2485   1.806   2.348   3.622
   80X2IT    O4 2486   1.930   2.526   3.696
   80X2IT   C13 2487   2.004   2.527   3.572
   80X2IT   C10 2488   1.928   2.605   3.463
   80X2IT    C9 2489   2.005   2.615   3.333
   80X2IT    C4 2490   2.024   2.747   3.299
   80X2IT    C5 2491   2.098   2.792   3.176
   80X2IT    O1 2492   2.107   2.913   3.151
   80X2IT    C6 2493   2.153   2.688   3.092
   80X2IT   C12 2494   2.229   2.727   2.967
   80X2IT    C7 2495   2.133   2.556   3.126
   80X2IT    C8 2496   2.057   2.511   3.251
   80X2IT    O2 2497   2.049   2.390   3.274
   80X2IT    N3 2498   2.179   2.452   3.054
   80X2IT   H15 2499   2.232   2.464   2.969
   80X2IT   H16 2500   2.159   2.358   3.089
   80X2IT    N2 2501   1.962   2.832   3.385
   80X2IT    C3 2502   2.006   2.966   3.427
   80X2IT    C2 2503   2.021   2.950   3.577
   80X2IT    H2 2504   2.019   3.038   3.642
   80X2IT    N1 2505   2.106   2.834   3.613
   80X2IT   H14 2506   2.142   2.846   3.708
   80X2IT    C1 2507   1.959   2.821   3.619
   80X2IT    H1 2508   1.909   2.808   3.714
   80X2IT   C11 2509   1.898   2.756   3.496
   80X2IT    O3 2510   1.760   2.784   3.507
   80X2IT   C15 2511   1.681   2.770   3.388
   81X2IT   H18 2512   3.089   1.931   3.603
   81X2IT    N4 2513   3.106   1.875   3.521
   81X2IT   H17 2514   3.163   1.793   3.533
   81X2IT   C14 2515   3.008   1.875   3.427
   81X2IT    O5 2516   2.917   1.957   3.420
   81X2IT    O4 2517   3.029   1.774   3.338
   81X2IT   C13 2518   2.936   1.766   3.227
   81X2IT   C10 2519   2.975   1.862   3.113
   81X2IT    C9 2520   2.884   1.851   2.993
   81X2IT    C4 2521   2.957   1.818   2.881
   81X2IT    C5 2522   2.898   1.799   2.744
   81X2IT    O1 2523   2.972   1.774   2.648
   81X2IT    C6 2524   2.754   1.814   2.734
   81X2IT   C12 2525   2.687   1.796   2.599
   81X2IT    C7 2526   2.681   1.848   2.846
   81X2IT    C8 2527   2.744   1.867   2.985
   81X2IT    O2 2528   2.668   1.893   3.080
   81X2IT    N3 2529   2.548   1.865   2.847
   81X2IT   H15 2530   2.491   1.854   2.765
   81X2IT   H16 2531   2.504   1.888   2.936
   81X2IT    N2 2532   3.091   1.813   2.906
   81X2IT    C3 2533   3.191   1.725   2.844
   81X2IT    C2 2534   3.245   1.649   2.965
   81X2IT    H2 2535   3.343   1.600   2.958
   81X2IT    N1 2536   3.137   1.587   3.045
   81X2IT   H14 2537   3.176   1.510   3.101
   81X2IT    C1 2538   3.198   1.714   3.090
   81X2IT    H1 2539   3.258   1.717   3.180
   81X2IT   C11 2540   3.117   1.836   3.051
   81X2IT    O3 2541   3.207   1.944   3.071
   81X2IT   C15 2542   3.174   2.069   3.008
   82X2IT   H18 2543   1.073   1.181  -0.003
   82X2IT    N4 2544   1.012   1.112   0.037
   82X2IT   H17 2545   1.009   1.021  -0.007
   82X2IT   C14 2546   0.991   1.121   0.172
   82X2IT    O5 2547   1.017   1.218   0.241
   82X2IT    O4 2548   0.933   1.006   0.218
   82X2IT   C13 2549   0.899   1.003   0.358
   82X2IT   C10 2550   0.764   1.071   0.384
   82X2IT    C9 2551   0.721   1.065   0.529
   82X2IT    C4 2552   0.599   1.001   0.540
   82X2IT    C5 2553   0.528   0.977   0.670
   82X2IT    O1 2554   0.417   0.923   0.670
   82X2IT    C6 2555   0.596   1.021   0.790
   82X2IT   C12 2556   0.531   1.000   0.924
   82X2IT    C7 2557   0.718   1.085   0.778
   82X2IT    C8 2558   0.789   1.110   0.645
   82X2IT    O2 2559   0.900   1.165   0.647
   82X2IT    N3 2560   0.788   1.132   0.883
   82X2IT   H15 2561   0.757   1.122   0.979
   82X2IT   H16 2562   0.878   1.176   0.864
   82X2IT    N2 2563   0.546   0.970   0.419
   82X2IT    C3 2564   0.462   0.854   0.383
   82X2IT    C2 2565   0.546   0.785   0.276
   82X2IT    H2 2566   0.499   0.716   0.207
   82X2IT    N1 2567   0.685   0.761   0.322
   82X2IT   H14 2568   0.727   0.686   0.265
   82X2IT    C1 2569   0.656   0.876   0.234
   82X2IT    H1 2570   0.694   0.879   0.133
   82X2IT   C11 2571   0.641   1.007   0.309
   82X2IT    O3 2572   0.581   1.094   0.215
   82X2IT   C15 2573   0.519   1.213   0.266
   83X2IT   H18 2574   3.477   5.061   0.809
   83X2IT    N4 2575   3.465   5.105   0.720
   83X2IT   H17 2576   3.431   5.200   0.719
   83X2IT   C14 2577   3.549   5.063   0.620
   83X2IT    O5 2578   3.616   4.962   0.622
   83X2IT    O4 2579   3.543   5.150   0.515
   83X2IT   C13 2580   3.621   5.116   0.399
   83X2IT   C10 2581   3.547   5.016   0.308
   83X2IT    C9 2582   3.623   4.982   0.182
   83X2IT    C4 2583   3.547   5.013   0.071
   83X2IT    C5 2584   3.593   4.993  -0.071
   83X2IT    O1 2585   3.517   5.020  -0.164
   83X2IT    C6 2586   3.726   4.940  -0.088
   83X2IT   C12 2587   3.779   4.918  -0.228
   83X2IT    C7 2588   3.802   4.908   0.023
   83X2IT    C8 2589   3.753   4.929   0.167
   83X2IT    O2 2590   3.831   4.901   0.259
   83X2IT    N3 2591   3.926   4.857   0.017
   83X2IT   H15 2592   3.974   4.839  -0.069
   83X2IT   H16 2593   3.973   4.839   0.106
   83X2IT    N2 2594   3.423   5.057   0.104
   83X2IT    C3 2595   3.340   5.156   0.034
   83X2IT    C2 2596   3.320   5.263   0.141
   83X2IT    H2 2597   3.237   5.333   0.132
   83X2IT    N1 2598   3.448   5.307   0.200
   83X2IT   H14 2599   3.436   5.399   0.243
   83X2IT    C1 2600   3.364   5.210   0.272
   83X2IT    H1 2601   3.317   5.237   0.366
   83X2IT   C11 2602   3.408   5.066   0.252
   83X2IT    O3 2603   3.299   4.990   0.300
   83X2IT   C15 2604   3.292   4.852   0.259
   84X2IT   H18 2605   2.669   2.034   4.385
   84X2IT    N4 2606   2.641   2.048   4.481
   84X2IT   H17 2607   2.695   2.114   4.535
   84X2IT   C14 2608   2.508   2.031   4.509
   84X2IT    O5 2609   2.428   1.975   4.436
   84X2IT    O4 2610   2.480   2.081   4.632
   84X2IT   C13 2611   2.344   2.065   4.678
   84X2IT   C10 2612   2.323   1.926   4.740
   84X2IT    C9 2613   2.183   1.906   4.796
   84X2IT    C4 2614   2.190   1.875   4.930
   84X2IT    C5 2615   2.069   1.850   5.016
   84X2IT    O1 2616   2.084   1.819   5.135
   84X2IT    C6 2617   1.940   1.864   4.953
   84X2IT   C12 2618   1.815   1.841   5.034
   84X2IT    C7 2619   1.934   1.895   4.818
   84X2IT    C8 2620   2.058   1.919   4.731
   84X2IT    O2 2621   2.041   1.950   4.612
   84X2IT    N3 2622   1.820   1.908   4.749
   84X2IT   H15 2623   1.729   1.897   4.792
   84X2IT   H16 2624   1.827   1.932   4.650
   84X2IT    N2 2625   2.318   1.861   4.974
   84X2IT    C3 2626   2.372   1.893   5.107
   84X2IT    C2 2627   2.478   1.998   5.074
   84X2IT    H2 2628   2.558   2.018   5.145
   84X2IT    N1 2629   2.424   2.108   4.991
   84X2IT   H14 2630   2.484   2.190   5.000
   84X2IT    C1 2631   2.501   2.000   4.927
   84X2IT    H1 2632   2.598   2.020   4.883
   84X2IT   C11 2633   2.414   1.892   4.864
   84X2IT    O3 2634   2.503   1.785   4.840
   84X2IT   C15 2635   2.445   1.656   4.818
   85X2IT   H18 2636   1.051   3.298   0.640
   85X2IT    N4 2637   1.125   3.365   0.644
   85X2IT   H17 2638   1.202   3.345   0.707
   85X2IT   C14 2639   1.149   3.437   0.530
   85X2IT    O5 2640   1.073   3.446   0.435
   85X2IT    O4 2641   1.270   3.500   0.540
   85X2IT   C13 2642   1.306   3.585   0.429
   85X2IT   C10 2643   1.242   3.724   0.441
   85X2IT    C9 2644   1.283   3.819   0.330
   85X2IT    C4 2645   1.343   3.932   0.384
   85X2IT    C5 2646   1.396   4.045   0.301
   85X2IT    O1 2647   1.445   4.144   0.357
   85X2IT    C6 2648   1.385   4.031   0.158
   85X2IT   C12 2649   1.438   4.141   0.068
   85X2IT    C7 2650   1.325   3.918   0.105
   85X2IT    C8 2651   1.270   3.804   0.190
   85X2IT    O2 2652   1.222   3.705   0.132
   85X2IT    N3 2653   1.309   3.897  -0.027
   85X2IT   H15 2654   1.341   3.961  -0.097
   85X2IT   H16 2655   1.264   3.809  -0.055
   85X2IT    N2 2656   1.341   3.932   0.519
   85X2IT    C3 2657   1.441   3.988   0.611
   85X2IT    C2 2658   1.484   3.865   0.691
   85X2IT    H2 2659   1.532   3.878   0.788
   85X2IT    N1 2660   1.524   3.753   0.603
   85X2IT   H14 2661   1.584   3.688   0.655
   85X2IT    C1 2662   1.390   3.753   0.664
   85X2IT    H1 2663   1.363   3.680   0.739
   85X2IT   C11 2664   1.281   3.805   0.571
   85X2IT    O3 2665   1.171   3.829   0.656
   85X2IT   C15 2666   1.067   3.914   0.606
   86X2IT   H18 2667   4.163   0.630   3.473
   86X2IT    N4 2668   4.245   0.605   3.421
   86X2IT   H17 2669   4.317   0.554   3.471
   86X2IT   C14 2670   4.228   0.583   3.288
   86X2IT    O5 2671   4.131   0.617   3.222
   86X2IT    O4 2672   4.339   0.521   3.236
   86X2IT   C13 2673   4.338   0.497   3.094
   86X2IT   C10 2674   4.383   0.621   3.016
   86X2IT    C9 2675   4.390   0.598   2.867
   86X2IT    C4 2676   4.518   0.624   2.820
   86X2IT    C5 2677   4.560   0.610   2.677
   86X2IT    O1 2678   4.676   0.639   2.644
   86X2IT    C6 2679   4.459   0.564   2.585
   86X2IT   C12 2680   4.494   0.547   2.438
   86X2IT    C7 2681   4.331   0.539   2.631
   86X2IT    C8 2682   4.290   0.555   2.777
   86X2IT    O2 2683   4.173   0.526   2.808
   86X2IT    N3 2684   4.230   0.498   2.552
   86X2IT   H15 2685   4.240   0.481   2.454
   86X2IT   H16 2686   4.140   0.481   2.598
   86X2IT    N2 2687   4.600   0.671   2.919
   86X2IT    C3 2688   4.744   0.649   2.934
   86X2IT    C2 2689   4.752   0.580   3.070
   86X2IT    H2 2690   4.846   0.579   3.125
   86X2IT    N1 2691   4.662   0.463   3.078
   86X2IT   H14 2692   4.693   0.400   3.153
   86X2IT    C1 2693   4.621   0.591   3.138
   86X2IT    H1 2694   4.611   0.601   3.246
   86X2IT   C11 2695   4.528   0.673   3.049
   86X2IT    O3 2696   4.529   0.802   3.108
   86X2IT   C15 2697   4.483   0.911   3.027
   87X2IT   H18 2698   3.620   3.588   1.952
   87X2IT    N4 2699   3.634   3.668   1.892
   87X2IT   H17 2700   3.676   3.750   1.934
   87X2IT   C14 2701   3.657   3.643   1.760
   87X2IT    O5 2702   3.635   3.537   1.704
   87X2IT    O4 2703   3.704   3.755   1.698
   87X2IT   C13 2704   3.727   3.745   1.556
   87X2IT   C10 2705   3.597   3.767   1.477
   87X2IT    C9 2706   3.617   3.764   1.327
   87X2IT    C4 2707   3.575   3.883   1.271
   87X2IT    C5 2708   3.582   3.913   1.124
   87X2IT    O1 2709   3.539   4.021   1.081
   87X2IT    C6 2710   3.640   3.811   1.040
   87X2IT   C12 2711   3.651   3.835   0.891
   87X2IT    C7 2712   3.681   3.692   1.096
   87X2IT    C8 2713   3.673   3.662   1.246
   87X2IT    O2 2714   3.717   3.553   1.286
   87X2IT    N3 2715   3.734   3.590   1.026
   87X2IT   H15 2716   3.749   3.594   0.927
   87X2IT   H16 2717   3.763   3.507   1.078
   87X2IT    N2 2718   3.519   3.966   1.362
   87X2IT    C3 2719   3.523   4.113   1.365
   87X2IT    C2 2720   3.592   4.141   1.498
   87X2IT    H2 2721   3.580   4.239   1.545
   87X2IT    N1 2722   3.719   4.067   1.512
   87X2IT   H14 2723   3.777   4.113   1.582
   87X2IT    C1 2724   3.597   4.016   1.578
   87X2IT    H1 2725   3.590   4.015   1.686
   87X2IT   C11 2726   3.527   3.907   1.499
   87X2IT    O3 2727   3.400   3.896   1.560
   87X2IT   C15 2728   3.297   3.830   1.485
   88X2IT   H18 2729   2.209   3.529   1.237
   88X2IT    N4 2730   2.237   3.612   1.188
   88X2IT   H17 2731   2.245   3.697   1.241
   88X2IT   C14 2732   2.320   3.593   1.080
   88X2IT    O5 2733   2.339   3.487   1.024
   88X2IT    O4 2734   2.375   3.712   1.043
   88X2IT   C13 2735   2.460   3.709   0.926
   88X2IT   C10 2736   2.378   3.717   0.797
   88X2IT    C9 2737   2.463   3.721   0.672
   88X2IT    C4 2738   2.437   3.835   0.599
   88X2IT    C5 2739   2.505   3.871   0.470
   88X2IT    O1 2740   2.472   3.974   0.410
   88X2IT    C6 2741   2.607   3.779   0.424
   88X2IT   C12 2742   2.680   3.809   0.295
   88X2IT    C7 2743   2.633   3.664   0.497
   88X2IT    C8 2744   2.562   3.629   0.627
   88X2IT    O2 2745   2.596   3.526   0.686
   88X2IT    N3 2746   2.724   3.572   0.461
   88X2IT   H15 2747   2.781   3.581   0.378
   88X2IT   H16 2748   2.736   3.492   0.523
   88X2IT    N2 2749   2.336   3.908   0.654
   88X2IT    C3 2750   2.319   4.054   0.653
   88X2IT    C2 2751   2.317   4.087   0.802
   88X2IT    H2 2752   2.274   4.181   0.836
   88X2IT    N1 2753   2.433   4.030   0.874
   88X2IT   H14 2754   2.448   4.080   0.961
   88X2IT    C1 2755   2.302   3.962   0.880
   88X2IT    H1 2756   2.247   3.956   0.973
   88X2IT   C11 2757   2.289   3.847   0.781
   88X2IT    O3 2758   2.150   3.819   0.779
   88X2IT   C15 2759   2.101   3.742   0.668
   89X2IT   H18 2760   1.091   2.272   3.337
   89X2IT    N4 2761   1.120   2.179   3.359
   89X2IT   H17 2762   1.194   2.139   3.304
   89X2IT   C14 2763   1.107   2.141   3.490
   89X2IT    O5 2764   1.039   2.199   3.573
   89X2IT    O4 2765   1.177   2.026   3.512
   89X2IT   C13 2766   1.167   1.970   3.645
   89X2IT   C10 2767   1.039   1.885   3.661
   89X2IT    C9 2768   1.028   1.819   3.797
   89X2IT    C4 2769   1.020   1.682   3.783
   89X2IT    C5 2770   1.009   1.587   3.898
   89X2IT    O1 2771   0.997   1.465   3.876
   89X2IT    C6 2772   1.011   1.645   4.030
   89X2IT   C12 2773   1.000   1.554   4.151
   89X2IT    C7 2774   1.018   1.782   4.044
   89X2IT    C8 2775   1.029   1.878   3.925
   89X2IT    O2 2776   1.040   2.000   3.950
   89X2IT    N3 2777   1.019   1.845   4.162
   89X2IT   H15 2778   1.015   1.797   4.250
   89X2IT   H16 2779   1.027   1.947   4.161
   89X2IT    N2 2780   1.014   1.644   3.652
   89X2IT    C3 2781   1.068   1.522   3.591
   89X2IT    C2 2782   1.167   1.577   3.489
   89X2IT    H2 2783   1.199   1.515   3.406
   89X2IT    N1 2784   1.262   1.674   3.550
   89X2IT   H14 2785   1.345   1.682   3.490
   89X2IT    C1 2786   1.145   1.723   3.474
   89X2IT    H1 2787   1.158   1.776   3.380
   89X2IT   C11 2788   1.028   1.763   3.563
   89X2IT    O3 2789   0.919   1.774   3.473
   89X2IT   C15 2790   0.787   1.772   3.529
   90X2IT   H18 2791   0.357   4.408   5.136
   90X2IT    N4 2792   0.329   4.487   5.081
   90X2IT   H17 2793   0.377   4.574   5.097
   90X2IT   C14 2794   0.282   4.460   4.956
   90X2IT    O5 2795   0.245   4.350   4.917
   90X2IT    O4 2796   0.277   4.574   4.882
   90X2IT   C13 2797   0.223   4.562   4.748
   90X2IT   C10 2798   0.069   4.568   4.750
   90X2IT    C9 2799   0.008   4.562   4.611
   90X2IT    C4 2800  -0.069   4.674   4.589
   90X2IT    C5 2801  -0.143   4.700   4.461
   90X2IT    O1 2802  -0.214   4.802   4.450
   90X2IT    C6 2803  -0.128   4.602   4.356
   90X2IT   C12 2804  -0.199   4.623   4.224
   90X2IT    C7 2805  -0.051   4.490   4.379
   90X2IT    C8 2806   0.024   4.464   4.510
   90X2IT    O2 2807   0.094   4.362   4.518
   90X2IT    N3 2808  -0.032   4.392   4.289
   90X2IT   H15 2809  -0.071   4.394   4.196
   90X2IT   H16 2810   0.029   4.314   4.316
   90X2IT    N2 2811  -0.078   4.754   4.698
   90X2IT    C3 2812  -0.089   4.900   4.703
   90X2IT    C2 2813   0.036   4.940   4.781
   90X2IT    H2 2814   0.041   5.037   4.830
   90X2IT    N1 2815   0.159   4.880   4.724
   90X2IT   H14 2816   0.240   4.934   4.754
   90X2IT    C1 2817   0.096   4.819   4.842
   90X2IT    H1 2818   0.146   4.820   4.938
   90X2IT   C11 2819   0.007   4.700   4.809
   90X2IT    O3 2820  -0.067   4.678   4.927
   90X2IT   C15 2821  -0.186   4.599   4.915
   91X2IT   H18 2822   1.967   4.450   4.352
   91X2IT    N4 2823   2.030   4.420   4.280
   91X2IT   H17 2824   2.068   4.327   4.287
   91X2IT   C14 2825   2.012   4.476   4.157
   91X2IT    O5 2826   1.945   4.576   4.134
   91X2IT    O4 2827   2.083   4.406   4.063
   91X2IT   C13 2828   2.078   4.458   3.929
   91X2IT   C10 2829   2.181   4.571   3.908
   91X2IT    C9 2830   2.184   4.623   3.766
   91X2IT    C4 2831   2.311   4.609   3.713
   91X2IT    C5 2832   2.348   4.651   3.574
   91X2IT    O1 2833   2.466   4.639   3.536
   91X2IT    C6 2834   2.243   4.704   3.492
   91X2IT   C12 2835   2.273   4.747   3.350
   91X2IT    C7 2836   2.116   4.718   3.545
   91X2IT    C8 2837   2.079   4.676   3.687
   91X2IT    O2 2838   1.961   4.689   3.723
   91X2IT    N3 2839   2.011   4.768   3.477
   91X2IT   H15 2840   2.017   4.799   3.381
   91X2IT   H16 2841   1.921   4.772   3.526
   91X2IT    N2 2842   2.400   4.562   3.805
   91X2IT    C3 2843   2.516   4.476   3.781
   91X2IT    C2 2844   2.484   4.354   3.867
   91X2IT    H2 2845   2.563   4.286   3.898
   91X2IT    N1 2846   2.349   4.300   3.838
   91X2IT   H14 2847   2.344   4.202   3.869
   91X2IT    C1 2848   2.370   4.386   3.957
   91X2IT    H1 2849   2.360   4.345   4.057
   91X2IT   C11 2850   2.331   4.531   3.933
   91X2IT    O3 2851   2.389   4.600   4.042
   91X2IT   C15 2852   2.403   4.742   4.030
   92X2IT   H18 2853   4.357   2.841   3.690
   92X2IT    N4 2854   4.347   2.884   3.600
   92X2IT   H17 2855   4.387   2.834   3.521
   92X2IT   C14 2856   4.236   2.961   3.580
   92X2IT    O5 2857   4.164   3.004   3.669
   92X2IT    O4 2858   4.219   2.986   3.447
   92X2IT   C13 2859   4.109   3.072   3.412
   92X2IT   C10 2860   4.147   3.221   3.426
   92X2IT    C9 2861   4.037   3.315   3.384
   92X2IT    C4 2862   4.081   3.398   3.282
   92X2IT    C5 2863   3.996   3.503   3.217
   92X2IT    O1 2864   4.045   3.575   3.129
   92X2IT    C6 2865   3.859   3.512   3.262
   92X2IT   C12 2866   3.768   3.616   3.200
   92X2IT    C7 2867   3.815   3.430   3.364
   92X2IT    C8 2868   3.903   3.324   3.431
   92X2IT    O2 2869   3.852   3.252   3.518
   92X2IT    N3 2870   3.691   3.433   3.414
   92X2IT   H15 2871   3.619   3.495   3.380
   92X2IT   H16 2872   3.669   3.366   3.488
   92X2IT    N2 2873   4.213   3.379   3.255
   92X2IT    C3 2874   4.281   3.392   3.125
   92X2IT    C2 2875   4.338   3.252   3.105
   92X2IT    H2 2876   4.420   3.237   3.035
   92X2IT    N1 2877   4.235   3.147   3.121
   92X2IT   H14 2878   4.266   3.061   3.074
   92X2IT    C1 2879   4.328   3.176   3.232
   92X2IT    H1 2880   4.401   3.103   3.263
   92X2IT   C11 2881   4.268   3.268   3.337
   92X2IT    O3 2882   4.380   3.310   3.414
   92X2IT   C15 2883   4.364   3.426   3.496
   93X2IT   H18 2884   3.270   3.047   4.288
   93X2IT    N4 2885   3.245   3.099   4.206
   93X2IT   H17 2886   3.271   3.196   4.203
   93X2IT   C14 2887   3.240   3.028   4.089
   93X2IT    O5 2888   3.235   2.907   4.080
   93X2IT    O4 2889   3.236   3.114   3.983
   93X2IT   C13 2890   3.224   3.054   3.852
   93X2IT   C10 2891   3.078   3.021   3.819
   93X2IT    C9 2892   3.060   2.964   3.680
   93X2IT    C4 2893   2.973   3.043   3.607
   93X2IT    C5 2894   2.934   3.015   3.464
   93X2IT    O1 2895   2.853   3.089   3.408
   93X2IT    C6 2896   2.995   2.900   3.403
   93X2IT   C12 2897   2.961   2.866   3.259
   93X2IT    C7 2898   3.081   2.820   3.476
   93X2IT    C8 2899   3.119   2.850   3.622
   93X2IT    O2 2900   3.201   2.774   3.677
   93X2IT    N3 2901   3.141   2.710   3.428
   93X2IT   H15 2902   3.129   2.678   3.334
   93X2IT   H16 2903   3.204   2.660   3.491
   93X2IT    N2 2904   2.921   3.144   3.681
   93X2IT    C3 2905   2.884   3.279   3.636
   93X2IT    C2 2906   2.973   3.368   3.721
   93X2IT    H2 2907   2.947   3.473   3.736
   93X2IT    N1 2908   3.116   3.328   3.714
   93X2IT   H14 2909   3.175   3.407   3.742
   93X2IT    C1 2910   3.034   3.286   3.830
   93X2IT    H1 2911   3.054   3.325   3.929
   93X2IT   C11 2912   2.980   3.145   3.818
   93X2IT    O3 2913   2.880   3.137   3.918
   93X2IT   C15 2914   2.785   3.031   3.908
   94X2IT   H18 2915   0.863   2.171   1.020
   94X2IT    N4 2916   0.830   2.128   0.935
   94X2IT   H17 2917   0.736   2.151   0.905
   94X2IT   C14 2918   0.925   2.098   0.841
   94X2IT    O5 2919   1.045   2.093   0.862
   94X2IT    O4 2920   0.865   2.070   0.722
   94X2IT   C13 2921   0.952   2.030   0.614
   94X2IT   C10 2922   0.986   1.880   0.622
   94X2IT    C9 2923   1.072   1.833   0.507
   94X2IT    C4 2924   1.008   1.731   0.438
   94X2IT    C5 2925   1.066   1.662   0.318
   94X2IT    O1 2926   1.004   1.569   0.265
   94X2IT    C6 2927   1.195   1.709   0.272
   94X2IT   C12 2928   1.259   1.645   0.151
   94X2IT    C7 2929   1.259   1.810   0.342
   94X2IT    C8 2930   1.199   1.879   0.465
   94X2IT    O2 2931   1.263   1.972   0.516
   94X2IT    N3 2932   1.379   1.860   0.308
   94X2IT   H15 2933   1.431   1.827   0.228
   94X2IT   H16 2934   1.416   1.936   0.365
   94X2IT    N2 2935   0.891   1.695   0.497
   94X2IT    C3 2936   0.769   1.647   0.432
   94X2IT    C2 2937   0.666   1.752   0.473
   94X2IT    H2 2938   0.560   1.729   0.469
   94X2IT    N1 2939   0.712   1.890   0.444
   94X2IT   H14 2940   0.632   1.953   0.440
   94X2IT    C1 2941   0.724   1.837   0.581
   94X2IT    H1 2942   0.664   1.878   0.662
   94X2IT   C11 2943   0.862   1.783   0.614
   94X2IT    O3 2944   0.843   1.708   0.733
   94X2IT   C15 2945   0.945   1.614   0.768
   95X2IT   H18 2946   1.458   1.034   1.534
   95X2IT    N4 2947   1.378   1.093   1.550
   95X2IT   H17 2948   1.307   1.094   1.478
   95X2IT   C14 2949   1.341   1.111   1.680
   95X2IT    O5 2950   1.410   1.086   1.778
   95X2IT    O4 2951   1.215   1.165   1.686
   95X2IT   C13 2952   1.165   1.196   1.818
   95X2IT   C10 2953   1.216   1.333   1.867
   95X2IT    C9 2954   1.160   1.372   2.001
   95X2IT    C4 2955   1.093   1.493   1.992
   95X2IT    C5 2956   1.025   1.560   2.108
   95X2IT    O1 2957   0.971   1.670   2.091
   95X2IT    C6 2958   1.029   1.491   2.234
   95X2IT   C12 2959   0.962   1.553   2.355
   95X2IT    C7 2960   1.097   1.371   2.244
   95X2IT    C8 2961   1.167   1.303   2.125
   95X2IT    O2 2962   1.221   1.193   2.144
   95X2IT    N3 2963   1.108   1.300   2.357
   95X2IT   H15 2964   1.066   1.328   2.444
   95X2IT   H16 2965   1.159   1.211   2.352
   95X2IT    N2 2966   1.103   1.547   1.868
   95X2IT    C3 2967   1.003   1.629   1.797
   95X2IT    C2 2968   0.976   1.545   1.672
   95X2IT    H2 2969   0.933   1.592   1.584
   95X2IT    N1 2970   0.942   1.405   1.705
   95X2IT   H14 2971   0.892   1.363   1.626
   95X2IT    C1 2972   1.079   1.438   1.661
   95X2IT    H1 2973   1.117   1.403   1.566
   95X2IT   C11 2974   1.177   1.455   1.776
   95X2IT    O3 2975   1.289   1.519   1.717
   95X2IT   C15 2976   1.382   1.583   1.805
   96X2IT   H18 2977   3.613   4.381   3.696
   96X2IT    N4 2978   3.641   4.324   3.774
   96X2IT   H17 2979   3.632   4.365   3.866
   96X2IT   C14 2980   3.627   4.189   3.759
   96X2IT    O5 2981   3.611   4.131   3.653
   96X2IT    O4 2982   3.638   4.127   3.881
   96X2IT   C13 2983   3.632   3.983   3.880
   96X2IT   C10 2984   3.769   3.921   3.846
   96X2IT    C9 2985   3.768   3.770   3.850
   96X2IT    C4 2986   3.862   3.725   3.941
   96X2IT    C5 2987   3.887   3.580   3.970
   96X2IT    O1 2988   3.976   3.548   4.050
   96X2IT    C6 2989   3.804   3.485   3.901
   96X2IT   C12 2990   3.823   3.336   3.926
   96X2IT    C7 2991   3.710   3.530   3.809
   96X2IT    C8 2992   3.687   3.678   3.779
   96X2IT    O2 2993   3.597   3.708   3.699
   96X2IT    N3 2994   3.630   3.449   3.738
   96X2IT   H15 2995   3.631   3.349   3.747
   96X2IT   H16 2996   3.563   3.494   3.675
   96X2IT    N2 2997   3.935   3.826   3.994
   96X2IT    C3 2998   3.992   3.835   4.130
   96X2IT    C2 2999   3.924   3.960   4.185
   96X2IT    H2 3000   3.968   4.013   4.269
   96X2IT    N1 3001   3.777   3.955   4.170
   96X2IT   H14 3002   3.734   4.020   4.237
   96X2IT    C1 3003   3.857   4.033   4.074
   96X2IT    H1 3004   3.850   4.141   4.070
   96X2IT   C11 3005   3.886   3.958   3.945
   96X2IT    O3 3006   3.989   4.033   3.883
   96X2IT   C15 3007   4.064   3.968   3.780
   97X2IT   H18 3008   1.016   3.415   3.662
   97X2IT    N4 3009   0.939   3.352   3.648
   97X2IT   H17 3010   0.879   3.369   3.569
   97X2IT   C14 3011   0.958   3.224   3.691
   97X2IT    O5 3012   1.046   3.187   3.767
   97X2IT    O4 3013   0.861   3.143   3.640
   97X2IT   C13 3014   0.864   3.005   3.682
   97X2IT   C10 3015   0.795   2.986   3.818
   97X2IT    C9 3016   0.790   2.842   3.863
   97X2IT    C4 3017   0.659   2.802   3.883
   97X2IT    C5 3018   0.619   2.664   3.927
   97X2IT    O1 3019   0.499   2.639   3.946
   97X2IT    C6 3020   0.725   2.569   3.945
   97X2IT   C12 3021   0.692   2.428   3.989
   97X2IT    C7 3022   0.856   2.609   3.926
   97X2IT    C8 3023   0.896   2.750   3.882
   97X2IT    O2 3024   1.017   2.773   3.863
   97X2IT    N3 3025   0.962   2.528   3.943
   97X2IT   H15 3026   0.954   2.431   3.969
   97X2IT   H16 3027   1.055   2.567   3.924
   97X2IT    N2 3028   0.572   2.905   3.866
   97X2IT    C3 3029   0.434   2.899   3.814
   97X2IT    C2 3030   0.442   2.989   3.692
   97X2IT    H2 3031   0.351   3.032   3.650
   97X2IT    N1 3032   0.553   2.952   3.601
   97X2IT   H14 3033   0.535   2.989   3.508
   97X2IT    C1 3034   0.569   3.065   3.695
   97X2IT    H1 3035   0.579   3.167   3.658
   97X2IT   C11 3036   0.643   3.028   3.822
   97X2IT    O3 3037   0.619   3.137   3.909
   97X2IT   C15 3038   0.642   3.115   4.049
   98X2IT   H18 3039   5.289   0.874   2.570
   98X2IT    N4 3040   5.208   0.824   2.539
   98X2IT   H17 3041   5.121   0.875   2.536
   98X2IT   C14 3042   5.230   0.723   2.450
   98X2IT    O5 3043   5.338   0.671   2.427
   98X2IT    O4 3044   5.111   0.685   2.394
   98X2IT   C13 3045   5.118   0.573   2.302
   98X2IT   C10 3046   5.115   0.439   2.376
   98X2IT    C9 3047   5.115   0.320   2.283
   98X2IT    C4 3048   5.003   0.241   2.306
   98X2IT    C5 3049   4.972   0.116   2.231
   98X2IT    O1 3050   4.871   0.049   2.261
   98X2IT    C6 3051   5.064   0.079   2.126
   98X2IT   C12 3052   5.038  -0.047   2.045
   98X2IT    C7 3053   5.176   0.157   2.103
   98X2IT    C8 3054   5.207   0.284   2.182
   98X2IT    O2 3055   5.308   0.349   2.150
   98X2IT    N3 3056   5.268   0.130   2.009
   98X2IT   H15 3057   5.262   0.051   1.947
   98X2IT   H16 3058   5.346   0.195   2.000
   98X2IT    N2 3059   4.930   0.287   2.411
   98X2IT    C3 3060   4.784   0.280   2.429
   98X2IT    C2 3061   4.746   0.427   2.440
   98X2IT    H2 3062   4.651   0.456   2.486
   98X2IT    N1 3063   4.800   0.508   2.328
   98X2IT   H14 3064   4.746   0.594   2.319
   98X2IT    C1 3065   4.869   0.509   2.459
   98X2IT    H1 3066   4.872   0.598   2.519
   98X2IT   C11 3067   4.987   0.413   2.465
   98X2IT    O3 3068   5.017   0.404   2.603
   98X2IT   C15 3069   5.097   0.293   2.645
   99X2IT   H18 3070   2.972   0.776   0.879
   99X2IT    N4 3071   3.002   0.860   0.834
   99X2IT   H17 3072   2.991   0.947   0.884
   99X2IT   C14 3073   3.106   0.848   0.746
   99X2IT    O5 3074   3.146   0.743   0.698
   99X2IT    O4 3075   3.156   0.971   0.715
   99X2IT   C13 3076   3.263   0.975   0.618
   99X2IT   C10 3077   3.207   0.972   0.474
   99X2IT    C9 3078   3.315   0.982   0.369
   99X2IT    C4 3079   3.293   1.092   0.288
   99X2IT    C5 3080   3.382   1.131   0.174
   99X2IT    O1 3081   3.352   1.229   0.104
   99X2IT    C6 3082   3.499   1.050   0.152
   99X2IT   C12 3083   3.594   1.084   0.039
   99X2IT    C7 3084   3.521   0.939   0.233
   99X2IT    C8 3085   3.429   0.900   0.348
   99X2IT    O2 3086   3.461   0.801   0.417
   99X2IT    N3 3087   3.626   0.857   0.219
   99X2IT   H15 3088   3.697   0.869   0.149
   99X2IT   H16 3089   3.633   0.779   0.285
   99X2IT    N2 3090   3.177   1.155   0.318
   99X2IT    C3 3091   3.147   1.299   0.309
   99X2IT    C2 3092   3.112   1.334   0.453
   99X2IT    H2 3093   3.054   1.423   0.475
   99X2IT    N1 3094   3.216   1.290   0.549
   99X2IT   H14 3095   3.208   1.343   0.635
   99X2IT    C1 3096   3.094   1.209   0.531
   99X2IT    H1 3097   3.022   1.199   0.612
   99X2IT   C11 3098   3.112   1.091   0.437
   99X2IT    O3 3099   2.980   1.049   0.408
   99X2IT   C15 3100   2.961   0.966   0.293
  100X2IT   H18 3101   1.900   2.893   1.187
  100X2IT    N4 3102   1.991   2.914   1.149
  100X2IT   H17 3103   2.046   2.984   1.197
  100X2IT   C14 3104   2.055   2.811   1.086
  100X2IT    O5 3105   2.001   2.708   1.048
  100X2IT    O4 3106   2.186   2.842   1.067
  100X2IT   C13 3107   2.265   2.745   0.995
  100X2IT   C10 3108   2.249   2.761   0.843
  100X2IT    C9 3109   2.335   2.666   0.764
  100X2IT    C4 3110   2.420   2.736   0.680
  100X2IT    C5 3111   2.519   2.672   0.588
  100X2IT    O1 3112   2.588   2.743   0.513
  100X2IT    C6 3113   2.527   2.528   0.592
  100X2IT   C12 3114   2.626   2.456   0.502
  100X2IT    C7 3115   2.442   2.457   0.675
  100X2IT    C8 3116   2.341   2.524   0.768
  100X2IT    O2 3117   2.272   2.451   0.842
  100X2IT    N3 3118   2.441   2.324   0.684
  100X2IT   H15 3119   2.502   2.264   0.632
  100X2IT   H16 3120   2.375   2.282   0.751
  100X2IT    N2 3121   2.397   2.870   0.684
  100X2IT    C3 3122   2.494   2.979   0.669
  100X2IT    C2 3123   2.482   3.052   0.802
  100X2IT    H2 3124   2.515   3.156   0.810
  100X2IT    N1 3125   2.496   2.961   0.918
  100X2IT   H14 3126   2.522   3.015   1.001
  100X2IT    C1 3127   2.362   3.004   0.874
  100X2IT    H1 3128   2.301   3.067   0.937
  100X2IT   C11 3129   2.292   2.902   0.786
  100X2IT    O3 3130   2.184   2.974   0.729
  100X2IT   C15 3131   2.122   2.918   0.613
  101X2IT   H18 3132   4.419   3.787   2.323
  101X2IT    N4 3133   4.360   3.723   2.275
  101X2IT   H17 3134   4.270   3.702   2.316
  101X2IT   C14 3135   4.372   3.720   2.138
  101X2IT    O5 3136   4.465   3.766   2.075
  101X2IT    O4 3137   4.266   3.653   2.084
  101X2IT   C13 3138   4.269   3.636   1.940
  101X2IT   C10 3139   4.355   3.515   1.900
  101X2IT    C9 3140   4.354   3.490   1.750
  101X2IT    C4 3141   4.308   3.362   1.724
  101X2IT    C5 3142   4.295   3.305   1.585
  101X2IT    O1 3143   4.256   3.189   1.571
  101X2IT    C6 3144   4.330   3.393   1.476
  101X2IT   C12 3145   4.318   3.342   1.334
  101X2IT    C7 3146   4.377   3.520   1.503
  101X2IT    C8 3147   4.391   3.577   1.644
  101X2IT    O2 3148   4.430   3.694   1.657
  101X2IT    N3 3149   4.413   3.608   1.408
  101X2IT   H15 3150   4.408   3.588   1.310
  101X2IT   H16 3151   4.445   3.700   1.439
  101X2IT    N2 3152   4.284   3.292   1.837
  101X2IT    C3 3153   4.181   3.189   1.860
  101X2IT    C2 3154   4.101   3.250   1.974
  101X2IT    H2 3155   4.038   3.185   2.037
  101X2IT    N1 3156   4.057   3.388   1.946
  101X2IT   H14 3157   3.978   3.412   2.005
  101X2IT    C1 3158   4.175   3.365   2.032
  101X2IT    H1 3159   4.173   3.390   2.137
  101X2IT   C11 3160   4.307   3.377   1.958
  101X2IT    O3 3161   4.402   3.319   2.046
  101X2IT   C15 3162   4.528   3.280   1.990
  102X2IT   H18 3163   4.171   2.890   2.760
  102X2IT    N4 3164   4.196   2.794   2.774
  102X2IT   H17 3165   4.294   2.772   2.785
  102X2IT   C14 3166   4.103   2.716   2.836
  102X2IT    O5 3167   3.985   2.745   2.851
  102X2IT    O4 3168   4.160   2.598   2.876
  102X2IT   C13 3169   4.071   2.503   2.938
  102X2IT   C10 3170   3.995   2.420   2.833
  102X2IT    C9 3171   3.907   2.313   2.894
  102X2IT    C4 3172   3.942   2.188   2.847
  102X2IT    C5 3173   3.875   2.061   2.889
  102X2IT    O1 3174   3.911   1.954   2.838
  102X2IT    C6 3175   3.769   2.073   2.986
  102X2IT   C12 3176   3.697   1.948   3.032
  102X2IT    C7 3177   3.732   2.198   3.032
  102X2IT    C8 3178   3.802   2.327   2.988
  102X2IT    O2 3179   3.764   2.433   3.040
  102X2IT    N3 3180   3.634   2.219   3.121
  102X2IT   H15 3181   3.580   2.144   3.161
  102X2IT   H16 3182   3.617   2.315   3.149
  102X2IT    N2 3183   4.040   2.195   2.753
  102X2IT    C3 3184   4.148   2.098   2.728
  102X2IT    C2 3185   4.273   2.182   2.751
  102X2IT    H2 3186   4.368   2.150   2.708
  102X2IT    N1 3187   4.271   2.252   2.881
  102X2IT   H14 3188   4.366   2.276   2.908
  102X2IT    C1 3189   4.236   2.325   2.758
  102X2IT    H1 3190   4.299   2.405   2.722
  102X2IT   C11 3191   4.086   2.336   2.735
  102X2IT    O3 3192   4.075   2.378   2.600
  102X2IT   C15 3193   3.948   2.360   2.537
  103X2IT   H18 3194   4.135   0.804   4.391
  103X2IT    N4 3195   4.170   0.855   4.470
  103X2IT   H17 3196   4.269   0.850   4.488
  103X2IT   C14 3197   4.102   0.969   4.504
  103X2IT    O5 3198   3.990   0.998   4.465
  103X2IT    O4 3199   4.176   1.043   4.592
  103X2IT   C13 3200   4.113   1.163   4.642
  103X2IT   C10 3201   4.020   1.133   4.760
  103X2IT    C9 3202   3.958   1.257   4.820
  103X2IT    C4 3203   3.990   1.267   4.954
  103X2IT    C5 3204   3.945   1.379   5.043
  103X2IT    O1 3205   3.976   1.377   5.163
  103X2IT    C6 3206   3.866   1.482   4.981
  103X2IT   C12 3207   3.818   1.599   5.066
  103X2IT    C7 3208   3.833   1.472   4.848
  103X2IT    C8 3209   3.879   1.357   4.758
  103X2IT    O2 3210   3.847   1.360   4.638
  103X2IT    N3 3211   3.759   1.562   4.782
  103X2IT   H15 3212   3.722   1.645   4.825
  103X2IT   H16 3213   3.741   1.545   4.683
  103X2IT    N2 3214   4.061   1.159   4.998
  103X2IT    C3 3215   4.166   1.155   5.101
  103X2IT    C2 3216   4.286   1.103   5.023
  103X2IT    H2 3217   4.369   1.058   5.076
  103X2IT    N1 3218   4.311   1.182   4.900
  103X2IT   H14 3219   4.408   1.168   4.870
  103X2IT    C1 3220   4.241   1.052   4.891
  103X2IT    H1 3221   4.287   0.967   4.842
  103X2IT   C11 3222   4.089   1.066   4.885
  103X2IT    O3 3223   4.042   0.935   4.911
  103X2IT   C15 3224   3.904   0.922   4.950
  104SOL     OW 3225   0.230   0.628   0.113
  104SOL    HW1 3226   0.137   0.626   0.150
  104SOL    HW2 3227   0.231   0.589   0.021
  105SOL     OW 3228   0.019   0.368   0.647
  105SOL    HW1 3229  -0.063   0.411   0.686
  105SOL    HW2 3230  -0.009   0.295   0.584
  106SOL     OW 3231   0.569   1.275   1.165
  106SOL    HW1 3232   0.476   1.268   1.128
  106SOL    HW2 3233   0.580   1.364   1.209
  107SOL     OW 3234   1.555   1.511   0.703
  107SOL    HW1 3235   1.498   1.495   0.784
  107SOL    HW2 3236   1.496   1.521   0.623
  108SOL     OW 3237   1.135   0.703   0.717
  108SOL    HW1 3238   1.192   0.781   0.692
  108SOL    HW2 3239   1.075   0.729   0.793
  109SOL     OW 3240   1.755   0.607   0.231
  109SOL    HW1 3241   1.743   0.594   0.132
  109SOL    HW2 3242   1.725   0.526   0.280
  110SOL     OW 3243   0.686   1.161   1.803
  110SOL    HW1 3244   0.746   1.240   1.817
  110SOL    HW2 3245   0.600   1.192   1.762
  111SOL     OW 3246   1.460   1.505   1.339
  111SOL    HW1 3247   1.484   1.599   1.365
  111SOL    HW2 3248   1.444   1.451   1.421
  112SOL     OW 3249   1.603   0.447   0.737
  112SOL    HW1 3250   1.529   0.493   0.687
  112SOL    HW2 3251   1.654   0.515   0.790
  113SOL     OW 3252   0.231   1.713   0.483
  113SOL    HW1 3253   0.265   1.790   0.537
  113SOL    HW2 3254   0.275   1.713   0.393
  114SOL     OW 3255   0.230   1.434   0.538
  114SOL    HW1 3256   0.204   1.530   0.538
  114SOL    HW2 3257   0.159   1.380   0.583
  115SOL     OW 3258   1.594   0.114   1.480
  115SOL    HW1 3259   1.576   0.181   1.408
  115SOL    HW2 3260   1.591   0.160   1.569
  116SOL     OW 3261   0.122   0.643   0.563
  116SOL    HW1 3262   0.077   0.555   0.580
  116SOL    HW2 3263   0.121   0.697   0.647
  117SOL     OW 3264   0.027   1.596   0.117
  117SOL    HW1 3265   0.008   1.500   0.138
  117SOL    HW2 3266  -0.006   1.654   0.192
  118SOL     OW 3267   1.689   0.922   0.612
  118SOL    HW1 3268   1.784   0.893   0.620
  118SOL    HW2 3269   1.681   0.987   0.537
  119SOL     OW 3270   1.641   1.108   0.432
  119SOL    HW1 3271   1.727   1.110   0.380
  119SOL    HW2 3272   1.655   1.155   0.520
  120SOL     OW 3273   0.113   0.737   1.597
  120SOL    HW1 3274   0.201   0.724   1.642
  120SOL    HW2 3275   0.100   0.834   1.575
  121SOL     OW 3276   0.613   1.365   0.726
  121SOL    HW1 3277   0.564   1.278   0.735
  121SOL    HW2 3278   0.590   1.408   0.639
  122SOL     OW 3279   0.809   0.004   0.502
  122SOL    HW1 3280   0.849   0.095   0.493
  122SOL    HW2 3281   0.709   0.012   0.508
  123SOL     OW 3282   1.525   0.999   0.190
  123SOL    HW1 3283   1.462   0.923   0.203
  123SOL    HW2 3284   1.573   1.017   0.276
  124SOL     OW 3285   0.317   0.251   1.801
  124SOL    HW1 3286   0.388   0.322   1.807
  124SOL    HW2 3287   0.229   0.290   1.829
  125SOL     OW 3288   1.466   1.417   0.953
  125SOL    HW1 3289   1.407   1.423   1.033
  125SOL    HW2 3290   1.451   1.329   0.907
  126SOL     OW 3291   1.281   0.345   0.944
  126SOL    HW1 3292   1.195   0.295   0.931
  126SOL    HW2 3293   1.343   0.291   1.000
  127SOL     OW 3294   1.576   1.662   0.307
  127SOL    HW1 3295   1.665   1.708   0.310
  127SOL    HW2 3296   1.555   1.638   0.212
  128SOL     OW 3297   1.394   0.469   1.674
  128SOL    HW1 3298   1.374   0.512   1.762
  128SOL    HW2 3299   1.472   0.407   1.683
  129SOL     OW 3300   0.973   0.890   1.572
  129SOL    HW1 3301   1.019   0.806   1.543
  129SOL    HW2 3302   0.917   0.924   1.497
  130SOL     OW 3303   1.041   0.701   0.429
  130SOL    HW1 3304   1.067   0.697   0.525
  130SOL    HW2 3305   0.956   0.650   0.415
  131SOL     OW 3306   1.719   0.585   1.831
  131SOL    HW1 3307   1.693   0.674   1.795
  131SOL    HW2 3308   1.717   0.517   1.758
  132SOL     OW 3309   1.362   1.144   0.545
  132SOL    HW1 3310   1.445   1.115   0.497
  132SOL    HW2 3311   1.313   1.211   0.489
  133SOL     OW 3312   1.008   1.456   0.477
  133SOL    HW1 3313   0.962   1.528   0.425
  133SOL    HW2 3314   1.004   1.476   0.575
  134SOL     OW 3315   0.351   1.801   0.853
  134SOL    HW1 3316   0.401   1.715   0.859
  134SOL    HW2 3317   0.416   1.878   0.850
  135SOL     OW 3318   1.795   1.066   0.873
  135SOL    HW1 3319   1.733   1.051   0.797
  135SOL    HW2 3320   1.743   1.077   0.958
  136SOL     OW 3321   0.321   0.943   0.242
  136SOL    HW1 3322   0.403   0.982   0.200
  136SOL    HW2 3323   0.294   0.861   0.193
  137SOL     OW 3324   1.458   0.735   0.728
  137SOL    HW1 3325   1.453   0.670   0.803
  137SOL    HW2 3326   1.538   0.794   0.741
  138SOL     OW 3327   0.461   1.266   1.727
  138SOL    HW1 3328   0.411   1.267   1.641
  138SOL    HW2 3329   0.398   1.248   1.803
  139SOL     OW 3330   1.400   0.107   0.426
  139SOL    HW1 3331   1.376   0.070   0.336
  139SOL    HW2 3332   1.499   0.123   0.430
  140SOL     OW 3333   0.382   0.700   0.480
  140SOL    HW1 3334   0.427   0.610   0.477
  140SOL    HW2 3335   0.288   0.689   0.513
  141SOL     OW 3336   1.547   0.222   1.729
  141SOL    HW1 3337   1.542   0.259   1.821
  141SOL    HW2 3338   1.475   0.153   1.717
  142SOL     OW 3339   0.614   0.122   0.117
  142SOL    HW1 3340   0.712   0.100   0.124
  142SOL    HW2 3341   0.583   0.105   0.024
  143SOL     OW 3342   0.781   0.264   1.749
  143SOL    HW1 3343   0.848   0.203   1.792
  143SOL    HW2 3344   0.708   0.283   1.814
  144SOL     OW 3345   1.351   0.590   1.433
  144SOL    HW1 3346   1.379   0.547   1.518
  144SOL    HW2 3347   1.376   0.686   1.434
  145SOL     OW 3348   0.803   1.402   0.924
  145SOL    HW1 3349   0.893   1.416   0.882
  145SOL    HW2 3350   0.732   1.404   0.853
  146SOL     OW 3351   1.434   1.188   0.041
  146SOL    HW1 3352   1.466   1.112   0.098
  146SOL    HW2 3353   1.342   1.215   0.071
  147SOL     OW 3354   0.297   0.035   0.171
  147SOL    HW1 3355   0.346   0.119   0.150
  147SOL    HW2 3356   0.359  -0.030   0.216
  148SOL     OW 3357   1.227   1.570   0.793
  148SOL    HW1 3358   1.248   1.644   0.728
  148SOL    HW2 3359   1.295   1.570   0.866
  149SOL     OW 3360   0.459   1.152   0.741
  149SOL    HW1 3361   0.388   1.125   0.806
  149SOL    HW2 3362   0.433   1.124   0.648
  150SOL     OW 3363   0.078   0.556   1.386
  150SOL    HW1 3364   0.170   0.555   1.345
  150SOL    HW2 3365   0.072   0.630   1.453
  151SOL     OW 3366   0.561   0.222   1.147
  151SOL    HW1 3367   0.599   0.138   1.184
  151SOL    HW2 3368   0.473   0.241   1.191
  152SOL     OW 3369   1.017   0.039   0.753
  152SOL    HW1 3370   0.945   0.044   0.684
  152SOL    HW2 3371   0.993  -0.030   0.822
  153SOL     OW 3372   1.429   1.173   0.867
  153SOL    HW1 3373   1.374   1.089   0.860
  153SOL    HW2 3374   1.455   1.202   0.775
  154SOL     OW 3375   1.466   0.590   0.992
  154SOL    HW1 3376   1.436   0.495   0.999
  154SOL    HW2 3377   1.539   0.606   1.058
  155SOL     OW 3378   1.857   0.833   0.377
  155SOL    HW1 3379   1.899   0.769   0.441
  155SOL    HW2 3380   1.819   0.782   0.299
  156SOL     OW 3381   0.488   1.385   0.174
  156SOL    HW1 3382   0.401   1.370   0.221
  156SOL    HW2 3383   0.471   1.411   0.079
  157SOL     OW 3384   1.664   1.280   0.657
  157SOL    HW1 3385   1.763   1.288   0.671
  157SOL    HW2 3386   1.619   1.364   0.688
  158SOL     OW 3387   1.390   0.575   0.078
  158SOL    HW1 3388   1.336   0.554   0.159
  158SOL    HW2 3389   1.481   0.534   0.087
  159SOL     OW 3390   1.754   1.223   1.588
  159SOL    HW1 3391   1.845   1.184   1.575
  159SOL    HW2 3392   1.762   1.319   1.612
  160SOL     OW 3393   1.064   1.347   1.340
  160SOL    HW1 3394   0.984   1.324   1.395
  160SOL    HW2 3395   1.147   1.321   1.389
  161SOL     OW 3396   1.592   1.629   1.625
  161SOL    HW1 3397   1.619   1.663   1.535
  161SOL    HW2 3398   1.671   1.591   1.671
  162SOL     OW 3399   1.111   1.195   1.100
  162SOL    HW1 3400   1.071   1.239   1.181
  162SOL    HW2 3401   1.070   1.232   1.017
  163SOL     OW 3402   1.638   1.099   1.079
  163SOL    HW1 3403   1.643   1.180   1.138
  163SOL    HW2 3404   1.552   1.101   1.028
  164SOL     OW 3405   0.915   0.089   1.402
  164SOL    HW1 3406   0.940   0.069   1.307
  164SOL    HW2 3407   0.987   0.145   1.444
  165SOL     OW 3408   0.980   1.116   1.719
  165SOL    HW1 3409   0.881   1.122   1.729
  165SOL    HW2 3410   1.003   1.036   1.663
  166SOL     OW 3411   0.410   0.813   1.251
  166SOL    HW1 3412   0.496   0.825   1.301
  166SOL    HW2 3413   0.368   0.726   1.278
  167SOL     OW 3414   1.274   0.386   1.262
  167SOL    HW1 3415   1.295   0.460   1.326
  167SOL    HW2 3416   1.185   0.403   1.219
  168SOL     OW 3417   0.064   1.564   1.331
  168SOL    HW1 3418   0.018   1.646   1.297
  168SOL    HW2 3419   0.162   1.583   1.340
  169SOL     OW 3420   0.566   0.537   0.865
  169SOL    HW1 3421   0.578   0.603   0.791
  169SOL    HW2 3422   0.612   0.571   0.948
  170SOL     OW 3423   1.252   1.348   0.388
  170SOL    HW1 3424   1.302   1.425   0.428
  170SOL    HW2 3425   1.157   1.350   0.420
  171SOL     OW 3426   1.272   1.445   1.142
  171SOL    HW1 3427   1.319   1.458   1.229
  171SOL    HW2 3428   1.206   1.371   1.151
  172SOL     OW 3429   1.582   0.639   0.472
  172SOL    HW1 3430   1.551   0.700   0.545
  172SOL    HW2 3431   1.632   0.691   0.403
  173SOL     OW 3432   0.354   1.510   1.329
  173SOL    HW1 3433   0.333   1.466   1.242
  173SOL    HW2 3434   0.451   1.536   1.332
  174SOL     OW 3435   1.587   0.779   1.670
  174SOL    HW1 3436   1.495   0.817   1.665
  174SOL    HW2 3437   1.647   0.826   1.605
  175SOL     OW 3438   1.013   0.105   1.770
  175SOL    HW1 3439   1.019   0.190   1.718
  175SOL    HW2 3440   1.045   0.029   1.713
  176SOL     OW 3441   0.504   0.050   1.740
  176SOL    HW1 3442   0.462  -0.007   1.670
  176SOL    HW2 3443   0.438   0.119   1.772
  177SOL     OW 3444   1.360   0.862   1.045
  177SOL    HW1 3445   1.285   0.862   0.979
  177SOL    HW2 3446   1.397   0.770   1.054
  178SOL     OW 3447   1.209   0.525   0.275
  178SOL    HW1 3448   1.222   0.441   0.329
  178SOL    HW2 3449   1.180   0.599   0.335
  179SOL     OW 3450   0.037   1.310   1.282
  179SOL    HW1 3451   0.090   1.261   1.350
  179SOL    HW2 3452   0.059   1.408   1.287
  180SOL     OW 3453   1.728   0.935   1.854
  180SOL    HW1 3454   1.682   0.928   1.765
  180SOL    HW2 3455   1.666   0.979   1.920
  181SOL     OW 3456   0.307   0.063   0.618
  181SOL    HW1 3457   0.296   0.157   0.651
  181SOL    HW2 3458   0.302   0.000   0.695
  182SOL     OW 3459   1.622   0.367   0.374
  182SOL    HW1 3460   1.624   0.291   0.438
  182SOL    HW2 3461   1.574   0.444   0.414
  183SOL     OW 3462   1.023   0.766   0.966
  183SOL    HW1 3463   1.038   0.787   1.062
  183SOL    HW2 3464   0.993   0.671   0.957
  184SOL     OW 3465   1.859   1.518   1.605
  184SOL    HW1 3466   1.873   1.545   1.510
  184SOL    HW2 3467   1.942   1.540   1.658
  185SOL     OW 3468   0.350   0.898   1.804
  185SOL    HW1 3469   0.426   0.942   1.852
  185SOL    HW2 3470   0.385   0.851   1.722
  186SOL     OW 3471   1.540   0.274   0.125
  186SOL    HW1 3472   1.479   0.199   0.148
  186SOL    HW2 3473   1.562   0.326   0.208
  187SOL     OW 3474   1.303   0.838   0.042
  187SOL    HW1 3475   1.337   0.745   0.057
  187SOL    HW2 3476   1.321   0.865  -0.053
  188SOL     OW 3477   1.068   1.333   0.849
  188SOL    HW1 3478   1.075   1.249   0.794
  188SOL    HW2 3479   1.130   1.402   0.813
  189SOL     OW 3480   0.319   0.810   0.949
  189SOL    HW1 3481   0.412   0.846   0.954
  189SOL    HW2 3482   0.313   0.725   1.001
  190SOL     OW 3483   0.339   0.509   1.006
  190SOL    HW1 3484   0.287   0.426   0.989
  190SOL    HW2 3485   0.416   0.514   0.942
  191SOL     OW 3486   1.160   0.207   1.477
  191SOL    HW1 3487   1.160   0.271   1.554
  191SOL    HW2 3488   1.188   0.255   1.394
  192SOL     OW 3489   0.008   1.326   0.200
  192SOL    HW1 3490  -0.085   1.347   0.169
  192SOL    HW2 3491   0.018   1.227   0.213
  193SOL     OW 3492   0.088   1.801   0.927
  193SOL    HW1 3493   0.046   1.715   0.900
  193SOL    HW2 3494   0.182   1.804   0.893
  194SOL     OW 3495   1.002   0.796   1.238
  194SOL    HW1 3496   1.043   0.764   1.324
  194SOL    HW2 3497   0.906   0.769   1.235
  195SOL     OW 3498   1.657   0.604   1.206
  195SOL    HW1 3499   1.619   0.535   1.268
  195SOL    HW2 3500   1.739   0.568   1.162
  196SOL     OW 3501   0.252   1.564   1.744
  196SOL    HW1 3502   0.222   1.621   1.820
  196SOL    HW2 3503   0.245   1.467   1.770
  197SOL     OW 3504   0.671   0.464   1.269
  197SOL    HW1 3505   0.637   0.375   1.239
  197SOL    HW2 3506   0.697   0.518   1.189
  198SOL     OW 3507   0.473   0.500   0.191
  198SOL    HW1 3508   0.534   0.580   0.195
  198SOL    HW2 3509   0.378   0.531   0.198
  199SOL     OW 3510   1.347   1.059   1.234
  199SOL    HW1 3511   1.371   0.996   1.160
  199SOL    HW2 3512   1.257   1.099   1.216
  200SOL     OW 3513   1.302   0.855   0.309
  200SOL    HW1 3514   1.216   0.824   0.351
  200SOL    HW2 3515   1.298   0.841   0.210
  201SOL     OW 3516   1.759   1.747   1.154
  201SOL    HW1 3517   1.820   1.777   1.081
  201SOL    HW2 3518   1.721   1.658   1.132
  202SOL     OW 3519   0.083   1.258   1.022
  202SOL    HW1 3520   0.078   1.257   1.122
  202SOL    HW2 3521   0.000   1.217   0.984
  203SOL     OW 3522   0.688   1.662   1.716
  203SOL    HW1 3523   0.632   1.743   1.725
  203SOL    HW2 3524   0.740   1.666   1.630
  204SOL     OW 3525   0.903   0.086   0.133
  204SOL    HW1 3526   0.954   0.087   0.047
  204SOL    HW2 3527   0.959   0.044   0.204
  205SOL     OW 3528   1.726   0.135   0.523
  205SOL    HW1 3529   1.799   0.118   0.456
  205SOL    HW2 3530   1.695   0.048   0.561
  206SOL     OW 3531   1.388   1.573   0.477
  206SOL    HW1 3532   1.455   1.585   0.403
  206SOL    HW2 3533   1.348   1.662   0.500
  207SOL     OW 3534   1.280   0.927   0.672
  207SOL    HW1 3535   1.340   0.846   0.674
  207SOL    HW2 3536   1.320   0.996   0.612
  208SOL     OW 3537   0.830   1.273   1.422
  208SOL    HW1 3538   0.825   1.306   1.517
  208SOL    HW2 3539   0.744   1.292   1.376
  209SOL     OW 3540   0.672   1.616   0.154
  209SOL    HW1 3541   0.681   1.626   0.055
  209SOL    HW2 3542   0.632   1.527   0.175
  210SOL     OW 3543   1.650   1.720   1.394
  210SOL    HW1 3544   1.703   1.730   1.310
  210SOL    HW2 3545   1.623   1.810   1.428
  211SOL     OW 3546   1.841   0.175   0.963
  211SOL    HW1 3547   1.880   0.090   0.927
  211SOL    HW2 3548   1.743   0.177   0.944
  212SOL     OW 3549   0.822   1.002   1.372
  212SOL    HW1 3550   0.862   1.001   1.280
  212SOL    HW2 3551   0.832   1.094   1.412
  213SOL     OW 3552   1.614   1.292   1.289
  213SOL    HW1 3553   1.674   1.295   1.369
  213SOL    HW2 3554   1.539   1.356   1.302
  214SOL     OW 3555   1.014   0.236   0.971
  214SOL    HW1 3556   1.006   0.200   0.878
  214SOL    HW2 3557   1.012   0.160   1.036
  215SOL     OW 3558   0.590   1.487   0.491
  215SOL    HW1 3559   0.632   1.429   0.421
  215SOL    HW2 3560   0.546   1.566   0.447
  216SOL     OW 3561   1.709   0.385   1.381
  216SOL    HW1 3562   1.782   0.454   1.385
  216SOL    HW2 3563   1.737   0.310   1.322
  217SOL     OW 3564   0.255   1.348   0.290
  217SOL    HW1 3565   0.159   1.349   0.263
  217SOL    HW2 3566   0.267   1.401   0.374
  218SOL     OW 3567   0.105   1.013   1.726
  218SOL    HW1 3568   0.028   0.980   1.780
  218SOL    HW2 3569   0.190   0.983   1.768
  219SOL     OW 3570   0.672   0.203   1.489
  219SOL    HW1 3571   0.762   0.187   1.449
  219SOL    HW2 3572   0.680   0.208   1.588
  220SOL     OW 3573   0.075   0.345   0.033
  220SOL    HW1 3574  -0.017   0.317   0.004
  220SOL    HW2 3575   0.106   0.422  -0.023
  221SOL     OW 3576   1.440   0.856   1.398
  221SOL    HW1 3577   1.383   0.908   1.335
  221SOL    HW2 3578   1.536   0.868   1.374
  222SOL     OW 3579   0.072   0.166   0.318
  222SOL    HW1 3580   0.055   0.249   0.264
  222SOL    HW2 3581   0.162   0.129   0.296
  223SOL     OW 3582   1.183   1.335   0.119
  223SOL    HW1 3583   1.084   1.324   0.121
  223SOL    HW2 3584   1.217   1.350   0.212
  224SOL     OW 3585   1.493   1.767   0.959
  224SOL    HW1 3586   1.526   1.831   0.890
  224SOL    HW2 3587   1.559   1.761   1.034
  225SOL     OW 3588   0.716   0.565   1.708
  225SOL    HW1 3589   0.735   0.630   1.782
  225SOL    HW2 3590   0.776   0.485   1.717
  226SOL     OW 3591   1.674   0.883   1.254
  226SOL    HW1 3592   1.647   0.794   1.217
  226SOL    HW2 3593   1.675   0.951   1.181
  227SOL     OW 3594   1.225   0.325   0.449
  227SOL    HW1 3595   1.290   0.251   0.438
  227SOL    HW2 3596   1.245   0.375   0.533
  228SOL     OW 3597   0.594   0.745   0.652
  228SOL    HW1 3598   0.644   0.830   0.633
  228SOL    HW2 3599   0.506   0.747   0.604
  229SOL     OW 3600   1.777   0.342   1.642
  229SOL    HW1 3601   1.760   0.373   1.548
  229SOL    HW2 3602   1.693   0.305   1.680
  230SOL     OW 3603   1.730   0.934   1.517
  230SOL    HW1 3604   1.768   1.025   1.532
  230SOL    HW2 3605   1.722   0.917   1.418
  231SOL     OW 3606   0.859   1.374   0.016
  231SOL    HW1 3607   0.813   1.389   0.104
  231SOL    HW2 3608   0.903   1.459  -0.014
  232SOL     OW 3609   0.221   1.314   1.844
  232SOL    HW1 3610   0.156   1.241   1.823
  232SOL    HW2 3611   0.225   1.328   1.942
  233SOL     OW 3612   0.672   1.391   1.624
  233SOL    HW1 3613   0.594   1.341   1.662
  233SOL    HW2 3614   0.669   1.486   1.655
  234SOL     OW 3615   1.824   0.192   1.227
  234SOL    HW1 3616   1.820   0.102   1.271
  234SOL    HW2 3617   1.827   0.181   1.128
  235SOL     OW 3618   1.705   1.487   1.104
  235SOL    HW1 3619   1.612   1.462   1.077
  235SOL    HW2 3620   1.731   1.437   1.186
  236SOL     OW 3621   0.317   0.547   1.280
  236SOL    HW1 3622   0.355   0.488   1.352
  236SOL    HW2 3623   0.357   0.521   1.192
  237SOL     OW 3624   1.424   0.214   1.112
  237SOL    HW1 3625   1.476   0.149   1.167
  237SOL    HW2 3626   1.375   0.277   1.173
  238SOL     OW 3627   0.770   1.330   0.301
  238SOL    HW1 3628   0.724   1.243   0.318
  238SOL    HW2 3629   0.861   1.327   0.342
  239SOL     OW 3630   1.352   0.052   0.168
  239SOL    HW1 3631   1.387   0.011   0.084
  239SOL    HW2 3632   1.262   0.014   0.188
  240SOL     OW 3633   1.300   0.453   0.691
  240SOL    HW1 3634   1.241   0.533   0.695
  240SOL    HW2 3635   1.315   0.418   0.784
  241SOL     OW 3636   1.593   0.221   0.882
  241SOL    HW1 3637   1.509   0.220   0.936
  241SOL    HW2 3638   1.595   0.304   0.826
  242SOL     OW 3639   0.230   0.628   1.975
  242SOL    HW1 3640   0.137   0.626   2.012
  242SOL    HW2 3641   0.231   0.589   1.883
  243SOL     OW 3642   0.225   0.275   2.858
  243SOL    HW1 3643   0.260   0.258   2.950
  243SOL    HW2 3644   0.137   0.230   2.846
  244SOL     OW 3645   0.569   1.275   3.027
  244SOL    HW1 3646   0.476   1.268   2.990
  244SOL    HW2 3647   0.580   1.364   3.071
  245SOL     OW 3648   1.135   0.703   2.579
  245SOL    HW1 3649   1.192   0.781   2.554
  245SOL    HW2 3650   1.075   0.729   2.655
  246SOL     OW 3651   1.755   0.607   2.093
  246SOL    HW1 3652   1.743   0.594   1.994
  246SOL    HW2 3653   1.725   0.526   2.142
  247SOL     OW 3654   0.768   1.144   2.885
  247SOL    HW1 3655   0.690   1.161   2.945
  247SOL    HW2 3656   0.802   1.231   2.849
  248SOL     OW 3657   0.850   0.798   3.685
  248SOL    HW1 3658   0.846   0.874   3.750
  248SOL    HW2 3659   0.872   0.834   3.594
  249SOL     OW 3660   0.685   1.012   2.527
  249SOL    HW1 3661   0.754   0.996   2.597
  249SOL    HW2 3662   0.612   1.069   2.565
  250SOL     OW 3663   0.438   0.392   3.361
  250SOL    HW1 3664   0.520   0.336   3.370
  250SOL    HW2 3665   0.357   0.334   3.365
  251SOL     OW 3666   1.603   0.447   2.599
  251SOL    HW1 3667   1.529   0.493   2.549
  251SOL    HW2 3668   1.654   0.515   2.652
  252SOL     OW 3669   0.231   1.713   2.345
  252SOL    HW1 3670   0.265   1.790   2.399
  252SOL    HW2 3671   0.275   1.713   2.255
  253SOL     OW 3672   1.127   1.341   3.552
  253SOL    HW1 3673   1.174   1.341   3.640
  253SOL    HW2 3674   1.079   1.254   3.541
  254SOL     OW 3675   0.240   1.091   2.748
  254SOL    HW1 3676   0.254   1.007   2.800
  254SOL    HW2 3677   0.185   1.155   2.803
  255SOL     OW 3678   0.620   1.786   3.301
  255SOL    HW1 3679   0.528   1.769   3.336
  255SOL    HW2 3680   0.648   1.878   3.327
  256SOL     OW 3681   1.594   0.114   3.342
  256SOL    HW1 3682   1.576   0.181   3.270
  256SOL    HW2 3683   1.591   0.160   3.431
  257SOL     OW 3684   1.842   1.767   2.221
  257SOL    HW1 3685   1.896   1.738   2.301
  257SOL    HW2 3686   1.872   1.857   2.192
  258SOL     OW 3687   1.689   0.922   2.474
  258SOL    HW1 3688   1.784   0.893   2.482
  258SOL    HW2 3689   1.681   0.987   2.399
  259SOL     OW 3690   1.641   1.108   2.294
  259SOL    HW1 3691   1.727   1.110   2.242
  259SOL    HW2 3692   1.655   1.155   2.382
  260SOL     OW 3693   0.613   1.365   2.588
  260SOL    HW1 3694   0.564   1.278   2.597
  260SOL    HW2 3695   0.590   1.408   2.501
  261SOL     OW 3696   0.809   0.004   2.364
  261SOL    HW1 3697   0.849   0.095   2.355
  261SOL    HW2 3698   0.709   0.012   2.370
  262SOL     OW 3699   1.525   0.999   2.052
  262SOL    HW1 3700   1.462   0.923   2.065
  262SOL    HW2 3701   1.573   1.017   2.138
  263SOL     OW 3702   0.317   0.251   3.663
  263SOL    HW1 3703   0.388   0.322   3.669
  263SOL    HW2 3704   0.229   0.290   3.691
  264SOL     OW 3705   1.667   1.714   2.434
  264SOL    HW1 3706   1.626   1.691   2.346
  264SOL    HW2 3707   1.649   1.640   2.499
  265SOL     OW 3708   0.598   0.729   2.132
  265SOL    HW1 3709   0.622   0.798   2.064
  265SOL    HW2 3710   0.520   0.762   2.186
  266SOL     OW 3711   1.576   1.662   2.169
  266SOL    HW1 3712   1.665   1.708   2.172
  266SOL    HW2 3713   1.555   1.638   2.074
  267SOL     OW 3714   0.807   0.605   3.327
  267SOL    HW1 3715   0.760   0.602   3.416
  267SOL    HW2 3716   0.756   0.550   3.261
  268SOL     OW 3717   0.973   0.890   3.434
  268SOL    HW1 3718   1.019   0.806   3.405
  268SOL    HW2 3719   0.917   0.924   3.359
  269SOL     OW 3720   0.865   0.348   2.057
  269SOL    HW1 3721   0.924   0.411   2.008
  269SOL    HW2 3722   0.884   0.254   2.028
  270SOL     OW 3723   1.362   1.144   2.407
  270SOL    HW1 3724   1.445   1.115   2.359
  270SOL    HW2 3725   1.313   1.211   2.351
  271SOL     OW 3726   0.550   0.196   2.747
  271SOL    HW1 3727   0.545   0.191   2.847
  271SOL    HW2 3728   0.552   0.292   2.718
  272SOL     OW 3729   1.795   1.066   2.735
  272SOL    HW1 3730   1.733   1.051   2.659
  272SOL    HW2 3731   1.743   1.077   2.820
  273SOL     OW 3732   0.321   0.943   2.104
  273SOL    HW1 3733   0.403   0.982   2.062
  273SOL    HW2 3734   0.294   0.861   2.055
  274SOL     OW 3735   1.458   0.735   2.590
  274SOL    HW1 3736   1.453   0.670   2.665
  274SOL    HW2 3737   1.538   0.794   2.603
  275SOL     OW 3738   1.632   1.377   1.943
  275SOL    HW1 3739   1.600   1.471   1.933
  275SOL    HW2 3740   1.556   1.314   1.931
  276SOL     OW 3741   0.464   1.743   2.185
  276SOL    HW1 3742   0.497   1.782   2.271
  276SOL    HW2 3743   0.540   1.736   2.120
  277SOL     OW 3744   1.400   0.107   2.288
  277SOL    HW1 3745   1.376   0.070   2.198
  277SOL    HW2 3746   1.499   0.123   2.292
  278SOL     OW 3747   0.940   1.698   2.766
  278SOL    HW1 3748   1.020   1.641   2.787
  278SOL    HW2 3749   0.891   1.658   2.689
  279SOL     OW 3750   1.547   0.222   3.591
  279SOL    HW1 3751   1.542   0.259   3.683
  279SOL    HW2 3752   1.475   0.153   3.579
  280SOL     OW 3753   0.614   0.122   1.979
  280SOL    HW1 3754   0.712   0.100   1.986
  280SOL    HW2 3755   0.583   0.105   1.886
  281SOL     OW 3756   0.781   0.264   3.611
  281SOL    HW1 3757   0.848   0.203   3.654
  281SOL    HW2 3758   0.708   0.283   3.676
  282SOL     OW 3759   0.888   1.514   3.057
  282SOL    HW1 3760   0.865   1.489   2.963
  282SOL    HW2 3761   0.949   1.445   3.096
  283SOL     OW 3762   0.803   1.402   2.786
  283SOL    HW1 3763   0.893   1.416   2.744
  283SOL    HW2 3764   0.732   1.404   2.715
  284SOL     OW 3765   0.922   0.503   2.761
  284SOL    HW1 3766   0.897   0.494   2.665
  284SOL    HW2 3767   0.970   0.421   2.792
  285SOL     OW 3768   0.539   0.064   2.374
  285SOL    HW1 3769   0.458   0.065   2.432
  285SOL    HW2 3770   0.542   0.147   2.319
  286SOL     OW 3771   0.935   0.236   2.342
  286SOL    HW1 3772   0.887   0.277   2.264
  286SOL    HW2 3773   1.034   0.234   2.323
  287SOL     OW 3774   0.459   1.152   2.603
  287SOL    HW1 3775   0.388   1.125   2.668
  287SOL    HW2 3776   0.433   1.124   2.510
  288SOL     OW 3777   1.271   1.797   2.453
  288SOL    HW1 3778   1.315   1.861   2.389
  288SOL    HW2 3779   1.221   1.849   2.523
  289SOL     OW 3780   0.561   0.222   3.009
  289SOL    HW1 3781   0.599   0.138   3.046
  289SOL    HW2 3782   0.473   0.241   3.053
  290SOL     OW 3783   0.866   0.454   2.504
  290SOL    HW1 3784   0.834   0.526   2.442
  290SOL    HW2 3785   0.890   0.373   2.451
  291SOL     OW 3786   1.429   1.173   2.729
  291SOL    HW1 3787   1.374   1.089   2.722
  291SOL    HW2 3788   1.455   1.202   2.637
  292SOL     OW 3789   1.466   0.590   2.854
  292SOL    HW1 3790   1.436   0.495   2.861
  292SOL    HW2 3791   1.539   0.606   2.920
  293SOL     OW 3792   1.857   0.833   2.239
  293SOL    HW1 3793   1.899   0.769   2.303
  293SOL    HW2 3794   1.819   0.782   2.161
  294SOL     OW 3795   0.488   1.385   2.036
  294SOL    HW1 3796   0.401   1.370   2.083
  294SOL    HW2 3797   0.471   1.411   1.941
  295SOL     OW 3798   1.390   0.575   1.940
  295SOL    HW1 3799   1.336   0.554   2.021
  295SOL    HW2 3800   1.481   0.534   1.949
  296SOL     OW 3801   0.527   0.256   2.190
  296SOL    HW1 3802   0.554   0.197   2.115
  296SOL    HW2 3803   0.527   0.351   2.159
  297SOL     OW 3804   1.064   1.347   3.202
  297SOL    HW1 3805   0.984   1.324   3.257
  297SOL    HW2 3806   1.147   1.321   3.251
  298SOL     OW 3807   1.592   1.629   3.487
  298SOL    HW1 3808   1.619   1.663   3.397
  298SOL    HW2 3809   1.671   1.591   3.533
  299SOL     OW 3810   1.111   1.195   2.962
  299SOL    HW1 3811   1.071   1.239   3.043
  299SOL    HW2 3812   1.070   1.232   2.879
  300SOL     OW 3813   1.638   1.099   2.941
  300SOL    HW1 3814   1.643   1.180   3.000
  300SOL    HW2 3815   1.552   1.101   2.890
  301SOL     OW 3816   0.980   1.116   3.581
  301SOL    HW1 3817   0.881   1.122   3.591
  301SOL    HW2 3818   1.003   1.036   3.525
  302SOL     OW 3819   0.410   0.813   3.113
  302SOL    HW1 3820   0.496   0.825   3.163
  302SOL    HW2 3821   0.368   0.726   3.140
  303SOL     OW 3822   0.064   1.564   3.193
  303SOL    HW1 3823   0.018   1.646   3.159
  303SOL    HW2 3824   0.162   1.583   3.202
  304SOL     OW 3825   0.367   1.100   2.363
  304SOL    HW1 3826   0.360   1.183   2.307
  304SOL    HW2 3827   0.371   1.020   2.303
  305SOL     OW 3828   0.566   0.537   2.727
  305SOL    HW1 3829   0.578   0.603   2.653
  305SOL    HW2 3830   0.612   0.571   2.810
  306SOL     OW 3831   1.582   0.639   2.334
  306SOL    HW1 3832   1.551   0.700   2.407
  306SOL    HW2 3833   1.632   0.691   2.265
  307SOL     OW 3834   0.354   1.510   3.191
  307SOL    HW1 3835   0.333   1.466   3.104
  307SOL    HW2 3836   0.451   1.536   3.194
  308SOL     OW 3837   0.504   0.050   3.602
  308SOL    HW1 3838   0.462  -0.007   3.532
  308SOL    HW2 3839   0.438   0.119   3.634
  309SOL     OW 3840   0.573   0.870   2.891
  309SOL    HW1 3841   0.617   0.959   2.882
  309SOL    HW2 3842   0.510   0.870   2.968
  310SOL     OW 3843   1.360   0.862   2.907
  310SOL    HW1 3844   1.285   0.862   2.841
  310SOL    HW2 3845   1.397   0.770   2.916
  311SOL     OW 3846   0.307   0.213   3.093
  311SOL    HW1 3847   0.284   0.250   3.183
  311SOL    HW2 3848   0.277   0.118   3.087
  312SOL     OW 3849   0.037   1.310   3.144
  312SOL    HW1 3850   0.090   1.261   3.212
  312SOL    HW2 3851   0.059   1.408   3.149
  313SOL     OW 3852   0.732   0.634   2.926
  313SOL    HW1 3853   0.791   0.608   2.850
  313SOL    HW2 3854   0.704   0.730   2.915
  314SOL     OW 3855   0.307   0.063   2.480
  314SOL    HW1 3856   0.296   0.157   2.513
  314SOL    HW2 3857   0.302   0.000   2.557
  315SOL     OW 3858   1.622   0.367   2.236
  315SOL    HW1 3859   1.624   0.291   2.300
  315SOL    HW2 3860   1.574   0.444   2.276
  316SOL     OW 3861   1.023   0.766   2.828
  316SOL    HW1 3862   1.038   0.787   2.924
  316SOL    HW2 3863   0.993   0.671   2.819
  317SOL     OW 3864   1.859   1.518   3.467
  317SOL    HW1 3865   1.873   1.545   3.372
  317SOL    HW2 3866   1.942   1.540   3.520
  318SOL     OW 3867   1.540   0.274   1.987
  318SOL    HW1 3868   1.479   0.199   2.010
  318SOL    HW2 3869   1.562   0.326   2.070
  319SOL     OW 3870   1.303   0.838   1.904
  319SOL    HW1 3871   1.337   0.745   1.919
  319SOL    HW2 3872   1.321   0.865   1.809
  320SOL     OW 3873   1.068   1.333   2.711
  320SOL    HW1 3874   1.075   1.249   2.656
  320SOL    HW2 3875   1.130   1.402   2.675
  321SOL     OW 3876   0.319   0.810   2.811
  321SOL    HW1 3877   0.412   0.846   2.816
  321SOL    HW2 3878   0.313   0.725   2.863
  322SOL     OW 3879   0.339   0.509   2.868
  322SOL    HW1 3880   0.287   0.426   2.851
  322SOL    HW2 3881   0.416   0.514   2.804
  323SOL     OW 3882   1.002   0.796   3.100
  323SOL    HW1 3883   1.043   0.764   3.186
  323SOL    HW2 3884   0.906   0.769   3.097
  324SOL     OW 3885   0.040   0.544   2.976
  324SOL    HW1 3886   0.125   0.511   2.935
  324SOL    HW2 3887   0.053   0.559   3.074
  325SOL     OW 3888   0.189   0.520   3.584
  325SOL    HW1 3889   0.248   0.480   3.514
  325SOL    HW2 3890   0.131   0.591   3.543
  326SOL     OW 3891   1.369   0.950   3.522
  326SOL    HW1 3892   1.408   1.039   3.542
  326SOL    HW2 3893   1.379   0.930   3.425
  327SOL     OW 3894   0.252   1.564   3.606
  327SOL    HW1 3895   0.222   1.621   3.682
  327SOL    HW2 3896   0.245   1.467   3.632
  328SOL     OW 3897   0.671   0.464   3.131
  328SOL    HW1 3898   0.637   0.375   3.101
  328SOL    HW2 3899   0.697   0.518   3.051
  329SOL     OW 3900   0.473   0.500   2.053
  329SOL    HW1 3901   0.534   0.580   2.057
  329SOL    HW2 3902   0.378   0.531   2.060
  330SOL     OW 3903   0.159   1.137   3.328
  330SOL    HW1 3904   0.181   1.076   3.404
  330SOL    HW2 3905   0.169   1.088   3.242
  331SOL     OW 3906   1.347   1.059   3.096
  331SOL    HW1 3907   1.371   0.996   3.022
  331SOL    HW2 3908   1.257   1.099   3.078
  332SOL     OW 3909   1.302   0.855   2.171
  332SOL    HW1 3910   1.216   0.824   2.213
  332SOL    HW2 3911   1.298   0.841   2.072
  333SOL     OW 3912   1.759   1.747   3.016
  333SOL    HW1 3913   1.820   1.777   2.943
  333SOL    HW2 3914   1.721   1.658   2.994
  334SOL     OW 3915   1.726   0.135   2.385
  334SOL    HW1 3916   1.799   0.118   2.318
  334SOL    HW2 3917   1.695   0.048   2.423
  335SOL     OW 3918   1.280   0.927   2.534
  335SOL    HW1 3919   1.340   0.846   2.536
  335SOL    HW2 3920   1.320   0.996   2.474
  336SOL     OW 3921   0.830   1.273   3.284
  336SOL    HW1 3922   0.825   1.306   3.379
  336SOL    HW2 3923   0.744   1.292   3.238
  337SOL     OW 3924   0.672   1.616   2.016
  337SOL    HW1 3925   0.681   1.626   1.917
  337SOL    HW2 3926   0.632   1.527   2.037
  338SOL     OW 3927   1.841   0.175   2.825
  338SOL    HW1 3928   1.880   0.090   2.789
  338SOL    HW2 3929   1.743   0.177   2.806
  339SOL     OW 3930   0.263   0.326   2.582
  339SOL    HW1 3931   0.184   0.377   2.548
  339SOL    HW2 3932   0.254   0.311   2.680
  340SOL     OW 3933   0.822   1.002   3.234
  340SOL    HW1 3934   0.862   1.001   3.142
  340SOL    HW2 3935   0.832   1.094   3.274
  341SOL     OW 3936   0.372   1.288   3.352
  341SOL    HW1 3937   0.359   1.381   3.318
  341SOL    HW2 3938   0.288   1.236   3.339
  342SOL     OW 3939   1.039   1.098   2.558
  342SOL    HW1 3940   0.969   1.051   2.612
  342SOL    HW2 3941   1.098   1.030   2.515
  343SOL     OW 3942   0.590   1.487   2.353
  343SOL    HW1 3943   0.632   1.429   2.283
  343SOL    HW2 3944   0.546   1.566   2.309
  344SOL     OW 3945   1.709   0.385   3.243
  344SOL    HW1 3946   1.782   0.454   3.247
  344SOL    HW2 3947   1.737   0.310   3.184
  345SOL     OW 3948   0.105   1.013   3.588
  345SOL    HW1 3949   0.028   0.980   3.642
  345SOL    HW2 3950   0.190   0.983   3.630
  346SOL     OW 3951   0.672   0.203   3.351
  346SOL    HW1 3952   0.762   0.187   3.311
  346SOL    HW2 3953   0.680   0.208   3.450
  347SOL     OW 3954   0.075   0.345   1.895
  347SOL    HW1 3955  -0.017   0.317   1.866
  347SOL    HW2 3956   0.106   0.422   1.839
  348SOL     OW 3957   0.716   0.565   3.570
  348SOL    HW1 3958   0.735   0.630   3.644
  348SOL    HW2 3959   0.776   0.485   3.579
  349SOL     OW 3960   0.390   1.741   3.422
  349SOL    HW1 3961   0.299   1.782   3.420
  349SOL    HW2 3962   0.383   1.647   3.454
  350SOL     OW 3963   1.225   0.325   2.311
  350SOL    HW1 3964   1.290   0.251   2.300
  350SOL    HW2 3965   1.245   0.375   2.395
  351SOL     OW 3966   0.594   0.745   2.514
  351SOL    HW1 3967   0.644   0.830   2.495
  351SOL    HW2 3968   0.506   0.747   2.466
  352SOL     OW 3969   1.777   0.342   3.504
  352SOL    HW1 3970   1.760   0.373   3.410
  352SOL    HW2 3971   1.693   0.305   3.542
  353SOL     OW 3972   0.859   1.374   1.878
  353SOL    HW1 3973   0.813   1.389   1.966
  353SOL    HW2 3974   0.903   1.459   1.848
  354SOL     OW 3975   0.661   1.790   2.815
  354SOL    HW1 3976   0.615   1.878   2.802
  354SOL    HW2 3977   0.760   1.802   2.808
  355SOL     OW 3978   0.859   0.956   2.723
  355SOL    HW1 3979   0.913   0.887   2.771
  355SOL    HW2 3980   0.827   1.025   2.789
  356SOL     OW 3981   0.221   1.314   3.706
  356SOL    HW1 3982   0.156   1.241   3.685
  356SOL    HW2 3983   0.225   1.328   3.804
  357SOL     OW 3984   0.079   1.240   2.515
  357SOL    HW1 3985   0.078   1.193   2.603
  357SOL    HW2 3986   0.161   1.212   2.464
  358SOL     OW 3987   0.672   1.391   3.486
  358SOL    HW1 3988   0.594   1.341   3.524
  358SOL    HW2 3989   0.669   1.486   3.517
  359SOL     OW 3990   1.824   0.192   3.089
  359SOL    HW1 3991   1.820   0.102   3.133
  359SOL    HW2 3992   1.827   0.181   2.990
  360SOL     OW 3993   0.428   0.424   2.382
  360SOL    HW1 3994   0.458   0.352   2.320
  360SOL    HW2 3995   0.389   0.384   2.465
  361SOL     OW 3996   1.705   1.487   2.966
  361SOL    HW1 3997   1.612   1.462   2.939
  361SOL    HW2 3998   1.731   1.437   3.048
  362SOL     OW 3999   0.317   0.547   3.142
  362SOL    HW1 4000   0.355   0.488   3.214
  362SOL    HW2 4001   0.357   0.521   3.054
  363SOL     OW 4002   1.424   0.214   2.974
  363SOL    HW1 4003   1.476   0.149   3.029
  363SOL    HW2 4004   1.375   0.277   3.035
  364SOL     OW 4005   0.618   1.567   3.146
  364SOL    HW1 4006   0.613   1.649   3.203
  364SOL    HW2 4007   0.707   1.564   3.101
  365SOL     OW 4008   1.352   0.052   2.030
  365SOL    HW1 4009   1.387   0.011   1.946
  365SOL    HW2 4010   1.262   0.014   2.050
  366SOL     OW 4011   1.593   0.221   2.744
  366SOL    HW1 4012   1.509   0.220   2.798
  366SOL    HW2 4013   1.595   0.304   2.688
  367SOL     OW 4014   0.225   0.275   4.720
  367SOL    HW1 4015   0.260   0.258   4.812
  367SOL    HW2 4016   0.137   0.230   4.708
  368SOL     OW 4017   0.019   0.368   4.371
  368SOL    HW1 4018  -0.063   0.411   4.410
  368SOL    HW2 4019  -0.009   0.295   4.308
  369SOL     OW 4020   0.569   1.275   4.889
  369SOL    HW1 4021   0.476   1.268   4.852
  369SOL    HW2 4022   0.580   1.364   4.933
  370SOL     OW 4023   1.555   1.511   4.427
  370SOL    HW1 4024   1.498   1.495   4.508
  370SOL    HW2 4025   1.496   1.521   4.347
  371SOL     OW 4026   1.135   0.703   4.441
  371SOL    HW1 4027   1.192   0.781   4.416
  371SOL    HW2 4028   1.075   0.729   4.517
  372SOL     OW 4029   0.768   1.144   4.747
  372SOL    HW1 4030   0.690   1.161   4.807
  372SOL    HW2 4031   0.802   1.231   4.711
  373SOL     OW 4032   0.685   1.012   4.389
  373SOL    HW1 4033   0.754   0.996   4.459
  373SOL    HW2 4034   0.612   1.069   4.427
  374SOL     OW 4035   0.335   1.435   4.785
  374SOL    HW1 4036   0.257   1.404   4.732
  374SOL    HW2 4037   0.393   1.493   4.728
  375SOL     OW 4038   1.603   0.447   4.461
  375SOL    HW1 4039   1.529   0.493   4.411
  375SOL    HW2 4040   1.654   0.515   4.514
  376SOL     OW 4041   0.231   1.713   4.207
  376SOL    HW1 4042   0.265   1.790   4.261
  376SOL    HW2 4043   0.275   1.713   4.117
  377SOL     OW 4044   0.230   1.434   4.262
  377SOL    HW1 4045   0.204   1.530   4.262
  377SOL    HW2 4046   0.159   1.380   4.307
  378SOL     OW 4047   0.240   1.091   4.610
  378SOL    HW1 4048   0.254   1.007   4.662
  378SOL    HW2 4049   0.185   1.155   4.665
  379SOL     OW 4050   0.122   0.643   4.287
  379SOL    HW1 4051   0.077   0.555   4.304
  379SOL    HW2 4052   0.121   0.697   4.371
  380SOL     OW 4053   1.842   1.767   4.083
  380SOL    HW1 4054   1.896   1.738   4.163
  380SOL    HW2 4055   1.872   1.857   4.054
  381SOL     OW 4056   0.027   1.596   3.841
  381SOL    HW1 4057   0.008   1.500   3.862
  381SOL    HW2 4058  -0.006   1.654   3.916
  382SOL     OW 4059   1.689   0.922   4.336
  382SOL    HW1 4060   1.784   0.893   4.344
  382SOL    HW2 4061   1.681   0.987   4.261
  383SOL     OW 4062   0.613   1.365   4.450
  383SOL    HW1 4063   0.564   1.278   4.459
  383SOL    HW2 4064   0.590   1.408   4.363
  384SOL     OW 4065   0.809   0.004   4.226
  384SOL    HW1 4066   0.849   0.095   4.217
  384SOL    HW2 4067   0.709   0.012   4.232
  385SOL     OW 4068   0.197   0.976   4.988
  385SOL    HW1 4069   0.286   0.931   4.974
  385SOL    HW2 4070   0.124   0.911   4.969
  386SOL     OW 4071   1.466   1.417   4.677
  386SOL    HW1 4072   1.407   1.423   4.757
  386SOL    HW2 4073   1.451   1.329   4.631
  387SOL     OW 4074   1.667   1.714   4.296
  387SOL    HW1 4075   1.626   1.691   4.208
  387SOL    HW2 4076   1.649   1.640   4.361
  388SOL     OW 4077   1.576   1.662   4.031
  388SOL    HW1 4078   1.665   1.708   4.034
  388SOL    HW2 4079   1.555   1.638   3.936
  389SOL     OW 4080   1.041   0.701   4.153
  389SOL    HW1 4081   1.067   0.697   4.249
  389SOL    HW2 4082   0.956   0.650   4.139
  390SOL     OW 4083   0.076   0.811   4.513
  390SOL    HW1 4084   0.175   0.799   4.522
  390SOL    HW2 4085   0.052   0.906   4.534
  391SOL     OW 4086   0.130   1.821   5.295
  391SOL    HW1 4087   0.120   1.806   5.394
  391SOL    HW2 4088   0.044   1.857   5.259
  392SOL     OW 4089   0.865   0.348   3.919
  392SOL    HW1 4090   0.924   0.411   3.870
  392SOL    HW2 4091   0.884   0.254   3.890
  393SOL     OW 4092   1.362   1.144   4.269
  393SOL    HW1 4093   1.445   1.115   4.221
  393SOL    HW2 4094   1.313   1.211   4.213
  394SOL     OW 4095   0.550   0.196   4.609
  394SOL    HW1 4096   0.545   0.191   4.709
  394SOL    HW2 4097   0.552   0.292   4.580
  395SOL     OW 4098   0.351   1.801   4.577
  395SOL    HW1 4099   0.401   1.715   4.583
  395SOL    HW2 4100   0.416   1.878   4.574
  396SOL     OW 4101   0.321   0.943   3.966
  396SOL    HW1 4102   0.403   0.982   3.924
  396SOL    HW2 4103   0.294   0.861   3.917
  397SOL     OW 4104   1.458   0.735   4.452
  397SOL    HW1 4105   1.453   0.670   4.527
  397SOL    HW2 4106   1.538   0.794   4.465
  398SOL     OW 4107   1.632   1.377   3.805
  398SOL    HW1 4108   1.600   1.471   3.795
  398SOL    HW2 4109   1.556   1.314   3.793
  399SOL     OW 4110   0.464   1.743   4.047
  399SOL    HW1 4111   0.497   1.782   4.133
  399SOL    HW2 4112   0.540   1.736   3.982
  400SOL     OW 4113   1.400   0.107   4.150
  400SOL    HW1 4114   1.376   0.070   4.060
  400SOL    HW2 4115   1.499   0.123   4.154
  401SOL     OW 4116   0.940   1.698   4.628
  401SOL    HW1 4117   1.020   1.641   4.649
  401SOL    HW2 4118   0.891   1.658   4.551
  402SOL     OW 4119   0.382   0.700   4.204
  402SOL    HW1 4120   0.427   0.610   4.201
  402SOL    HW2 4121   0.288   0.689   4.237
  403SOL     OW 4122   0.614   0.122   3.841
  403SOL    HW1 4123   0.712   0.100   3.848
  403SOL    HW2 4124   0.583   0.105   3.748
  404SOL     OW 4125   0.803   1.402   4.648
  404SOL    HW1 4126   0.893   1.416   4.606
  404SOL    HW2 4127   0.732   1.404   4.577
  405SOL     OW 4128   0.922   0.503   4.623
  405SOL    HW1 4129   0.897   0.494   4.527
  405SOL    HW2 4130   0.970   0.421   4.654
  406SOL     OW 4131   0.297   0.035   3.895
  406SOL    HW1 4132   0.346   0.119   3.874
  406SOL    HW2 4133   0.359  -0.030   3.940
  407SOL     OW 4134   0.935   0.236   4.204
  407SOL    HW1 4135   0.887   0.277   4.126
  407SOL    HW2 4136   1.034   0.234   4.185
  408SOL     OW 4137   1.227   1.570   4.517
  408SOL    HW1 4138   1.248   1.644   4.452
  408SOL    HW2 4139   1.295   1.570   4.590
  409SOL     OW 4140   0.459   1.152   4.465
  409SOL    HW1 4141   0.388   1.125   4.530
  409SOL    HW2 4142   0.433   1.124   4.372
  410SOL     OW 4143   1.271   1.797   4.315
  410SOL    HW1 4144   1.315   1.861   4.251
  410SOL    HW2 4145   1.221   1.849   4.385
  411SOL     OW 4146   1.032   0.549   3.740
  411SOL    HW1 4147   0.991   0.631   3.701
  411SOL    HW2 4148   1.096   0.575   3.813
  412SOL     OW 4149   0.866   0.454   4.366
  412SOL    HW1 4150   0.834   0.526   4.304
  412SOL    HW2 4151   0.890   0.373   4.313
  413SOL     OW 4152   1.429   1.173   4.591
  413SOL    HW1 4153   1.374   1.089   4.584
  413SOL    HW2 4154   1.455   1.202   4.499
  414SOL     OW 4155   1.466   0.590   4.716
  414SOL    HW1 4156   1.436   0.495   4.723
  414SOL    HW2 4157   1.539   0.606   4.782
  415SOL     OW 4158   0.488   1.385   3.898
  415SOL    HW1 4159   0.401   1.370   3.945
  415SOL    HW2 4160   0.471   1.411   3.803
  416SOL     OW 4161   1.390   0.575   3.802
  416SOL    HW1 4162   1.336   0.554   3.883
  416SOL    HW2 4163   1.481   0.534   3.811
  417SOL     OW 4164   0.527   0.256   4.052
  417SOL    HW1 4165   0.554   0.197   3.977
  417SOL    HW2 4166   0.527   0.351   4.021
  418SOL     OW 4167   1.111   1.195   4.824
  418SOL    HW1 4168   1.071   1.239   4.905
  418SOL    HW2 4169   1.070   1.232   4.741
  419SOL     OW 4170   1.638   1.099   4.803
  419SOL    HW1 4171   1.643   1.180   4.862
  419SOL    HW2 4172   1.552   1.101   4.752
  420SOL     OW 4173   0.705   1.050   4.092
  420SOL    HW1 4174   0.691   1.057   4.191
  420SOL    HW2 4175   0.789   0.999   4.074
  421SOL     OW 4176   0.410   0.813   4.975
  421SOL    HW1 4177   0.496   0.825   5.025
  421SOL    HW2 4178   0.368   0.726   5.002
  422SOL     OW 4179   0.367   1.100   4.225
  422SOL    HW1 4180   0.360   1.183   4.169
  422SOL    HW2 4181   0.371   1.020   4.165
  423SOL     OW 4182   0.566   0.537   4.589
  423SOL    HW1 4183   0.578   0.603   4.515
  423SOL    HW2 4184   0.612   0.571   4.672
  424SOL     OW 4185   1.252   1.348   4.112
  424SOL    HW1 4186   1.302   1.425   4.152
  424SOL    HW2 4187   1.157   1.350   4.144
  425SOL     OW 4188   1.272   1.445   4.866
  425SOL    HW1 4189   1.319   1.458   4.953
  425SOL    HW2 4190   1.206   1.371   4.875
  426SOL     OW 4191   1.582   0.639   4.196
  426SOL    HW1 4192   1.551   0.700   4.269
  426SOL    HW2 4193   1.632   0.691   4.127
  427SOL     OW 4194   0.354   1.510   5.053
  427SOL    HW1 4195   0.333   1.466   4.966
  427SOL    HW2 4196   0.451   1.536   5.056
  428SOL     OW 4197   0.573   0.870   4.753
  428SOL    HW1 4198   0.617   0.959   4.744
  428SOL    HW2 4199   0.510   0.870   4.830
  429SOL     OW 4200   1.360   0.862   4.769
  429SOL    HW1 4201   1.285   0.862   4.703
  429SOL    HW2 4202   1.397   0.770   4.778
  430SOL     OW 4203   1.209   0.525   3.999
  430SOL    HW1 4204   1.222   0.441   4.053
  430SOL    HW2 4205   1.180   0.599   4.059
  431SOL     OW 4206   0.307   0.213   4.955
  431SOL    HW1 4207   0.284   0.250   5.045
  431SOL    HW2 4208   0.277   0.118   4.949
  432SOL     OW 4209   0.037   1.310   5.006
  432SOL    HW1 4210   0.090   1.261   5.074
  432SOL    HW2 4211   0.059   1.408   5.011
  433SOL     OW 4212   0.732   0.634   4.788
  433SOL    HW1 4213   0.791   0.608   4.712
  433SOL    HW2 4214   0.704   0.730   4.777
  434SOL     OW 4215   1.622   0.367   4.098
  434SOL    HW1 4216   1.624   0.291   4.162
  434SOL    HW2 4217   1.574   0.444   4.138
  435SOL     OW 4218   1.023   0.766   4.690
  435SOL    HW1 4219   1.038   0.787   4.786
  435SOL    HW2 4220   0.993   0.671   4.681
  436SOL     OW 4221   1.540   0.274   3.849
  436SOL    HW1 4222   1.479   0.199   3.872
  436SOL    HW2 4223   1.562   0.326   3.932
  437SOL     OW 4224   1.303   0.838   3.766
  437SOL    HW1 4225   1.337   0.745   3.781
  437SOL    HW2 4226   1.321   0.865   3.671
  438SOL     OW 4227   1.068   1.333   4.573
  438SOL    HW1 4228   1.075   1.249   4.518
  438SOL    HW2 4229   1.130   1.402   4.537
  439SOL     OW 4230   0.319   0.810   4.673
  439SOL    HW1 4231   0.412   0.846   4.678
  439SOL    HW2 4232   0.313   0.725   4.725
  440SOL     OW 4233   0.339   0.509   4.730
  440SOL    HW1 4234   0.287   0.426   4.713
  440SOL    HW2 4235   0.416   0.514   4.666
  441SOL     OW 4236   1.160   0.207   5.201
  441SOL    HW1 4237   1.160   0.271   5.278
  441SOL    HW2 4238   1.188   0.255   5.118
  442SOL     OW 4239   0.008   1.326   3.924
  442SOL    HW1 4240  -0.085   1.347   3.893
  442SOL    HW2 4241   0.018   1.227   3.937
  443SOL     OW 4242   0.088   1.801   4.651
  443SOL    HW1 4243   0.046   1.715   4.624
  443SOL    HW2 4244   0.182   1.804   4.617
  444SOL     OW 4245   0.504   1.568   4.634
  444SOL    HW1 4246   0.570   1.642   4.643
  444SOL    HW2 4247   0.548   1.489   4.592
  445SOL     OW 4248   1.002   0.796   4.962
  445SOL    HW1 4249   1.043   0.764   5.048
  445SOL    HW2 4250   0.906   0.769   4.959
  446SOL     OW 4251   0.040   0.544   4.838
  446SOL    HW1 4252   0.125   0.511   4.797
  446SOL    HW2 4253   0.053   0.559   4.936
  447SOL     OW 4254   0.815   0.572   4.049
  447SOL    HW1 4255   0.822   0.483   4.003
  447SOL    HW2 4256   0.721   0.606   4.041
  448SOL     OW 4257   1.657   0.604   4.930
  448SOL    HW1 4258   1.619   0.535   4.992
  448SOL    HW2 4259   1.739   0.568   4.886
  449SOL     OW 4260   0.671   0.464   4.993
  449SOL    HW1 4261   0.637   0.375   4.963
  449SOL    HW2 4262   0.697   0.518   4.913
  450SOL     OW 4263   0.930   1.678   5.189
  450SOL    HW1 4264   0.906   1.660   5.094
  450SOL    HW2 4265   0.960   1.772   5.199
  451SOL     OW 4266   1.347   1.059   4.958
  451SOL    HW1 4267   1.371   0.996   4.884
  451SOL    HW2 4268   1.257   1.099   4.940
  452SOL     OW 4269   1.302   0.855   4.033
  452SOL    HW1 4270   1.216   0.824   4.075
  452SOL    HW2 4271   1.298   0.841   3.934
  453SOL     OW 4272   1.252   1.731   4.852
  453SOL    HW1 4273   1.336   1.736   4.798
  453SOL    HW2 4274   1.229   1.635   4.870
  454SOL     OW 4275   0.083   1.258   4.746
  454SOL    HW1 4276   0.078   1.257   4.846
  454SOL    HW2 4277   0.000   1.217   4.708
  455SOL     OW 4278   1.726   0.135   4.247
  455SOL    HW1 4279   1.799   0.118   4.180
  455SOL    HW2 4280   1.695   0.048   4.285
  456SOL     OW 4281   1.388   1.573   4.201
  456SOL    HW1 4282   1.455   1.585   4.127
  456SOL    HW2 4283   1.348   1.662   4.224
  457SOL     OW 4284   1.280   0.927   4.396
  457SOL    HW1 4285   1.340   0.846   4.398
  457SOL    HW2 4286   1.320   0.996   4.336
  458SOL     OW 4287   0.672   1.616   3.878
  458SOL    HW1 4288   0.681   1.626   3.779
  458SOL    HW2 4289   0.632   1.527   3.899
  459SOL     OW 4290   1.841   0.175   4.687
  459SOL    HW1 4291   1.880   0.090   4.651
  459SOL    HW2 4292   1.743   0.177   4.668
  460SOL     OW 4293   0.263   0.326   4.444
  460SOL    HW1 4294   0.184   0.377   4.410
  460SOL    HW2 4295   0.254   0.311   4.542
  461SOL     OW 4296   0.822   1.002   5.096
  461SOL    HW1 4297   0.862   1.001   5.004
  461SOL    HW2 4298   0.832   1.094   5.136
  462SOL     OW 4299   0.916   0.910   4.015
  462SOL    HW1 4300   0.979   0.948   3.947
  462SOL    HW2 4301   0.956   0.827   4.054
  463SOL     OW 4302   1.504   1.607   3.768
  463SOL    HW1 4303   1.412   1.644   3.775
  463SOL    HW2 4304   1.542   1.627   3.678
  464SOL     OW 4305   1.039   1.098   4.420
  464SOL    HW1 4306   0.969   1.051   4.474
  464SOL    HW2 4307   1.098   1.030   4.377
  465SOL     OW 4308   0.590   1.487   4.215
  465SOL    HW1 4309   0.632   1.429   4.145
  465SOL    HW2 4310   0.546   1.566   4.171
  466SOL     OW 4311   1.709   0.385   5.105
  466SOL    HW1 4312   1.782   0.454   5.109
  466SOL    HW2 4313   1.737   0.310   5.046
  467SOL     OW 4314   0.255   1.348   4.014
  467SOL    HW1 4315   0.159   1.349   3.987
  467SOL    HW2 4316   0.267   1.401   4.098
  468SOL     OW 4317   0.075   0.345   3.757
  468SOL    HW1 4318  -0.017   0.317   3.728
  468SOL    HW2 4319   0.106   0.422   3.701
  469SOL     OW 4320   1.183   1.335   3.843
  469SOL    HW1 4321   1.084   1.324   3.845
  469SOL    HW2 4322   1.217   1.350   3.936
  470SOL     OW 4323   1.493   1.767   4.683
  470SOL    HW1 4324   1.526   1.831   4.614
  470SOL    HW2 4325   1.559   1.761   4.758
  471SOL     OW 4326   1.450   1.220   5.357
  471SOL    HW1 4327   1.441   1.210   5.456
  471SOL    HW2 4328   1.546   1.213   5.331
  472SOL     OW 4329   1.674   0.883   4.978
  472SOL    HW1 4330   1.647   0.794   4.941
  472SOL    HW2 4331   1.675   0.951   4.905
  473SOL     OW 4332   0.594   0.745   4.376
  473SOL    HW1 4333   0.644   0.830   4.357
  473SOL    HW2 4334   0.506   0.747   4.328
  474SOL     OW 4335   0.859   1.374   3.740
  474SOL    HW1 4336   0.813   1.389   3.828
  474SOL    HW2 4337   0.903   1.459   3.710
  475SOL     OW 4338   0.661   1.790   4.677
  475SOL    HW1 4339   0.615   1.878   4.664
  475SOL    HW2 4340   0.760   1.802   4.670
  476SOL     OW 4341   0.859   0.956   4.585
  476SOL    HW1 4342   0.913   0.887   4.633
  476SOL    HW2 4343   0.827   1.025   4.651
  477SOL     OW 4344   1.083   0.984   3.811
  477SOL    HW1 4345   1.060   1.037   3.729
  477SOL    HW2 4346   1.164   0.928   3.792
  478SOL     OW 4347   1.861   1.569   4.575
  478SOL    HW1 4348   1.790   1.557   4.505
  478SOL    HW2 4349   1.862   1.490   4.635
  479SOL     OW 4350   0.079   1.240   4.377
  479SOL    HW1 4351   0.078   1.193   4.465
  479SOL    HW2 4352   0.161   1.212   4.326
  480SOL     OW 4353   1.824   0.192   4.951
  480SOL    HW1 4354   1.820   0.102   4.995
  480SOL    HW2 4355   1.827   0.181   4.852
  481SOL     OW 4356   0.428   0.424   4.244
  481SOL    HW1 4357   0.458   0.352   4.182
  481SOL    HW2 4358   0.389   0.384   4.327
  482SOL     OW 4359   0.812   1.586   4.411
  482SOL    HW1 4360   0.844   1.596   4.317
  482SOL    HW2 4361   0.733   1.524   4.413
  483SOL     OW 4362   1.424   0.214   4.836
  483SOL    HW1 4363   1.476   0.149   4.891
  483SOL    HW2 4364   1.375   0.277   4.897
  484SOL     OW 4365   0.770   1.330   4.025
  484SOL    HW1 4366   0.724   1.243   4.042
  484SOL    HW2 4367   0.861   1.327   4.066
  485SOL     OW 4368   1.352   0.052   3.892
  485SOL    HW1 4369   1.387   0.011   3.808
  485SOL    HW2 4370   1.262   0.014   3.912
  486SOL     OW 4371   1.593   0.221   4.606
  486SOL    HW1 4372   1.509   0.220   4.660
  486SOL    HW2 4373   1.595   0.304   4.550
  487SOL     OW 4374   0.039   1.077   4.024
  487SOL    HW1 4375   0.138   1.066   4.015
  487SOL    HW2 4376  -0.001   0.991   4.056
  488SOL     OW 4377   0.230   2.490   0.113
  488SOL    HW1 4378   0.137   2.488   0.150
  488SOL    HW2 4379   0.231   2.451   0.021
  489SOL     OW 4380   0.225   2.137   0.996
  489SOL    HW1 4381   0.260   2.120   1.088
  489SOL    HW2 4382   0.137   2.092   0.984
  490SOL     OW 4383   0.019   2.230   0.647
  490SOL    HW1 4384  -0.063   2.273   0.686
  490SOL    HW2 4385  -0.009   2.157   0.584
  491SOL     OW 4386   0.569   3.137   1.165
  491SOL    HW1 4387   0.476   3.130   1.128
  491SOL    HW2 4388   0.580   3.226   1.209
  492SOL     OW 4389   1.555   3.373   0.703
  492SOL    HW1 4390   1.498   3.357   0.784
  492SOL    HW2 4391   1.496   3.383   0.623
  493SOL     OW 4392   1.135   2.565   0.717
  493SOL    HW1 4393   1.192   2.643   0.692
  493SOL    HW2 4394   1.075   2.591   0.793
  494SOL     OW 4395   1.755   2.469   0.231
  494SOL    HW1 4396   1.743   2.456   0.132
  494SOL    HW2 4397   1.725   2.388   0.280
  495SOL     OW 4398   0.850   2.660   1.823
  495SOL    HW1 4399   0.846   2.736   1.888
  495SOL    HW2 4400   0.872   2.696   1.732
  496SOL     OW 4401   0.685   2.874   0.665
  496SOL    HW1 4402   0.754   2.858   0.735
  496SOL    HW2 4403   0.612   2.931   0.703
  497SOL     OW 4404   0.686   3.023   1.803
  497SOL    HW1 4405   0.746   3.102   1.817
  497SOL    HW2 4406   0.600   3.054   1.762
  498SOL     OW 4407   1.460   3.367   1.339
  498SOL    HW1 4408   1.484   3.461   1.365
  498SOL    HW2 4409   1.444   3.313   1.421
  499SOL     OW 4410   1.603   2.309   0.737
  499SOL    HW1 4411   1.529   2.355   0.687
  499SOL    HW2 4412   1.654   2.377   0.790
  500SOL     OW 4413   0.231   3.575   0.483
  500SOL    HW1 4414   0.265   3.652   0.537
  500SOL    HW2 4415   0.275   3.575   0.393
  501SOL     OW 4416   1.127   3.203   1.690
  501SOL    HW1 4417   1.174   3.203   1.778
  501SOL    HW2 4418   1.079   3.116   1.679
  502SOL     OW 4419   0.230   3.296   0.538
  502SOL    HW1 4420   0.204   3.392   0.538
  502SOL    HW2 4421   0.159   3.242   0.583
  503SOL     OW 4422   0.620   3.648   1.439
  503SOL    HW1 4423   0.528   3.631   1.474
  503SOL    HW2 4424   0.648   3.740   1.465
  504SOL     OW 4425   0.606   2.826   0.123
  504SOL    HW1 4426   0.613   2.910   0.069
  504SOL    HW2 4427   0.652   2.839   0.211
  505SOL     OW 4428   1.594   1.976   1.480
  505SOL    HW1 4429   1.576   2.043   1.408
  505SOL    HW2 4430   1.591   2.022   1.569
  506SOL     OW 4431   0.122   2.505   0.563
  506SOL    HW1 4432   0.077   2.417   0.580
  506SOL    HW2 4433   0.121   2.559   0.647
  507SOL     OW 4434   1.842   3.629   0.359
  507SOL    HW1 4435   1.896   3.600   0.439
  507SOL    HW2 4436   1.872   3.719   0.330
  508SOL     OW 4437   1.689   2.784   0.612
  508SOL    HW1 4438   1.784   2.755   0.620
  508SOL    HW2 4439   1.681   2.849   0.537
  509SOL     OW 4440   1.641   2.970   0.432
  509SOL    HW1 4441   1.727   2.972   0.380
  509SOL    HW2 4442   1.655   3.017   0.520
  510SOL     OW 4443   0.113   2.599   1.597
  510SOL    HW1 4444   0.201   2.586   1.642
  510SOL    HW2 4445   0.100   2.696   1.575
  511SOL     OW 4446   1.293   3.090   1.423
  511SOL    HW1 4447   1.330   3.017   1.365
  511SOL    HW2 4448   1.345   3.095   1.508
  512SOL     OW 4449   0.197   2.838   1.264
  512SOL    HW1 4450   0.286   2.793   1.250
  512SOL    HW2 4451   0.124   2.773   1.245
  513SOL     OW 4452   1.525   2.861   0.190
  513SOL    HW1 4453   1.462   2.785   0.203
  513SOL    HW2 4454   1.573   2.879   0.276
  514SOL     OW 4455   1.466   3.279   0.953
  514SOL    HW1 4456   1.407   3.285   1.033
  514SOL    HW2 4457   1.451   3.191   0.907
  515SOL     OW 4458   1.667   3.576   0.572
  515SOL    HW1 4459   1.626   3.553   0.484
  515SOL    HW2 4460   1.649   3.502   0.637
  516SOL     OW 4461   1.281   2.207   0.944
  516SOL    HW1 4462   1.195   2.157   0.931
  516SOL    HW2 4463   1.343   2.153   1.000
  517SOL     OW 4464   1.576   3.524   0.307
  517SOL    HW1 4465   1.665   3.570   0.310
  517SOL    HW2 4466   1.555   3.500   0.212
  518SOL     OW 4467   0.807   2.467   1.465
  518SOL    HW1 4468   0.760   2.464   1.554
  518SOL    HW2 4469   0.756   2.412   1.399
  519SOL     OW 4470   1.394   2.331   1.674
  519SOL    HW1 4471   1.374   2.374   1.762
  519SOL    HW2 4472   1.472   2.269   1.683
  520SOL     OW 4473   0.973   2.752   1.572
  520SOL    HW1 4474   1.019   2.668   1.543
  520SOL    HW2 4475   0.917   2.786   1.497
  521SOL     OW 4476   0.991   2.272   1.242
  521SOL    HW1 4477   0.914   2.306   1.296
  521SOL    HW2 4478   0.957   2.221   1.163
  522SOL     OW 4479   1.041   2.563   0.429
  522SOL    HW1 4480   1.067   2.559   0.525
  522SOL    HW2 4481   0.956   2.512   0.415
  523SOL     OW 4482   0.130   3.683   1.571
  523SOL    HW1 4483   0.120   3.668   1.670
  523SOL    HW2 4484   0.044   3.719   1.535
  524SOL     OW 4485   0.865   2.210   0.195
  524SOL    HW1 4486   0.924   2.273   0.146
  524SOL    HW2 4487   0.884   2.116   0.166
  525SOL     OW 4488   1.362   3.006   0.545
  525SOL    HW1 4489   1.445   2.977   0.497
  525SOL    HW2 4490   1.313   3.073   0.489
  526SOL     OW 4491   0.550   2.058   0.885
  526SOL    HW1 4492   0.545   2.053   0.985
  526SOL    HW2 4493   0.552   2.154   0.856
  527SOL     OW 4494   0.351   3.663   0.853
  527SOL    HW1 4495   0.401   3.577   0.859
  527SOL    HW2 4496   0.416   3.740   0.850
  528SOL     OW 4497   1.795   2.928   0.873
  528SOL    HW1 4498   1.733   2.913   0.797
  528SOL    HW2 4499   1.743   2.939   0.958
  529SOL     OW 4500   1.227   3.412   1.506
  529SOL    HW1 4501   1.233   3.335   1.570
  529SOL    HW2 4502   1.175   3.386   1.426
  530SOL     OW 4503   0.321   2.805   0.242
  530SOL    HW1 4504   0.403   2.844   0.200
  530SOL    HW2 4505   0.294   2.723   0.193
  531SOL     OW 4506   1.458   2.597   0.728
  531SOL    HW1 4507   1.453   2.532   0.803
  531SOL    HW2 4508   1.538   2.656   0.741
  532SOL     OW 4509   0.461   3.128   1.727
  532SOL    HW1 4510   0.411   3.129   1.641
  532SOL    HW2 4511   0.398   3.110   1.803
  533SOL     OW 4512   1.632   3.239   0.081
  533SOL    HW1 4513   1.600   3.333   0.071
  533SOL    HW2 4514   1.556   3.176   0.069
  534SOL     OW 4515   0.464   3.605   0.323
  534SOL    HW1 4516   0.497   3.644   0.409
  534SOL    HW2 4517   0.540   3.598   0.258
  535SOL     OW 4518   0.249   3.647   1.241
  535SOL    HW1 4519   0.306   3.582   1.291
  535SOL    HW2 4520   0.233   3.614   1.148
  536SOL     OW 4521   0.382   2.562   0.480
  536SOL    HW1 4522   0.427   2.472   0.477
  536SOL    HW2 4523   0.288   2.551   0.513
  537SOL     OW 4524   1.547   2.084   1.729
  537SOL    HW1 4525   1.542   2.121   1.821
  537SOL    HW2 4526   1.475   2.015   1.717
  538SOL     OW 4527   1.351   2.452   1.433
  538SOL    HW1 4528   1.379   2.409   1.518
  538SOL    HW2 4529   1.376   2.548   1.434
  539SOL     OW 4530   0.922   2.365   0.899
  539SOL    HW1 4531   0.897   2.356   0.803
  539SOL    HW2 4532   0.970   2.283   0.930
  540SOL     OW 4533   1.434   3.050   0.041
  540SOL    HW1 4534   1.466   2.974   0.098
  540SOL    HW2 4535   1.342   3.077   0.071
  541SOL     OW 4536   1.076   2.545   1.464
  541SOL    HW1 4537   0.996   2.484   1.467
  541SOL    HW2 4538   1.157   2.492   1.440
  542SOL     OW 4539   1.032   2.411   0.016
  542SOL    HW1 4540   0.991   2.493  -0.023
  542SOL    HW2 4541   1.096   2.437   0.089
  543SOL     OW 4542   0.078   2.418   1.386
  543SOL    HW1 4543   0.170   2.417   1.345
  543SOL    HW2 4544   0.072   2.492   1.453
  544SOL     OW 4545   0.561   2.084   1.147
  544SOL    HW1 4546   0.599   2.000   1.184
  544SOL    HW2 4547   0.473   2.103   1.191
  545SOL     OW 4548   0.866   2.316   0.642
  545SOL    HW1 4549   0.834   2.388   0.580
  545SOL    HW2 4550   0.890   2.235   0.589
  546SOL     OW 4551   1.429   3.035   0.867
  546SOL    HW1 4552   1.374   2.951   0.860
  546SOL    HW2 4553   1.455   3.064   0.775
  547SOL     OW 4554   1.466   2.452   0.992
  547SOL    HW1 4555   1.436   2.357   0.999
  547SOL    HW2 4556   1.539   2.468   1.058
  548SOL     OW 4557   1.857   2.695   0.377
  548SOL    HW1 4558   1.899   2.631   0.441
  548SOL    HW2 4559   1.819   2.644   0.299
  549SOL     OW 4560   1.664   3.142   0.657
  549SOL    HW1 4561   1.763   3.150   0.671
  549SOL    HW2 4562   1.619   3.226   0.688
  550SOL     OW 4563   1.390   2.437   0.078
  550SOL    HW1 4564   1.336   2.416   0.159
  550SOL    HW2 4565   1.481   2.396   0.087
  551SOL     OW 4566   1.754   3.085   1.588
  551SOL    HW1 4567   1.845   3.046   1.575
  551SOL    HW2 4568   1.762   3.181   1.612
  552SOL     OW 4569   1.111   3.057   1.100
  552SOL    HW1 4570   1.071   3.101   1.181
  552SOL    HW2 4571   1.070   3.094   1.017
  553SOL     OW 4572   1.638   2.961   1.079
  553SOL    HW1 4573   1.643   3.042   1.138
  553SOL    HW2 4574   1.552   2.963   1.028
  554SOL     OW 4575   0.915   1.951   1.402
  554SOL    HW1 4576   0.940   1.931   1.307
  554SOL    HW2 4577   0.987   2.007   1.444
  555SOL     OW 4578   0.980   2.978   1.719
  555SOL    HW1 4579   0.881   2.984   1.729
  555SOL    HW2 4580   1.003   2.898   1.663
  556SOL     OW 4581   0.705   2.912   0.368
  556SOL    HW1 4582   0.691   2.919   0.467
  556SOL    HW2 4583   0.789   2.861   0.350
  557SOL     OW 4584   0.410   2.675   1.251
  557SOL    HW1 4585   0.496   2.687   1.301
  557SOL    HW2 4586   0.368   2.588   1.278
  558SOL     OW 4587   1.274   2.248   1.262
  558SOL    HW1 4588   1.295   2.322   1.326
  558SOL    HW2 4589   1.185   2.265   1.219
  559SOL     OW 4590   0.367   2.962   0.501
  559SOL    HW1 4591   0.360   3.045   0.445
  559SOL    HW2 4592   0.371   2.882   0.441
  560SOL     OW 4593   0.566   2.399   0.865
  560SOL    HW1 4594   0.578   2.465   0.791
  560SOL    HW2 4595   0.612   2.433   0.948
  561SOL     OW 4596   1.252   3.210   0.388
  561SOL    HW1 4597   1.302   3.287   0.428
  561SOL    HW2 4598   1.157   3.212   0.420
  562SOL     OW 4599   1.582   2.501   0.472
  562SOL    HW1 4600   1.551   2.562   0.545
  562SOL    HW2 4601   1.632   2.553   0.403
  563SOL     OW 4602   0.354   3.372   1.329
  563SOL    HW1 4603   0.333   3.328   1.242
  563SOL    HW2 4604   0.451   3.398   1.332
  564SOL     OW 4605   0.402   2.613   1.598
  564SOL    HW1 4606   0.470   2.668   1.551
  564SOL    HW2 4607   0.442   2.525   1.625
  565SOL     OW 4608   0.504   1.912   1.740
  565SOL    HW1 4609   0.462   1.855   1.670
  565SOL    HW2 4610   0.438   1.981   1.772
  566SOL     OW 4611   0.573   2.732   1.029
  566SOL    HW1 4612   0.617   2.821   1.020
  566SOL    HW2 4613   0.510   2.732   1.106
  567SOL     OW 4614   1.360   2.724   1.045
  567SOL    HW1 4615   1.285   2.724   0.979
  567SOL    HW2 4616   1.397   2.632   1.054
  568SOL     OW 4617   1.209   2.387   0.275
  568SOL    HW1 4618   1.222   2.303   0.329
  568SOL    HW2 4619   1.180   2.461   0.335
  569SOL     OW 4620   0.037   3.172   1.282
  569SOL    HW1 4621   0.090   3.123   1.350
  569SOL    HW2 4622   0.059   3.270   1.287
  570SOL     OW 4623   0.732   2.496   1.064
  570SOL    HW1 4624   0.791   2.470   0.988
  570SOL    HW2 4625   0.704   2.592   1.053
  571SOL     OW 4626   0.307   1.925   0.618
  571SOL    HW1 4627   0.296   2.019   0.651
  571SOL    HW2 4628   0.302   1.862   0.695
  572SOL     OW 4629   1.622   2.229   0.374
  572SOL    HW1 4630   1.624   2.153   0.438
  572SOL    HW2 4631   1.574   2.306   0.414
  573SOL     OW 4632   1.023   2.628   0.966
  573SOL    HW1 4633   1.038   2.649   1.062
  573SOL    HW2 4634   0.993   2.533   0.957
  574SOL     OW 4635   0.980   3.435   1.700
  574SOL    HW1 4636   0.960   3.479   1.612
  574SOL    HW2 4637   1.019   3.344   1.684
  575SOL     OW 4638   1.859   3.380   1.605
  575SOL    HW1 4639   1.873   3.407   1.510
  575SOL    HW2 4640   1.942   3.402   1.658
  576SOL     OW 4641   1.540   2.136   0.125
  576SOL    HW1 4642   1.479   2.061   0.148
  576SOL    HW2 4643   1.562   2.188   0.208
  577SOL     OW 4644   1.303   2.700   0.042
  577SOL    HW1 4645   1.337   2.607   0.057
  577SOL    HW2 4646   1.321   2.727  -0.053
  578SOL     OW 4647   1.068   3.195   0.849
  578SOL    HW1 4648   1.075   3.111   0.794
  578SOL    HW2 4649   1.130   3.264   0.813
  579SOL     OW 4650   0.319   2.672   0.949
  579SOL    HW1 4651   0.412   2.708   0.954
  579SOL    HW2 4652   0.313   2.587   1.001
  580SOL     OW 4653   0.339   2.371   1.006
  580SOL    HW1 4654   0.287   2.288   0.989
  580SOL    HW2 4655   0.416   2.376   0.942
  581SOL     OW 4656   1.138   2.242   1.678
  581SOL    HW1 4657   1.093   2.305   1.742
  581SOL    HW2 4658   1.231   2.273   1.661
  582SOL     OW 4659   1.160   2.069   1.477
  582SOL    HW1 4660   1.160   2.133   1.554
  582SOL    HW2 4661   1.188   2.117   1.394
  583SOL     OW 4662   0.088   3.663   0.927
  583SOL    HW1 4663   0.046   3.577   0.900
  583SOL    HW2 4664   0.182   3.666   0.893
  584SOL     OW 4665   1.002   2.658   1.238
  584SOL    HW1 4666   1.043   2.626   1.324
  584SOL    HW2 4667   0.906   2.631   1.235
  585SOL     OW 4668   0.040   2.406   1.114
  585SOL    HW1 4669   0.125   2.373   1.073
  585SOL    HW2 4670   0.053   2.421   1.212
  586SOL     OW 4671   1.369   2.812   1.660
  586SOL    HW1 4672   1.408   2.901   1.680
  586SOL    HW2 4673   1.379   2.792   1.563
  587SOL     OW 4674   1.657   2.466   1.206
  587SOL    HW1 4675   1.619   2.397   1.268
  587SOL    HW2 4676   1.739   2.430   1.162
  588SOL     OW 4677   0.252   3.426   1.744
  588SOL    HW1 4678   0.222   3.483   1.820
  588SOL    HW2 4679   0.245   3.329   1.770
  589SOL     OW 4680   0.671   2.326   1.269
  589SOL    HW1 4681   0.637   2.237   1.239
  589SOL    HW2 4682   0.697   2.380   1.189
  590SOL     OW 4683   0.159   2.999   1.466
  590SOL    HW1 4684   0.181   2.938   1.542
  590SOL    HW2 4685   0.169   2.950   1.380
  591SOL     OW 4686   1.347   2.921   1.234
  591SOL    HW1 4687   1.371   2.858   1.160
  591SOL    HW2 4688   1.257   2.961   1.216
  592SOL     OW 4689   1.302   2.717   0.309
  592SOL    HW1 4690   1.216   2.686   0.351
  592SOL    HW2 4691   1.298   2.703   0.210
  593SOL     OW 4692   1.759   3.609   1.154
  593SOL    HW1 4693   1.820   3.639   1.081
  593SOL    HW2 4694   1.721   3.520   1.132
  594SOL     OW 4695   1.252   3.593   1.128
  594SOL    HW1 4696   1.336   3.598   1.074
  594SOL    HW2 4697   1.229   3.497   1.146
  595SOL     OW 4698   0.688   3.524   1.716
  595SOL    HW1 4699   0.632   3.605   1.725
  595SOL    HW2 4700   0.740   3.528   1.630
  596SOL     OW 4701   0.903   1.948   0.133
  596SOL    HW1 4702   0.954   1.949   0.047
  596SOL    HW2 4703   0.959   1.906   0.204
  597SOL     OW 4704   0.130   3.656   1.851
  597SOL    HW1 4705   0.089   3.582   1.904
  597SOL    HW2 4706   0.194   3.707   1.909
  598SOL     OW 4707   1.280   2.789   0.672
  598SOL    HW1 4708   1.340   2.708   0.674
  598SOL    HW2 4709   1.320   2.858   0.612
  599SOL     OW 4710   0.672   3.478   0.154
  599SOL    HW1 4711   0.681   3.488   0.055
  599SOL    HW2 4712   0.632   3.389   0.175
  600SOL     OW 4713   1.841   2.037   0.963
  600SOL    HW1 4714   1.880   1.952   0.927
  600SOL    HW2 4715   1.743   2.039   0.944
  601SOL     OW 4716   0.263   2.188   0.720
  601SOL    HW1 4717   0.184   2.239   0.686
  601SOL    HW2 4718   0.254   2.173   0.818
  602SOL     OW 4719   1.194   3.474   0.031
  602SOL    HW1 4720   1.200   3.381   0.068
  602SOL    HW2 4721   1.135   3.474  -0.049
  603SOL     OW 4722   0.916   2.772   0.291
  603SOL    HW1 4723   0.979   2.810   0.223
  603SOL    HW2 4724   0.956   2.689   0.330
  604SOL     OW 4725   1.504   3.469   0.044
  604SOL    HW1 4726   1.412   3.506   0.051
  604SOL    HW2 4727   1.542   3.489  -0.046
  605SOL     OW 4728   0.372   3.150   1.490
  605SOL    HW1 4729   0.359   3.243   1.456
  605SOL    HW2 4730   0.288   3.098   1.477
  606SOL     OW 4731   1.614   3.154   1.289
  606SOL    HW1 4732   1.674   3.157   1.369
  606SOL    HW2 4733   1.539   3.218   1.302
  607SOL     OW 4734   1.039   2.960   0.696
  607SOL    HW1 4735   0.969   2.913   0.750
  607SOL    HW2 4736   1.098   2.892   0.653
  608SOL     OW 4737   0.590   3.349   0.491
  608SOL    HW1 4738   0.632   3.291   0.421
  608SOL    HW2 4739   0.546   3.428   0.447
  609SOL     OW 4740   0.105   2.875   1.726
  609SOL    HW1 4741   0.028   2.842   1.780
  609SOL    HW2 4742   0.190   2.845   1.768
  610SOL     OW 4743   0.672   2.065   1.489
  610SOL    HW1 4744   0.762   2.049   1.449
  610SOL    HW2 4745   0.680   2.070   1.588
  611SOL     OW 4746   1.440   2.718   1.398
  611SOL    HW1 4747   1.383   2.770   1.335
  611SOL    HW2 4748   1.536   2.730   1.374
  612SOL     OW 4749   0.072   2.028   0.318
  612SOL    HW1 4750   0.055   2.111   0.264
  612SOL    HW2 4751   0.162   1.991   0.296
  613SOL     OW 4752   0.613   2.704   1.431
  613SOL    HW1 4753   0.669   2.785   1.414
  613SOL    HW2 4754   0.672   2.624   1.434
  614SOL     OW 4755   1.493   3.629   0.959
  614SOL    HW1 4756   1.526   3.693   0.890
  614SOL    HW2 4757   1.559   3.623   1.034
  615SOL     OW 4758   0.716   2.427   1.708
  615SOL    HW1 4759   0.735   2.492   1.782
  615SOL    HW2 4760   0.776   2.347   1.717
  616SOL     OW 4761   1.450   3.082   1.633
  616SOL    HW1 4762   1.441   3.072   1.732
  616SOL    HW2 4763   1.546   3.075   1.607
  617SOL     OW 4764   0.390   3.603   1.560
  617SOL    HW1 4765   0.299   3.644   1.558
  617SOL    HW2 4766   0.383   3.509   1.592
  618SOL     OW 4767   1.674   2.745   1.254
  618SOL    HW1 4768   1.647   2.656   1.217
  618SOL    HW2 4769   1.675   2.813   1.181
  619SOL     OW 4770   1.225   2.187   0.449
  619SOL    HW1 4771   1.290   2.113   0.438
  619SOL    HW2 4772   1.245   2.237   0.533
  620SOL     OW 4773   0.594   2.607   0.652
  620SOL    HW1 4774   0.644   2.692   0.633
  620SOL    HW2 4775   0.506   2.609   0.604
  621SOL     OW 4776   1.730   2.796   1.517
  621SOL    HW1 4777   1.768   2.887   1.532
  621SOL    HW2 4778   1.722   2.779   1.418
  622SOL     OW 4779   0.661   3.652   0.953
  622SOL    HW1 4780   0.615   3.740   0.940
  622SOL    HW2 4781   0.760   3.664   0.946
  623SOL     OW 4782   0.859   2.818   0.861
  623SOL    HW1 4783   0.913   2.749   0.909
  623SOL    HW2 4784   0.827   2.887   0.927
  624SOL     OW 4785   1.083   2.846   0.087
  624SOL    HW1 4786   1.060   2.899   0.005
  624SOL    HW2 4787   1.164   2.790   0.068
  625SOL     OW 4788   1.861   3.431   0.851
  625SOL    HW1 4789   1.790   3.419   0.781
  625SOL    HW2 4790   1.862   3.352   0.911
  626SOL     OW 4791   0.221   3.176   1.844
  626SOL    HW1 4792   0.156   3.103   1.823
  626SOL    HW2 4793   0.225   3.190   1.942
  627SOL     OW 4794   0.672   3.253   1.624
  627SOL    HW1 4795   0.594   3.203   1.662
  627SOL    HW2 4796   0.669   3.348   1.655
  628SOL     OW 4797   1.824   2.054   1.227
  628SOL    HW1 4798   1.820   1.964   1.271
  628SOL    HW2 4799   1.827   2.043   1.128
  629SOL     OW 4800   1.705   3.349   1.104
  629SOL    HW1 4801   1.612   3.324   1.077
  629SOL    HW2 4802   1.731   3.299   1.186
  630SOL     OW 4803   0.317   2.409   1.280
  630SOL    HW1 4804   0.355   2.350   1.352
  630SOL    HW2 4805   0.357   2.383   1.192
  631SOL     OW 4806   1.424   2.076   1.112
  631SOL    HW1 4807   1.476   2.011   1.167
  631SOL    HW2 4808   1.375   2.139   1.173
  632SOL     OW 4809   0.770   3.192   0.301
  632SOL    HW1 4810   0.724   3.105   0.318
  632SOL    HW2 4811   0.861   3.189   0.342
  633SOL     OW 4812   1.300   2.315   0.691
  633SOL    HW1 4813   1.241   2.395   0.695
  633SOL    HW2 4814   1.315   2.280   0.784
  634SOL     OW 4815   0.875   3.508   0.337
  634SOL    HW1 4816   0.798   3.473   0.283
  634SOL    HW2 4817   0.843   3.579   0.399
  635SOL     OW 4818   0.225   2.137   2.858
  635SOL    HW1 4819   0.260   2.120   2.950
  635SOL    HW2 4820   0.137   2.092   2.846
  636SOL     OW 4821   0.019   2.230   2.509
  636SOL    HW1 4822  -0.063   2.273   2.548
  636SOL    HW2 4823  -0.009   2.157   2.446
  637SOL     OW 4824   0.569   3.137   3.027
  637SOL    HW1 4825   0.476   3.130   2.990
  637SOL    HW2 4826   0.580   3.226   3.071
  638SOL     OW 4827   1.555   3.373   2.565
  638SOL    HW1 4828   1.498   3.357   2.646
  638SOL    HW2 4829   1.496   3.383   2.485
  639SOL     OW 4830   1.135   2.565   2.579
  639SOL    HW1 4831   1.192   2.643   2.554
  639SOL    HW2 4832   1.075   2.591   2.655
  640SOL     OW 4833   0.768   3.006   2.885
  640SOL    HW1 4834   0.690   3.023   2.945
  640SOL    HW2 4835   0.802   3.093   2.849
  641SOL     OW 4836   0.335   3.297   2.923
  641SOL    HW1 4837   0.257   3.266   2.870
  641SOL    HW2 4838   0.393   3.355   2.866
  642SOL     OW 4839   1.460   3.367   3.201
  642SOL    HW1 4840   1.484   3.461   3.227
  642SOL    HW2 4841   1.444   3.313   3.283
  643SOL     OW 4842   1.603   2.309   2.599
  643SOL    HW1 4843   1.529   2.355   2.549
  643SOL    HW2 4844   1.654   2.377   2.652
  644SOL     OW 4845   0.231   3.575   2.345
  644SOL    HW1 4846   0.265   3.652   2.399
  644SOL    HW2 4847   0.275   3.575   2.255
  645SOL     OW 4848   1.127   3.203   3.552
  645SOL    HW1 4849   1.174   3.203   3.640
  645SOL    HW2 4850   1.079   3.116   3.541
  646SOL     OW 4851   0.230   3.296   2.400
  646SOL    HW1 4852   0.204   3.392   2.400
  646SOL    HW2 4853   0.159   3.242   2.445
  647SOL     OW 4854   0.240   2.953   2.748
  647SOL    HW1 4855   0.254   2.869   2.800
  647SOL    HW2 4856   0.185   3.017   2.803
  648SOL     OW 4857   0.620   3.648   3.301
  648SOL    HW1 4858   0.528   3.631   3.336
  648SOL    HW2 4859   0.648   3.740   3.327
  649SOL     OW 4860   0.122   2.505   2.425
  649SOL    HW1 4861   0.077   2.417   2.442
  649SOL    HW2 4862   0.121   2.559   2.509
  650SOL     OW 4863   1.842   3.629   2.221
  650SOL    HW1 4864   1.896   3.600   2.301
  650SOL    HW2 4865   1.872   3.719   2.192
  651SOL     OW 4866   0.027   3.458   1.979
  651SOL    HW1 4867   0.008   3.362   2.000
  651SOL    HW2 4868  -0.006   3.516   2.054
  652SOL     OW 4869   1.689   2.784   2.474
  652SOL    HW1 4870   1.784   2.755   2.482
  652SOL    HW2 4871   1.681   2.849   2.399
  653SOL     OW 4872   1.641   2.970   2.294
  653SOL    HW1 4873   1.727   2.972   2.242
  653SOL    HW2 4874   1.655   3.017   2.382
  654SOL     OW 4875   0.113   2.599   3.459
  654SOL    HW1 4876   0.201   2.586   3.504
  654SOL    HW2 4877   0.100   2.696   3.437
  655SOL     OW 4878   1.293   3.090   3.285
  655SOL    HW1 4879   1.330   3.017   3.227
  655SOL    HW2 4880   1.345   3.095   3.370
  656SOL     OW 4881   0.809   1.866   2.364
  656SOL    HW1 4882   0.849   1.957   2.355
  656SOL    HW2 4883   0.709   1.874   2.370
  657SOL     OW 4884   0.197   2.838   3.126
  657SOL    HW1 4885   0.286   2.793   3.112
  657SOL    HW2 4886   0.124   2.773   3.107
  658SOL     OW 4887   1.187   3.654   3.478
  658SOL    HW1 4888   1.211   3.714   3.402
  658SOL    HW2 4889   1.194   3.559   3.448
  659SOL     OW 4890   0.598   2.591   2.132
  659SOL    HW1 4891   0.622   2.660   2.064
  659SOL    HW2 4892   0.520   2.624   2.186
  660SOL     OW 4893   1.281   2.207   2.806
  660SOL    HW1 4894   1.195   2.157   2.793
  660SOL    HW2 4895   1.343   2.153   2.862
  661SOL     OW 4896   0.807   2.467   3.327
  661SOL    HW1 4897   0.760   2.464   3.416
  661SOL    HW2 4898   0.756   2.412   3.261
  662SOL     OW 4899   1.394   2.331   3.536
  662SOL    HW1 4900   1.374   2.374   3.624
  662SOL    HW2 4901   1.472   2.269   3.545
  663SOL     OW 4902   0.991   2.272   3.104
  663SOL    HW1 4903   0.914   2.306   3.158
  663SOL    HW2 4904   0.957   2.221   3.025
  664SOL     OW 4905   1.041   2.563   2.291
  664SOL    HW1 4906   1.067   2.559   2.387
  664SOL    HW2 4907   0.956   2.512   2.277
  665SOL     OW 4908   0.076   2.673   2.651
  665SOL    HW1 4909   0.175   2.661   2.660
  665SOL    HW2 4910   0.052   2.768   2.672
  666SOL     OW 4911   0.130   3.683   3.433
  666SOL    HW1 4912   0.120   3.668   3.532
  666SOL    HW2 4913   0.044   3.719   3.397
  667SOL     OW 4914   0.865   2.210   2.057
  667SOL    HW1 4915   0.924   2.273   2.008
  667SOL    HW2 4916   0.884   2.116   2.028
  668SOL     OW 4917   0.550   2.058   2.747
  668SOL    HW1 4918   0.545   2.053   2.847
  668SOL    HW2 4919   0.552   2.154   2.718
  669SOL     OW 4920   0.351   3.663   2.715
  669SOL    HW1 4921   0.401   3.577   2.721
  669SOL    HW2 4922   0.416   3.740   2.712
  670SOL     OW 4923   1.795   2.928   2.735
  670SOL    HW1 4924   1.733   2.913   2.659
  670SOL    HW2 4925   1.743   2.939   2.820
  671SOL     OW 4926   1.227   3.412   3.368
  671SOL    HW1 4927   1.233   3.335   3.432
  671SOL    HW2 4928   1.175   3.386   3.288
  672SOL     OW 4929   1.458   2.597   2.590
  672SOL    HW1 4930   1.453   2.532   2.665
  672SOL    HW2 4931   1.538   2.656   2.603
  673SOL     OW 4932   1.111   3.638   2.099
  673SOL    HW1 4933   1.051   3.576   2.149
  673SOL    HW2 4934   1.142   3.594   2.014
  674SOL     OW 4935   1.632   3.239   1.943
  674SOL    HW1 4936   1.600   3.333   1.933
  674SOL    HW2 4937   1.556   3.176   1.931
  675SOL     OW 4938   0.464   3.605   2.185
  675SOL    HW1 4939   0.497   3.644   2.271
  675SOL    HW2 4940   0.540   3.598   2.120
  676SOL     OW 4941   1.400   1.969   2.288
  676SOL    HW1 4942   1.376   1.932   2.198
  676SOL    HW2 4943   1.499   1.985   2.292
  677SOL     OW 4944   0.249   3.647   3.103
  677SOL    HW1 4945   0.306   3.582   3.153
  677SOL    HW2 4946   0.233   3.614   3.010
  678SOL     OW 4947   0.940   3.560   2.766
  678SOL    HW1 4948   1.020   3.503   2.787
  678SOL    HW2 4949   0.891   3.520   2.689
  679SOL     OW 4950   1.547   2.084   3.591
  679SOL    HW1 4951   1.542   2.121   3.683
  679SOL    HW2 4952   1.475   2.015   3.579
  680SOL     OW 4953   0.888   3.376   3.057
  680SOL    HW1 4954   0.865   3.351   2.963
  680SOL    HW2 4955   0.949   3.307   3.096
  681SOL     OW 4956   0.803   3.264   2.786
  681SOL    HW1 4957   0.893   3.278   2.744
  681SOL    HW2 4958   0.732   3.266   2.715
  682SOL     OW 4959   0.922   2.365   2.761
  682SOL    HW1 4960   0.897   2.356   2.665
  682SOL    HW2 4961   0.970   2.283   2.792
  683SOL     OW 4962   0.539   1.926   2.374
  683SOL    HW1 4963   0.458   1.927   2.432
  683SOL    HW2 4964   0.542   2.009   2.319
  684SOL     OW 4965   1.434   3.050   1.903
  684SOL    HW1 4966   1.466   2.974   1.960
  684SOL    HW2 4967   1.342   3.077   1.933
  685SOL     OW 4968   0.935   2.098   2.342
  685SOL    HW1 4969   0.887   2.139   2.264
  685SOL    HW2 4970   1.034   2.096   2.323
  686SOL     OW 4971   1.227   3.432   2.655
  686SOL    HW1 4972   1.248   3.506   2.590
  686SOL    HW2 4973   1.295   3.432   2.728
  687SOL     OW 4974   1.271   3.659   2.453
  687SOL    HW1 4975   1.315   3.723   2.389
  687SOL    HW2 4976   1.221   3.711   2.523
  688SOL     OW 4977   1.032   2.411   1.878
  688SOL    HW1 4978   0.991   2.493   1.839
  688SOL    HW2 4979   1.096   2.437   1.951
  689SOL     OW 4980   0.078   2.418   3.248
  689SOL    HW1 4981   0.170   2.417   3.207
  689SOL    HW2 4982   0.072   2.492   3.315
  690SOL     OW 4983   0.866   2.316   2.504
  690SOL    HW1 4984   0.834   2.388   2.442
  690SOL    HW2 4985   0.890   2.235   2.451
  691SOL     OW 4986   1.017   1.901   2.615
  691SOL    HW1 4987   0.945   1.906   2.546
  691SOL    HW2 4988   0.993   1.832   2.684
  692SOL     OW 4989   1.429   3.035   2.729
  692SOL    HW1 4990   1.374   2.951   2.722
  692SOL    HW2 4991   1.455   3.064   2.637
  693SOL     OW 4992   1.466   2.452   2.854
  693SOL    HW1 4993   1.436   2.357   2.861
  693SOL    HW2 4994   1.539   2.468   2.920
  694SOL     OW 4995   1.857   2.695   2.239
  694SOL    HW1 4996   1.899   2.631   2.303
  694SOL    HW2 4997   1.819   2.644   2.161
  695SOL     OW 4998   1.664   3.142   2.519
  695SOL    HW1 4999   1.763   3.150   2.533
  695SOL    HW2 5000   1.619   3.226   2.550
  696SOL     OW 5001   1.390   2.437   1.940
  696SOL    HW1 5002   1.336   2.416   2.021
  696SOL    HW2 5003   1.481   2.396   1.949
  697SOL     OW 5004   0.527   2.118   2.190
  697SOL    HW1 5005   0.554   2.059   2.115
  697SOL    HW2 5006   0.527   2.213   2.159
  698SOL     OW 5007   1.754   3.085   3.450
  698SOL    HW1 5008   1.845   3.046   3.437
  698SOL    HW2 5009   1.762   3.181   3.474
  699SOL     OW 5010   1.064   3.209   3.202
  699SOL    HW1 5011   0.984   3.186   3.257
  699SOL    HW2 5012   1.147   3.183   3.251
  700SOL     OW 5013   1.592   3.491   3.487
  700SOL    HW1 5014   1.619   3.525   3.397
  700SOL    HW2 5015   1.671   3.453   3.533
  701SOL     OW 5016   1.111   3.057   2.962
  701SOL    HW1 5017   1.071   3.101   3.043
  701SOL    HW2 5018   1.070   3.094   2.879
  702SOL     OW 5019   1.638   2.961   2.941
  702SOL    HW1 5020   1.643   3.042   3.000
  702SOL    HW2 5021   1.552   2.963   2.890
  703SOL     OW 5022   0.915   1.951   3.264
  703SOL    HW1 5023   0.940   1.931   3.169
  703SOL    HW2 5024   0.987   2.007   3.306
  704SOL     OW 5025   0.410   2.675   3.113
  704SOL    HW1 5026   0.496   2.687   3.163
  704SOL    HW2 5027   0.368   2.588   3.140
  705SOL     OW 5028   0.064   3.426   3.193
  705SOL    HW1 5029   0.018   3.508   3.159
  705SOL    HW2 5030   0.162   3.445   3.202
  706SOL     OW 5031   0.566   2.399   2.727
  706SOL    HW1 5032   0.578   2.465   2.653
  706SOL    HW2 5033   0.612   2.433   2.810
  707SOL     OW 5034   1.252   3.210   2.250
  707SOL    HW1 5035   1.302   3.287   2.290
  707SOL    HW2 5036   1.157   3.212   2.282
  708SOL     OW 5037   1.272   3.307   3.004
  708SOL    HW1 5038   1.319   3.320   3.091
  708SOL    HW2 5039   1.206   3.233   3.013
  709SOL     OW 5040   1.582   2.501   2.334
  709SOL    HW1 5041   1.551   2.562   2.407
  709SOL    HW2 5042   1.632   2.553   2.265
  710SOL     OW 5043   0.354   3.372   3.191
  710SOL    HW1 5044   0.333   3.328   3.104
  710SOL    HW2 5045   0.451   3.398   3.194
  711SOL     OW 5046   0.402   2.613   3.460
  711SOL    HW1 5047   0.470   2.668   3.413
  711SOL    HW2 5048   0.442   2.525   3.487
  712SOL     OW 5049   0.573   2.732   2.891
  712SOL    HW1 5050   0.617   2.821   2.882
  712SOL    HW2 5051   0.510   2.732   2.968
  713SOL     OW 5052   1.360   2.724   2.907
  713SOL    HW1 5053   1.285   2.724   2.841
  713SOL    HW2 5054   1.397   2.632   2.916
  714SOL     OW 5055   1.209   2.387   2.137
  714SOL    HW1 5056   1.222   2.303   2.191
  714SOL    HW2 5057   1.180   2.461   2.197
  715SOL     OW 5058   0.037   3.172   3.144
  715SOL    HW1 5059   0.090   3.123   3.212
  715SOL    HW2 5060   0.059   3.270   3.149
  716SOL     OW 5061   0.732   2.496   2.926
  716SOL    HW1 5062   0.791   2.470   2.850
  716SOL    HW2 5063   0.704   2.592   2.915
  717SOL     OW 5064   0.307   1.925   2.480
  717SOL    HW1 5065   0.296   2.019   2.513
  717SOL    HW2 5066   0.302   1.862   2.557
  718SOL     OW 5067   1.622   2.229   2.236
  718SOL    HW1 5068   1.624   2.153   2.300
  718SOL    HW2 5069   1.574   2.306   2.276
  719SOL     OW 5070   1.023   2.628   2.828
  719SOL    HW1 5071   1.038   2.649   2.924
  719SOL    HW2 5072   0.993   2.533   2.819
  720SOL     OW 5073   1.859   3.380   3.467
  720SOL    HW1 5074   1.873   3.407   3.372
  720SOL    HW2 5075   1.942   3.402   3.520
  721SOL     OW 5076   1.540   2.136   1.987
  721SOL    HW1 5077   1.479   2.061   2.010
  721SOL    HW2 5078   1.562   2.188   2.070
  722SOL     OW 5079   0.319   2.672   2.811
  722SOL    HW1 5080   0.412   2.708   2.816
  722SOL    HW2 5081   0.313   2.587   2.863
  723SOL     OW 5082   0.339   2.371   2.868
  723SOL    HW1 5083   0.287   2.288   2.851
  723SOL    HW2 5084   0.416   2.376   2.804
  724SOL     OW 5085   0.088   3.663   2.789
  724SOL    HW1 5086   0.046   3.577   2.762
  724SOL    HW2 5087   0.182   3.666   2.755
  725SOL     OW 5088   0.504   3.430   2.772
  725SOL    HW1 5089   0.570   3.504   2.781
  725SOL    HW2 5090   0.548   3.351   2.730
  726SOL     OW 5091   1.002   2.658   3.100
  726SOL    HW1 5092   1.043   2.626   3.186
  726SOL    HW2 5093   0.906   2.631   3.097
  727SOL     OW 5094   0.040   2.406   2.976
  727SOL    HW1 5095   0.125   2.373   2.935
  727SOL    HW2 5096   0.053   2.421   3.074
  728SOL     OW 5097   0.815   2.434   2.187
  728SOL    HW1 5098   0.822   2.345   2.141
  728SOL    HW2 5099   0.721   2.468   2.179
  729SOL     OW 5100   0.252   3.426   3.606
  729SOL    HW1 5101   0.222   3.483   3.682
  729SOL    HW2 5102   0.245   3.329   3.632
  730SOL     OW 5103   0.930   3.540   3.327
  730SOL    HW1 5104   0.906   3.522   3.232
  730SOL    HW2 5105   0.960   3.634   3.337
  731SOL     OW 5106   0.159   2.999   3.328
  731SOL    HW1 5107   0.181   2.938   3.404
  731SOL    HW2 5108   0.169   2.950   3.242
  732SOL     OW 5109   1.347   2.921   3.096
  732SOL    HW1 5110   1.371   2.858   3.022
  732SOL    HW2 5111   1.257   2.961   3.078
  733SOL     OW 5112   1.252   3.593   2.990
  733SOL    HW1 5113   1.336   3.598   2.936
  733SOL    HW2 5114   1.229   3.497   3.008
  734SOL     OW 5115   0.083   3.120   2.884
  734SOL    HW1 5116   0.078   3.119   2.984
  734SOL    HW2 5117   0.000   3.079   2.846
  735SOL     OW 5118   0.688   3.524   3.578
  735SOL    HW1 5119   0.632   3.605   3.587
  735SOL    HW2 5120   0.740   3.528   3.492
  736SOL     OW 5121   1.726   1.997   2.385
  736SOL    HW1 5122   1.799   1.980   2.318
  736SOL    HW2 5123   1.695   1.910   2.423
  737SOL     OW 5124   1.388   3.435   2.339
  737SOL    HW1 5125   1.455   3.447   2.265
  737SOL    HW2 5126   1.348   3.524   2.362
  738SOL     OW 5127   0.130   3.656   3.713
  738SOL    HW1 5128   0.089   3.582   3.766
  738SOL    HW2 5129   0.194   3.707   3.771
  739SOL     OW 5130   1.280   2.789   2.534
  739SOL    HW1 5131   1.340   2.708   2.536
  739SOL    HW2 5132   1.320   2.858   2.474
  740SOL     OW 5133   0.672   3.478   2.016
  740SOL    HW1 5134   0.681   3.488   1.917
  740SOL    HW2 5135   0.632   3.389   2.037
  741SOL     OW 5136   1.841   2.037   2.825
  741SOL    HW1 5137   1.880   1.952   2.789
  741SOL    HW2 5138   1.743   2.039   2.806
  742SOL     OW 5139   0.263   2.188   2.582
  742SOL    HW1 5140   0.184   2.239   2.548
  742SOL    HW2 5141   0.254   2.173   2.680
  743SOL     OW 5142   0.822   2.864   3.234
  743SOL    HW1 5143   0.862   2.863   3.142
  743SOL    HW2 5144   0.832   2.956   3.274
  744SOL     OW 5145   0.372   3.150   3.352
  744SOL    HW1 5146   0.359   3.243   3.318
  744SOL    HW2 5147   0.288   3.098   3.339
  745SOL     OW 5148   1.614   3.154   3.151
  745SOL    HW1 5149   1.674   3.157   3.231
  745SOL    HW2 5150   1.539   3.218   3.164
  746SOL     OW 5151   1.014   2.098   2.833
  746SOL    HW1 5152   1.006   2.062   2.740
  746SOL    HW2 5153   1.012   2.022   2.898
  747SOL     OW 5154   0.590   3.349   2.353
  747SOL    HW1 5155   0.632   3.291   2.283
  747SOL    HW2 5156   0.546   3.428   2.309
  748SOL     OW 5157   0.105   2.875   3.588
  748SOL    HW1 5158   0.028   2.842   3.642
  748SOL    HW2 5159   0.190   2.845   3.630
  749SOL     OW 5160   0.075   2.207   1.895
  749SOL    HW1 5161  -0.017   2.179   1.866
  749SOL    HW2 5162   0.106   2.284   1.839
  750SOL     OW 5163   1.183   3.197   1.981
  750SOL    HW1 5164   1.084   3.186   1.983
  750SOL    HW2 5165   1.217   3.212   2.074
  751SOL     OW 5166   0.613   2.704   3.293
  751SOL    HW1 5167   0.669   2.785   3.276
  751SOL    HW2 5168   0.672   2.624   3.296
  752SOL     OW 5169   0.716   2.427   3.570
  752SOL    HW1 5170   0.735   2.492   3.644
  752SOL    HW2 5171   0.776   2.347   3.579
  753SOL     OW 5172   1.450   3.082   3.495
  753SOL    HW1 5173   1.441   3.072   3.594
  753SOL    HW2 5174   1.546   3.075   3.469
  754SOL     OW 5175   0.390   3.603   3.422
  754SOL    HW1 5176   0.299   3.644   3.420
  754SOL    HW2 5177   0.383   3.509   3.454
  755SOL     OW 5178   1.674   2.745   3.116
  755SOL    HW1 5179   1.647   2.656   3.079
  755SOL    HW2 5180   1.675   2.813   3.043
  756SOL     OW 5181   1.225   2.187   2.311
  756SOL    HW1 5182   1.290   2.113   2.300
  756SOL    HW2 5183   1.245   2.237   2.395
  757SOL     OW 5184   0.594   2.607   2.514
  757SOL    HW1 5185   0.644   2.692   2.495
  757SOL    HW2 5186   0.506   2.609   2.466
  758SOL     OW 5187   1.777   2.204   3.504
  758SOL    HW1 5188   1.760   2.235   3.410
  758SOL    HW2 5189   1.693   2.167   3.542
  759SOL     OW 5190   0.859   3.236   1.878
  759SOL    HW1 5191   0.813   3.251   1.966
  759SOL    HW2 5192   0.903   3.321   1.848
  760SOL     OW 5193   0.661   3.652   2.815
  760SOL    HW1 5194   0.615   3.740   2.802
  760SOL    HW2 5195   0.760   3.664   2.808
  761SOL     OW 5196   0.859   2.818   2.723
  761SOL    HW1 5197   0.913   2.749   2.771
  761SOL    HW2 5198   0.827   2.887   2.789
  762SOL     OW 5199   0.221   3.176   3.706
  762SOL    HW1 5200   0.156   3.103   3.685
  762SOL    HW2 5201   0.225   3.190   3.804
  763SOL     OW 5202   0.079   3.102   2.515
  763SOL    HW1 5203   0.078   3.055   2.603
  763SOL    HW2 5204   0.161   3.074   2.464
  764SOL     OW 5205   0.672   3.253   3.486
  764SOL    HW1 5206   0.594   3.203   3.524
  764SOL    HW2 5207   0.669   3.348   3.517
  765SOL     OW 5208   1.824   2.054   3.089
  765SOL    HW1 5209   1.820   1.964   3.133
  765SOL    HW2 5210   1.827   2.043   2.990
  766SOL     OW 5211   0.428   2.286   2.382
  766SOL    HW1 5212   0.458   2.214   2.320
  766SOL    HW2 5213   0.389   2.246   2.465
  767SOL     OW 5214   0.317   2.409   3.142
  767SOL    HW1 5215   0.355   2.350   3.214
  767SOL    HW2 5216   0.357   2.383   3.054
  768SOL     OW 5217   0.812   3.448   2.549
  768SOL    HW1 5218   0.844   3.458   2.455
  768SOL    HW2 5219   0.733   3.386   2.551
  769SOL     OW 5220   1.001   1.896   3.016
  769SOL    HW1 5221   0.938   1.824   2.985
  769SOL    HW2 5222   1.094   1.860   3.016
  770SOL     OW 5223   0.770   3.192   2.163
  770SOL    HW1 5224   0.724   3.105   2.180
  770SOL    HW2 5225   0.861   3.189   2.204
  771SOL     OW 5226   0.618   3.429   3.146
  771SOL    HW1 5227   0.613   3.511   3.203
  771SOL    HW2 5228   0.707   3.426   3.101
  772SOL     OW 5229   1.352   1.914   2.030
  772SOL    HW1 5230   1.387   1.873   1.946
  772SOL    HW2 5231   1.262   1.876   2.050
  773SOL     OW 5232   1.300   2.315   2.553
  773SOL    HW1 5233   1.241   2.395   2.557
  773SOL    HW2 5234   1.315   2.280   2.646
  774SOL     OW 5235   0.875   3.508   2.199
  774SOL    HW1 5236   0.798   3.473   2.145
  774SOL    HW2 5237   0.843   3.579   2.261
  775SOL     OW 5238   0.569   3.137   4.889
  775SOL    HW1 5239   0.476   3.130   4.852
  775SOL    HW2 5240   0.580   3.226   4.933
  776SOL     OW 5241   1.555   3.373   4.427
  776SOL    HW1 5242   1.498   3.357   4.508
  776SOL    HW2 5243   1.496   3.383   4.347
  777SOL     OW 5244   1.135   2.565   4.441
  777SOL    HW1 5245   1.192   2.643   4.416
  777SOL    HW2 5246   1.075   2.591   4.517
  778SOL     OW 5247   0.768   3.006   4.747
  778SOL    HW1 5248   0.690   3.023   4.807
  778SOL    HW2 5249   0.802   3.093   4.711
  779SOL     OW 5250   0.685   2.874   4.389
  779SOL    HW1 5251   0.754   2.858   4.459
  779SOL    HW2 5252   0.612   2.931   4.427
  780SOL     OW 5253   0.335   3.297   4.785
  780SOL    HW1 5254   0.257   3.266   4.732
  780SOL    HW2 5255   0.393   3.355   4.728
  781SOL     OW 5256   1.603   2.309   4.461
  781SOL    HW1 5257   1.529   2.355   4.411
  781SOL    HW2 5258   1.654   2.377   4.514
  782SOL     OW 5259   0.231   3.575   4.207
  782SOL    HW1 5260   0.265   3.652   4.261
  782SOL    HW2 5261   0.275   3.575   4.117
  783SOL     OW 5262   0.230   3.296   4.262
  783SOL    HW1 5263   0.204   3.392   4.262
  783SOL    HW2 5264   0.159   3.242   4.307
  784SOL     OW 5265   0.240   2.953   4.610
  784SOL    HW1 5266   0.254   2.869   4.662
  784SOL    HW2 5267   0.185   3.017   4.665
  785SOL     OW 5268   0.620   3.648   5.163
  785SOL    HW1 5269   0.528   3.631   5.198
  785SOL    HW2 5270   0.648   3.740   5.189
  786SOL     OW 5271   0.122   2.505   4.287
  786SOL    HW1 5272   0.077   2.417   4.304
  786SOL    HW2 5273   0.121   2.559   4.371
  787SOL     OW 5274   1.842   3.629   4.083
  787SOL    HW1 5275   1.896   3.600   4.163
  787SOL    HW2 5276   1.872   3.719   4.054
  788SOL     OW 5277   0.027   3.458   3.841
  788SOL    HW1 5278   0.008   3.362   3.862
  788SOL    HW2 5279  -0.006   3.516   3.916
  789SOL     OW 5280   0.613   3.227   4.450
  789SOL    HW1 5281   0.564   3.140   4.459
  789SOL    HW2 5282   0.590   3.270   4.363
  790SOL     OW 5283   0.809   1.866   4.226
  790SOL    HW1 5284   0.849   1.957   4.217
  790SOL    HW2 5285   0.709   1.874   4.232
  791SOL     OW 5286   0.197   2.838   4.988
  791SOL    HW1 5287   0.286   2.793   4.974
  791SOL    HW2 5288   0.124   2.773   4.969
  792SOL     OW 5289   1.525   2.861   3.914
  792SOL    HW1 5290   1.462   2.785   3.927
  792SOL    HW2 5291   1.573   2.879   4.000
  793SOL     OW 5292   1.466   3.279   4.677
  793SOL    HW1 5293   1.407   3.285   4.757
  793SOL    HW2 5294   1.451   3.191   4.631
  794SOL     OW 5295   1.667   3.576   4.296
  794SOL    HW1 5296   1.626   3.553   4.208
  794SOL    HW2 5297   1.649   3.502   4.361
  795SOL     OW 5298   1.281   2.207   4.668
  795SOL    HW1 5299   1.195   2.157   4.655
  795SOL    HW2 5300   1.343   2.153   4.724
  796SOL     OW 5301   1.576   3.524   4.031
  796SOL    HW1 5302   1.665   3.570   4.034
  796SOL    HW2 5303   1.555   3.500   3.936
  797SOL     OW 5304   0.991   2.272   4.966
  797SOL    HW1 5305   0.914   2.306   5.020
  797SOL    HW2 5306   0.957   2.221   4.887
  798SOL     OW 5307   1.041   2.563   4.153
  798SOL    HW1 5308   1.067   2.559   4.249
  798SOL    HW2 5309   0.956   2.512   4.139
  799SOL     OW 5310   0.076   2.673   4.513
  799SOL    HW1 5311   0.175   2.661   4.522
  799SOL    HW2 5312   0.052   2.768   4.534
  800SOL     OW 5313   0.130   3.683   5.295
  800SOL    HW1 5314   0.120   3.668   5.394
  800SOL    HW2 5315   0.044   3.719   5.259
  801SOL     OW 5316   0.865   2.210   3.919
  801SOL    HW1 5317   0.924   2.273   3.870
  801SOL    HW2 5318   0.884   2.116   3.890
  802SOL     OW 5319   1.362   3.006   4.269
  802SOL    HW1 5320   1.445   2.977   4.221
  802SOL    HW2 5321   1.313   3.073   4.213
  803SOL     OW 5322   0.351   3.663   4.577
  803SOL    HW1 5323   0.401   3.577   4.583
  803SOL    HW2 5324   0.416   3.740   4.574
  804SOL     OW 5325   1.458   2.597   4.452
  804SOL    HW1 5326   1.453   2.532   4.527
  804SOL    HW2 5327   1.538   2.656   4.465
  805SOL     OW 5328   1.111   3.638   3.961
  805SOL    HW1 5329   1.051   3.576   4.011
  805SOL    HW2 5330   1.142   3.594   3.876
  806SOL     OW 5331   1.632   3.239   3.805
  806SOL    HW1 5332   1.600   3.333   3.795
  806SOL    HW2 5333   1.556   3.176   3.793
  807SOL     OW 5334   0.464   3.605   4.047
  807SOL    HW1 5335   0.497   3.644   4.133
  807SOL    HW2 5336   0.540   3.598   3.982
  808SOL     OW 5337   1.400   1.969   4.150
  808SOL    HW1 5338   1.376   1.932   4.060
  808SOL    HW2 5339   1.499   1.985   4.154
  809SOL     OW 5340   0.249   3.647   4.965
  809SOL    HW1 5341   0.306   3.582   5.015
  809SOL    HW2 5342   0.233   3.614   4.872
  810SOL     OW 5343   0.382   2.562   4.204
  810SOL    HW1 5344   0.427   2.472   4.201
  810SOL    HW2 5345   0.288   2.551   4.237
  811SOL     OW 5346   0.922   2.365   4.623
  811SOL    HW1 5347   0.897   2.356   4.527
  811SOL    HW2 5348   0.970   2.283   4.654
  812SOL     OW 5349   1.434   3.050   3.765
  812SOL    HW1 5350   1.466   2.974   3.822
  812SOL    HW2 5351   1.342   3.077   3.795
  813SOL     OW 5352   0.297   1.897   3.895
  813SOL    HW1 5353   0.346   1.981   3.874
  813SOL    HW2 5354   0.359   1.832   3.940
  814SOL     OW 5355   0.935   2.098   4.204
  814SOL    HW1 5356   0.887   2.139   4.126
  814SOL    HW2 5357   1.034   2.096   4.185
  815SOL     OW 5358   0.459   3.014   4.465
  815SOL    HW1 5359   0.388   2.987   4.530
  815SOL    HW2 5360   0.433   2.986   4.372
  816SOL     OW 5361   1.271   3.659   4.315
  816SOL    HW1 5362   1.315   3.723   4.251
  816SOL    HW2 5363   1.221   3.711   4.385
  817SOL     OW 5364   1.032   2.411   3.740
  817SOL    HW1 5365   0.991   2.493   3.701
  817SOL    HW2 5366   1.096   2.437   3.813
  818SOL     OW 5367   0.866   2.316   4.366
  818SOL    HW1 5368   0.834   2.388   4.304
  818SOL    HW2 5369   0.890   2.235   4.313
  819SOL     OW 5370   1.017   1.901   4.477
  819SOL    HW1 5371   0.945   1.906   4.408
  819SOL    HW2 5372   0.993   1.832   4.546
  820SOL     OW 5373   1.466   2.452   4.716
  820SOL    HW1 5374   1.436   2.357   4.723
  820SOL    HW2 5375   1.539   2.468   4.782
  821SOL     OW 5376   1.857   2.695   4.101
  821SOL    HW1 5377   1.899   2.631   4.165
  821SOL    HW2 5378   1.819   2.644   4.023
  822SOL     OW 5379   1.390   2.437   3.802
  822SOL    HW1 5380   1.336   2.416   3.883
  822SOL    HW2 5381   1.481   2.396   3.811
  823SOL     OW 5382   0.705   2.912   4.092
  823SOL    HW1 5383   0.691   2.919   4.191
  823SOL    HW2 5384   0.789   2.861   4.074
  824SOL     OW 5385   0.410   2.675   4.975
  824SOL    HW1 5386   0.496   2.687   5.025
  824SOL    HW2 5387   0.368   2.588   5.002
  825SOL     OW 5388   1.274   2.248   4.986
  825SOL    HW1 5389   1.295   2.322   5.050
  825SOL    HW2 5390   1.185   2.265   4.943
  826SOL     OW 5391   0.367   2.962   4.225
  826SOL    HW1 5392   0.360   3.045   4.169
  826SOL    HW2 5393   0.371   2.882   4.165
  827SOL     OW 5394   1.252   3.210   4.112
  827SOL    HW1 5395   1.302   3.287   4.152
  827SOL    HW2 5396   1.157   3.212   4.144
  828SOL     OW 5397   1.272   3.307   4.866
  828SOL    HW1 5398   1.319   3.320   4.953
  828SOL    HW2 5399   1.206   3.233   4.875
  829SOL     OW 5400   1.582   2.501   4.196
  829SOL    HW1 5401   1.551   2.562   4.269
  829SOL    HW2 5402   1.632   2.553   4.127
  830SOL     OW 5403   0.573   2.732   4.753
  830SOL    HW1 5404   0.617   2.821   4.744
  830SOL    HW2 5405   0.510   2.732   4.830
  831SOL     OW 5406   1.360   2.724   4.769
  831SOL    HW1 5407   1.285   2.724   4.703
  831SOL    HW2 5408   1.397   2.632   4.778
  832SOL     OW 5409   1.209   2.387   3.999
  832SOL    HW1 5410   1.222   2.303   4.053
  832SOL    HW2 5411   1.180   2.461   4.059
  833SOL     OW 5412   0.307   1.925   4.342
  833SOL    HW1 5413   0.296   2.019   4.375
  833SOL    HW2 5414   0.302   1.862   4.419
  834SOL     OW 5415   1.622   2.229   4.098
  834SOL    HW1 5416   1.624   2.153   4.162
  834SOL    HW2 5417   1.574   2.306   4.138
  835SOL     OW 5418   1.023   2.628   4.690
  835SOL    HW1 5419   1.038   2.649   4.786
  835SOL    HW2 5420   0.993   2.533   4.681
  836SOL     OW 5421   1.540   2.136   3.849
  836SOL    HW1 5422   1.479   2.061   3.872
  836SOL    HW2 5423   1.562   2.188   3.932
  837SOL     OW 5424   0.319   2.672   4.673
  837SOL    HW1 5425   0.412   2.708   4.678
  837SOL    HW2 5426   0.313   2.587   4.725
  838SOL     OW 5427   0.339   2.371   4.730
  838SOL    HW1 5428   0.287   2.288   4.713
  838SOL    HW2 5429   0.416   2.376   4.666
  839SOL     OW 5430   1.160   2.069   5.201
  839SOL    HW1 5431   1.160   2.133   5.278
  839SOL    HW2 5432   1.188   2.117   5.118
  840SOL     OW 5433   0.008   3.188   3.924
  840SOL    HW1 5434  -0.085   3.209   3.893
  840SOL    HW2 5435   0.018   3.089   3.937
  841SOL     OW 5436   0.088   3.663   4.651
  841SOL    HW1 5437   0.046   3.577   4.624
  841SOL    HW2 5438   0.182   3.666   4.617
  842SOL     OW 5439   0.504   3.430   4.634
  842SOL    HW1 5440   0.570   3.504   4.643
  842SOL    HW2 5441   0.548   3.351   4.592
  843SOL     OW 5442   1.002   2.658   4.962
  843SOL    HW1 5443   1.043   2.626   5.048
  843SOL    HW2 5444   0.906   2.631   4.959
  844SOL     OW 5445   0.040   2.406   4.838
  844SOL    HW1 5446   0.125   2.373   4.797
  844SOL    HW2 5447   0.053   2.421   4.936
  845SOL     OW 5448   1.657   2.466   4.930
  845SOL    HW1 5449   1.619   2.397   4.992
  845SOL    HW2 5450   1.739   2.430   4.886
  846SOL     OW 5451   0.930   3.540   5.189
  846SOL    HW1 5452   0.906   3.522   5.094
  846SOL    HW2 5453   0.960   3.634   5.199
  847SOL     OW 5454   0.473   2.362   3.915
  847SOL    HW1 5455   0.534   2.442   3.919
  847SOL    HW2 5456   0.378   2.393   3.922
  848SOL     OW 5457   1.347   2.921   4.958
  848SOL    HW1 5458   1.371   2.858   4.884
  848SOL    HW2 5459   1.257   2.961   4.940
  849SOL     OW 5460   1.302   2.717   4.033
  849SOL    HW1 5461   1.216   2.686   4.075
  849SOL    HW2 5462   1.298   2.703   3.934
  850SOL     OW 5463   1.759   3.609   4.878
  850SOL    HW1 5464   1.820   3.639   4.805
  850SOL    HW2 5465   1.721   3.520   4.856
  851SOL     OW 5466   1.252   3.593   4.852
  851SOL    HW1 5467   1.336   3.598   4.798
  851SOL    HW2 5468   1.229   3.497   4.870
  852SOL     OW 5469   1.726   1.997   4.247
  852SOL    HW1 5470   1.799   1.980   4.180
  852SOL    HW2 5471   1.695   1.910   4.285
  853SOL     OW 5472   1.388   3.435   4.201
  853SOL    HW1 5473   1.455   3.447   4.127
  853SOL    HW2 5474   1.348   3.524   4.224
  854SOL     OW 5475   1.280   2.789   4.396
  854SOL    HW1 5476   1.340   2.708   4.398
  854SOL    HW2 5477   1.320   2.858   4.336
  855SOL     OW 5478   0.672   3.478   3.878
  855SOL    HW1 5479   0.681   3.488   3.779
  855SOL    HW2 5480   0.632   3.389   3.899
  856SOL     OW 5481   1.650   3.582   5.118
  856SOL    HW1 5482   1.703   3.592   5.034
  856SOL    HW2 5483   1.623   3.672   5.152
  857SOL     OW 5484   0.263   2.188   4.444
  857SOL    HW1 5485   0.184   2.239   4.410
  857SOL    HW2 5486   0.254   2.173   4.542
  858SOL     OW 5487   0.822   2.864   5.096
  858SOL    HW1 5488   0.862   2.863   5.004
  858SOL    HW2 5489   0.832   2.956   5.136
  859SOL     OW 5490   1.504   3.469   3.768
  859SOL    HW1 5491   1.412   3.506   3.775
  859SOL    HW2 5492   1.542   3.489   3.678
  860SOL     OW 5493   1.039   2.960   4.420
  860SOL    HW1 5494   0.969   2.913   4.474
  860SOL    HW2 5495   1.098   2.892   4.377
  861SOL     OW 5496   1.014   2.098   4.695
  861SOL    HW1 5497   1.006   2.062   4.602
  861SOL    HW2 5498   1.012   2.022   4.760
  862SOL     OW 5499   0.590   3.349   4.215
  862SOL    HW1 5500   0.632   3.291   4.145
  862SOL    HW2 5501   0.546   3.428   4.171
  863SOL     OW 5502   1.709   2.247   5.105
  863SOL    HW1 5503   1.782   2.316   5.109
  863SOL    HW2 5504   1.737   2.172   5.046
  864SOL     OW 5505   0.255   3.210   4.014
  864SOL    HW1 5506   0.159   3.211   3.987
  864SOL    HW2 5507   0.267   3.263   4.098
  865SOL     OW 5508   0.072   2.028   4.042
  865SOL    HW1 5509   0.055   2.111   3.988
  865SOL    HW2 5510   0.162   1.991   4.020
  866SOL     OW 5511   1.493   3.629   4.683
  866SOL    HW1 5512   1.526   3.693   4.614
  866SOL    HW2 5513   1.559   3.623   4.758
  867SOL     OW 5514   1.450   3.082   5.357
  867SOL    HW1 5515   1.441   3.072   5.456
  867SOL    HW2 5516   1.546   3.075   5.331
  868SOL     OW 5517   1.674   2.745   4.978
  868SOL    HW1 5518   1.647   2.656   4.941
  868SOL    HW2 5519   1.675   2.813   4.905
  869SOL     OW 5520   1.225   2.187   4.173
  869SOL    HW1 5521   1.290   2.113   4.162
  869SOL    HW2 5522   1.245   2.237   4.257
  870SOL     OW 5523   0.594   2.607   4.376
  870SOL    HW1 5524   0.644   2.692   4.357
  870SOL    HW2 5525   0.506   2.609   4.328
  871SOL     OW 5526   1.730   2.796   5.241
  871SOL    HW1 5527   1.768   2.887   5.256
  871SOL    HW2 5528   1.722   2.779   5.142
  872SOL     OW 5529   0.859   2.818   4.585
  872SOL    HW1 5530   0.913   2.749   4.633
  872SOL    HW2 5531   0.827   2.887   4.651
  873SOL     OW 5532   1.861   3.431   4.575
  873SOL    HW1 5533   1.790   3.419   4.505
  873SOL    HW2 5534   1.862   3.352   4.635
  874SOL     OW 5535   0.079   3.102   4.377
  874SOL    HW1 5536   0.078   3.055   4.465
  874SOL    HW2 5537   0.161   3.074   4.326
  875SOL     OW 5538   0.428   2.286   4.244
  875SOL    HW1 5539   0.458   2.214   4.182
  875SOL    HW2 5540   0.389   2.246   4.327
  876SOL     OW 5541   1.705   3.349   4.828
  876SOL    HW1 5542   1.612   3.324   4.801
  876SOL    HW2 5543   1.731   3.299   4.910
  877SOL     OW 5544   0.812   3.448   4.411
  877SOL    HW1 5545   0.844   3.458   4.317
  877SOL    HW2 5546   0.733   3.386   4.413
  878SOL     OW 5547   1.424   2.076   4.836
  878SOL    HW1 5548   1.476   2.011   4.891
  878SOL    HW2 5549   1.375   2.139   4.897
  879SOL     OW 5550   1.001   1.896   4.878
  879SOL    HW1 5551   0.938   1.824   4.847
  879SOL    HW2 5552   1.094   1.860   4.878
  880SOL     OW 5553   1.352   1.914   3.892
  880SOL    HW1 5554   1.387   1.873   3.808
  880SOL    HW2 5555   1.262   1.876   3.912
  881SOL     OW 5556   1.300   2.315   4.415
  881SOL    HW1 5557   1.241   2.395   4.419
  881SOL    HW2 5558   1.315   2.280   4.508
  882SOL     OW 5559   1.593   2.083   4.606
  882SOL    HW1 5560   1.509   2.082   4.660
  882SOL    HW2 5561   1.595   2.166   4.550
  883SOL     OW 5562   0.039   2.939   4.024
  883SOL    HW1 5563   0.138   2.928   4.015
  883SOL    HW2 5564  -0.001   2.853   4.056
  884SOL     OW 5565   0.875   3.508   4.061
  884SOL    HW1 5566   0.798   3.473   4.007
  884SOL    HW2 5567   0.843   3.579   4.123
  885SOL     OW 5568   0.225   3.999   0.996
  885SOL    HW1 5569   0.260   3.982   1.088
  885SOL    HW2 5570   0.137   3.954   0.984
  886SOL     OW 5571   0.019   4.092   0.647
  886SOL    HW1 5572  -0.063   4.135   0.686
  886SOL    HW2 5573  -0.009   4.019   0.584
  887SOL     OW 5574   0.569   4.999   1.165
  887SOL    HW1 5575   0.476   4.992   1.128
  887SOL    HW2 5576   0.580   5.088   1.209
  888SOL     OW 5577   1.555   5.235   0.703
  888SOL    HW1 5578   1.498   5.219   0.784
  888SOL    HW2 5579   1.496   5.245   0.623
  889SOL     OW 5580   1.755   4.331   0.231
  889SOL    HW1 5581   1.743   4.318   0.132
  889SOL    HW2 5582   1.725   4.250   0.280
  890SOL     OW 5583   0.850   4.522   1.823
  890SOL    HW1 5584   0.846   4.598   1.888
  890SOL    HW2 5585   0.872   4.558   1.732
  891SOL     OW 5586   0.685   4.736   0.665
  891SOL    HW1 5587   0.754   4.720   0.735
  891SOL    HW2 5588   0.612   4.793   0.703
  892SOL     OW 5589   0.686   4.885   1.803
  892SOL    HW1 5590   0.746   4.964   1.817
  892SOL    HW2 5591   0.600   4.916   1.762
  893SOL     OW 5592   0.438   4.116   1.499
  893SOL    HW1 5593   0.520   4.060   1.508
  893SOL    HW2 5594   0.357   4.058   1.503
  894SOL     OW 5595   1.603   4.171   0.737
  894SOL    HW1 5596   1.529   4.217   0.687
  894SOL    HW2 5597   1.654   4.239   0.790
  895SOL     OW 5598   0.240   4.815   0.886
  895SOL    HW1 5599   0.254   4.731   0.938
  895SOL    HW2 5600   0.185   4.879   0.941
  896SOL     OW 5601   0.606   4.688   0.123
  896SOL    HW1 5602   0.613   4.772   0.069
  896SOL    HW2 5603   0.652   4.701   0.211
  897SOL     OW 5604   0.122   4.367   0.563
  897SOL    HW1 5605   0.077   4.279   0.580
  897SOL    HW2 5606   0.121   4.421   0.647
  898SOL     OW 5607   1.689   4.646   0.612
  898SOL    HW1 5608   1.784   4.617   0.620
  898SOL    HW2 5609   1.681   4.711   0.537
  899SOL     OW 5610   1.641   4.832   0.432
  899SOL    HW1 5611   1.727   4.834   0.380
  899SOL    HW2 5612   1.655   4.879   0.520
  900SOL     OW 5613   0.113   4.461   1.597
  900SOL    HW1 5614   0.201   4.448   1.642
  900SOL    HW2 5615   0.100   4.558   1.575
  901SOL     OW 5616   1.293   4.952   1.423
  901SOL    HW1 5617   1.330   4.879   1.365
  901SOL    HW2 5618   1.345   4.957   1.508
  902SOL     OW 5619   0.809   3.728   0.502
  902SOL    HW1 5620   0.849   3.819   0.493
  902SOL    HW2 5621   0.709   3.736   0.508
  903SOL     OW 5622   0.197   4.700   1.264
  903SOL    HW1 5623   0.286   4.655   1.250
  903SOL    HW2 5624   0.124   4.635   1.245
  904SOL     OW 5625   1.525   4.723   0.190
  904SOL    HW1 5626   1.462   4.647   0.203
  904SOL    HW2 5627   1.573   4.741   0.276
  905SOL     OW 5628   0.317   3.975   1.801
  905SOL    HW1 5629   0.388   4.046   1.807
  905SOL    HW2 5630   0.229   4.014   1.829
  906SOL     OW 5631   1.466   5.141   0.953
  906SOL    HW1 5632   1.407   5.147   1.033
  906SOL    HW2 5633   1.451   5.053   0.907
  907SOL     OW 5634   0.598   4.453   0.270
  907SOL    HW1 5635   0.622   4.522   0.202
  907SOL    HW2 5636   0.520   4.486   0.324
  908SOL     OW 5637   1.281   4.069   0.944
  908SOL    HW1 5638   1.195   4.019   0.931
  908SOL    HW2 5639   1.343   4.015   1.000
  909SOL     OW 5640   0.807   4.329   1.465
  909SOL    HW1 5641   0.760   4.326   1.554
  909SOL    HW2 5642   0.756   4.274   1.399
  910SOL     OW 5643   1.041   4.425   0.429
  910SOL    HW1 5644   1.067   4.421   0.525
  910SOL    HW2 5645   0.956   4.374   0.415
  911SOL     OW 5646   0.076   4.535   0.789
  911SOL    HW1 5647   0.175   4.523   0.798
  911SOL    HW2 5648   0.052   4.630   0.810
  912SOL     OW 5649   0.865   4.072   0.195
  912SOL    HW1 5650   0.924   4.135   0.146
  912SOL    HW2 5651   0.884   3.978   0.166
  913SOL     OW 5652   1.362   4.868   0.545
  913SOL    HW1 5653   1.445   4.839   0.497
  913SOL    HW2 5654   1.313   4.935   0.489
  914SOL     OW 5655   0.550   3.920   0.885
  914SOL    HW1 5656   0.545   3.915   0.985
  914SOL    HW2 5657   0.552   4.016   0.856
  915SOL     OW 5658   1.795   4.790   0.873
  915SOL    HW1 5659   1.733   4.775   0.797
  915SOL    HW2 5660   1.743   4.801   0.958
  916SOL     OW 5661   0.321   4.667   0.242
  916SOL    HW1 5662   0.403   4.706   0.200
  916SOL    HW2 5663   0.294   4.585   0.193
  917SOL     OW 5664   1.458   4.459   0.728
  917SOL    HW1 5665   1.453   4.394   0.803
  917SOL    HW2 5666   1.538   4.518   0.741
  918SOL     OW 5667   0.202   4.009   1.498
  918SOL    HW1 5668   0.122   4.069   1.485
  918SOL    HW2 5669   0.192   3.960   1.584
  919SOL     OW 5670   1.632   5.101   0.081
  919SOL    HW1 5671   1.600   5.195   0.071
  919SOL    HW2 5672   1.556   5.038   0.069
  920SOL     OW 5673   0.382   4.424   0.480
  920SOL    HW1 5674   0.427   4.334   0.477
  920SOL    HW2 5675   0.288   4.413   0.513
  921SOL     OW 5676   1.547   3.946   1.729
  921SOL    HW1 5677   1.542   3.983   1.821
  921SOL    HW2 5678   1.475   3.877   1.717
  922SOL     OW 5679   0.781   3.988   1.749
  922SOL    HW1 5680   0.848   3.927   1.792
  922SOL    HW2 5681   0.708   4.007   1.814
  923SOL     OW 5682   1.351   4.314   1.433
  923SOL    HW1 5683   1.379   4.271   1.518
  923SOL    HW2 5684   1.376   4.410   1.434
  924SOL     OW 5685   0.922   4.227   0.899
  924SOL    HW1 5686   0.897   4.218   0.803
  924SOL    HW2 5687   0.970   4.145   0.930
  925SOL     OW 5688   0.539   3.788   0.512
  925SOL    HW1 5689   0.458   3.789   0.570
  925SOL    HW2 5690   0.542   3.871   0.457
  926SOL     OW 5691   1.434   4.912   0.041
  926SOL    HW1 5692   1.466   4.836   0.098
  926SOL    HW2 5693   1.342   4.939   0.071
  927SOL     OW 5694   0.297   3.759   0.171
  927SOL    HW1 5695   0.346   3.843   0.150
  927SOL    HW2 5696   0.359   3.694   0.216
  928SOL     OW 5697   1.076   4.407   1.464
  928SOL    HW1 5698   0.996   4.346   1.467
  928SOL    HW2 5699   1.157   4.354   1.440
  929SOL     OW 5700   1.227   5.294   0.793
  929SOL    HW1 5701   1.248   5.368   0.728
  929SOL    HW2 5702   1.295   5.294   0.866
  930SOL     OW 5703   1.032   4.273   0.016
  930SOL    HW1 5704   0.991   4.355  -0.023
  930SOL    HW2 5705   1.096   4.299   0.089
  931SOL     OW 5706   0.078   4.280   1.386
  931SOL    HW1 5707   0.170   4.279   1.345
  931SOL    HW2 5708   0.072   4.354   1.453
  932SOL     OW 5709   0.561   3.946   1.147
  932SOL    HW1 5710   0.599   3.862   1.184
  932SOL    HW2 5711   0.473   3.965   1.191
  933SOL     OW 5712   0.866   4.178   0.642
  933SOL    HW1 5713   0.834   4.250   0.580
  933SOL    HW2 5714   0.890   4.097   0.589
  934SOL     OW 5715   1.017   3.763   0.753
  934SOL    HW1 5716   0.945   3.768   0.684
  934SOL    HW2 5717   0.993   3.694   0.822
  935SOL     OW 5718   1.429   4.897   0.867
  935SOL    HW1 5719   1.374   4.813   0.860
  935SOL    HW2 5720   1.455   4.926   0.775
  936SOL     OW 5721   1.857   4.557   0.377
  936SOL    HW1 5722   1.899   4.493   0.441
  936SOL    HW2 5723   1.819   4.506   0.299
  937SOL     OW 5724   1.664   5.004   0.657
  937SOL    HW1 5725   1.763   5.012   0.671
  937SOL    HW2 5726   1.619   5.088   0.688
  938SOL     OW 5727   0.527   3.980   0.328
  938SOL    HW1 5728   0.554   3.921   0.253
  938SOL    HW2 5729   0.527   4.075   0.297
  939SOL     OW 5730   1.754   4.947   1.588
  939SOL    HW1 5731   1.845   4.908   1.575
  939SOL    HW2 5732   1.762   5.043   1.612
  940SOL     OW 5733   1.638   4.823   1.079
  940SOL    HW1 5734   1.643   4.904   1.138
  940SOL    HW2 5735   1.552   4.825   1.028
  941SOL     OW 5736   0.980   4.840   1.719
  941SOL    HW1 5737   0.881   4.846   1.729
  941SOL    HW2 5738   1.003   4.760   1.663
  942SOL     OW 5739   0.705   4.774   0.368
  942SOL    HW1 5740   0.691   4.781   0.467
  942SOL    HW2 5741   0.789   4.723   0.350
  943SOL     OW 5742   0.410   4.537   1.251
  943SOL    HW1 5743   0.496   4.549   1.301
  943SOL    HW2 5744   0.368   4.450   1.278
  944SOL     OW 5745   0.367   4.824   0.501
  944SOL    HW1 5746   0.360   4.907   0.445
  944SOL    HW2 5747   0.371   4.744   0.441
  945SOL     OW 5748   0.566   4.261   0.865
  945SOL    HW1 5749   0.578   4.327   0.791
  945SOL    HW2 5750   0.612   4.295   0.948
  946SOL     OW 5751   1.582   4.363   0.472
  946SOL    HW1 5752   1.551   4.424   0.545
  946SOL    HW2 5753   1.632   4.415   0.403
  947SOL     OW 5754   0.402   4.475   1.598
  947SOL    HW1 5755   0.470   4.530   1.551
  947SOL    HW2 5756   0.442   4.387   1.625
  948SOL     OW 5757   1.587   4.503   1.670
  948SOL    HW1 5758   1.495   4.541   1.665
  948SOL    HW2 5759   1.647   4.550   1.605
  949SOL     OW 5760   0.504   3.774   1.740
  949SOL    HW1 5761   0.462   3.717   1.670
  949SOL    HW2 5762   0.438   3.843   1.772
  950SOL     OW 5763   0.573   4.594   1.029
  950SOL    HW1 5764   0.617   4.683   1.020
  950SOL    HW2 5765   0.510   4.594   1.106
  951SOL     OW 5766   1.209   4.249   0.275
  951SOL    HW1 5767   1.222   4.165   0.329
  951SOL    HW2 5768   1.180   4.323   0.335
  952SOL     OW 5769   0.307   3.937   1.231
  952SOL    HW1 5770   0.284   3.974   1.321
  952SOL    HW2 5771   0.277   3.842   1.225
  953SOL     OW 5772   1.728   4.659   1.854
  953SOL    HW1 5773   1.682   4.652   1.765
  953SOL    HW2 5774   1.666   4.703   1.920
  954SOL     OW 5775   0.307   3.787   0.618
  954SOL    HW1 5776   0.296   3.881   0.651
  954SOL    HW2 5777   0.302   3.724   0.695
  955SOL     OW 5778   1.859   5.242   1.605
  955SOL    HW1 5779   1.873   5.269   1.510
  955SOL    HW2 5780   1.942   5.264   1.658
  956SOL     OW 5781   0.350   4.622   1.804
  956SOL    HW1 5782   0.426   4.666   1.852
  956SOL    HW2 5783   0.385   4.575   1.722
  957SOL     OW 5784   1.303   4.562   0.042
  957SOL    HW1 5785   1.337   4.469   0.057
  957SOL    HW2 5786   1.321   4.589  -0.053
  958SOL     OW 5787   0.319   4.534   0.949
  958SOL    HW1 5788   0.412   4.570   0.954
  958SOL    HW2 5789   0.313   4.449   1.001
  959SOL     OW 5790   0.339   4.233   1.006
  959SOL    HW1 5791   0.287   4.150   0.989
  959SOL    HW2 5792   0.416   4.238   0.942
  960SOL     OW 5793   0.008   5.050   0.200
  960SOL    HW1 5794  -0.085   5.071   0.169
  960SOL    HW2 5795   0.018   4.951   0.213
  961SOL     OW 5796   0.040   4.268   1.114
  961SOL    HW1 5797   0.125   4.235   1.073
  961SOL    HW2 5798   0.053   4.283   1.212
  962SOL     OW 5799   0.189   4.244   1.722
  962SOL    HW1 5800   0.248   4.204   1.652
  962SOL    HW2 5801   0.131   4.315   1.681
  963SOL     OW 5802   0.815   4.296   0.325
  963SOL    HW1 5803   0.822   4.207   0.279
  963SOL    HW2 5804   0.721   4.330   0.317
  964SOL     OW 5805   0.671   4.188   1.269
  964SOL    HW1 5806   0.637   4.099   1.239
  964SOL    HW2 5807   0.697   4.242   1.189
  965SOL     OW 5808   0.473   4.224   0.191
  965SOL    HW1 5809   0.534   4.304   0.195
  965SOL    HW2 5810   0.378   4.255   0.198
  966SOL     OW 5811   0.159   4.861   1.466
  966SOL    HW1 5812   0.181   4.800   1.542
  966SOL    HW2 5813   0.169   4.812   1.380
  967SOL     OW 5814   1.347   4.783   1.234
  967SOL    HW1 5815   1.371   4.720   1.160
  967SOL    HW2 5816   1.257   4.823   1.216
  968SOL     OW 5817   1.302   4.579   0.309
  968SOL    HW1 5818   1.216   4.548   0.351
  968SOL    HW2 5819   1.298   4.565   0.210
  969SOL     OW 5820   0.083   4.982   1.022
  969SOL    HW1 5821   0.078   4.981   1.122
  969SOL    HW2 5822   0.000   4.941   0.984
  970SOL     OW 5823   0.903   3.810   0.133
  970SOL    HW1 5824   0.954   3.811   0.047
  970SOL    HW2 5825   0.959   3.768   0.204
  971SOL     OW 5826   1.726   3.859   0.523
  971SOL    HW1 5827   1.799   3.842   0.456
  971SOL    HW2 5828   1.695   3.772   0.561
  972SOL     OW 5829   1.280   4.651   0.672
  972SOL    HW1 5830   1.340   4.570   0.674
  972SOL    HW2 5831   1.320   4.720   0.612
  973SOL     OW 5832   0.830   4.997   1.422
  973SOL    HW1 5833   0.825   5.030   1.517
  973SOL    HW2 5834   0.744   5.016   1.376
  974SOL     OW 5835   1.841   3.899   0.963
  974SOL    HW1 5836   1.880   3.814   0.927
  974SOL    HW2 5837   1.743   3.901   0.944
  975SOL     OW 5838   0.263   4.050   0.720
  975SOL    HW1 5839   0.184   4.101   0.686
  975SOL    HW2 5840   0.254   4.035   0.818
  976SOL     OW 5841   0.916   4.634   0.291
  976SOL    HW1 5842   0.979   4.672   0.223
  976SOL    HW2 5843   0.956   4.551   0.330
  977SOL     OW 5844   0.372   5.012   1.490
  977SOL    HW1 5845   0.359   5.105   1.456
  977SOL    HW2 5846   0.288   4.960   1.477
  978SOL     OW 5847   1.614   5.016   1.289
  978SOL    HW1 5848   1.674   5.019   1.369
  978SOL    HW2 5849   1.539   5.080   1.302
  979SOL     OW 5850   1.039   4.822   0.696
  979SOL    HW1 5851   0.969   4.775   0.750
  979SOL    HW2 5852   1.098   4.754   0.653
  980SOL     OW 5853   1.014   3.960   0.971
  980SOL    HW1 5854   1.006   3.924   0.878
  980SOL    HW2 5855   1.012   3.884   1.036
  981SOL     OW 5856   0.105   4.737   1.726
  981SOL    HW1 5857   0.028   4.704   1.780
  981SOL    HW2 5858   0.190   4.707   1.768
  982SOL     OW 5859   0.075   4.069   0.033
  982SOL    HW1 5860  -0.017   4.041   0.004
  982SOL    HW2 5861   0.106   4.146  -0.023
  983SOL     OW 5862   0.072   3.890   0.318
  983SOL    HW1 5863   0.055   3.973   0.264
  983SOL    HW2 5864   0.162   3.853   0.296
  984SOL     OW 5865   0.716   4.289   1.708
  984SOL    HW1 5866   0.735   4.354   1.782
  984SOL    HW2 5867   0.776   4.209   1.717
  985SOL     OW 5868   1.450   4.944   1.633
  985SOL    HW1 5869   1.441   4.934   1.732
  985SOL    HW2 5870   1.546   4.937   1.607
  986SOL     OW 5871   0.594   4.469   0.652
  986SOL    HW1 5872   0.644   4.554   0.633
  986SOL    HW2 5873   0.506   4.471   0.604
  987SOL     OW 5874   1.083   4.708   0.087
  987SOL    HW1 5875   1.060   4.761   0.005
  987SOL    HW2 5876   1.164   4.652   0.068
  988SOL     OW 5877   0.079   4.964   0.653
  988SOL    HW1 5878   0.078   4.917   0.741
  988SOL    HW2 5879   0.161   4.936   0.602
  989SOL     OW 5880   1.824   3.916   1.227
  989SOL    HW1 5881   1.820   3.826   1.271
  989SOL    HW2 5882   1.827   3.905   1.128
  990SOL     OW 5883   0.428   4.148   0.520
  990SOL    HW1 5884   0.458   4.076   0.458
  990SOL    HW2 5885   0.389   4.108   0.603
  991SOL     OW 5886   0.317   4.271   1.280
  991SOL    HW1 5887   0.355   4.212   1.352
  991SOL    HW2 5888   0.357   4.245   1.192
  992SOL     OW 5889   0.770   5.054   0.301
  992SOL    HW1 5890   0.724   4.967   0.318
  992SOL    HW2 5891   0.861   5.051   0.342
  993SOL     OW 5892   1.300   4.177   0.691
  993SOL    HW1 5893   1.241   4.257   0.695
  993SOL    HW2 5894   1.315   4.142   0.784
  994SOL     OW 5895   0.039   4.801   0.300
  994SOL    HW1 5896   0.138   4.790   0.291
  994SOL    HW2 5897  -0.001   4.715   0.332
  995SOL     OW 5898   0.230   4.352   1.975
  995SOL    HW1 5899   0.137   4.350   2.012
  995SOL    HW2 5900   0.231   4.313   1.883
  996SOL     OW 5901   0.225   3.999   2.858
  996SOL    HW1 5902   0.260   3.982   2.950
  996SOL    HW2 5903   0.137   3.954   2.846
  997SOL     OW 5904   0.569   4.999   3.027
  997SOL    HW1 5905   0.476   4.992   2.990
  997SOL    HW2 5906   0.580   5.088   3.071
  998SOL     OW 5907   1.555   5.235   2.565
  998SOL    HW1 5908   1.498   5.219   2.646
  998SOL    HW2 5909   1.496   5.245   2.485
  999SOL     OW 5910   1.135   4.427   2.579
  999SOL    HW1 5911   1.192   4.505   2.554
  999SOL    HW2 5912   1.075   4.453   2.655
 1000SOL     OW 5913   1.755   4.331   2.093
 1000SOL    HW1 5914   1.743   4.318   1.994
 1000SOL    HW2 5915   1.725   4.250   2.142
 1001SOL     OW 5916   0.768   4.868   2.885
 1001SOL    HW1 5917   0.690   4.885   2.945
 1001SOL    HW2 5918   0.802   4.955   2.849
 1002SOL     OW 5919   0.685   4.736   2.527
 1002SOL    HW1 5920   0.754   4.720   2.597
 1002SOL    HW2 5921   0.612   4.793   2.565
 1003SOL     OW 5922   0.686   4.885   3.665
 1003SOL    HW1 5923   0.746   4.964   3.679
 1003SOL    HW2 5924   0.600   4.916   3.624
 1004SOL     OW 5925   0.335   5.159   2.923
 1004SOL    HW1 5926   0.257   5.128   2.870
 1004SOL    HW2 5927   0.393   5.217   2.866
 1005SOL     OW 5928   0.438   4.116   3.361
 1005SOL    HW1 5929   0.520   4.060   3.370
 1005SOL    HW2 5930   0.357   4.058   3.365
 1006SOL     OW 5931   1.603   4.171   2.599
 1006SOL    HW1 5932   1.529   4.217   2.549
 1006SOL    HW2 5933   1.654   4.239   2.652
 1007SOL     OW 5934   0.240   4.815   2.748
 1007SOL    HW1 5935   0.254   4.731   2.800
 1007SOL    HW2 5936   0.185   4.879   2.803
 1008SOL     OW 5937   0.606   4.688   1.985
 1008SOL    HW1 5938   0.613   4.772   1.931
 1008SOL    HW2 5939   0.652   4.701   2.073
 1009SOL     OW 5940   0.122   4.367   2.425
 1009SOL    HW1 5941   0.077   4.279   2.442
 1009SOL    HW2 5942   0.121   4.421   2.509
 1010SOL     OW 5943   1.689   4.646   2.474
 1010SOL    HW1 5944   1.784   4.617   2.482
 1010SOL    HW2 5945   1.681   4.711   2.399
 1011SOL     OW 5946   1.641   4.832   2.294
 1011SOL    HW1 5947   1.727   4.834   2.242
 1011SOL    HW2 5948   1.655   4.879   2.382
 1012SOL     OW 5949   0.113   4.461   3.459
 1012SOL    HW1 5950   0.201   4.448   3.504
 1012SOL    HW2 5951   0.100   4.558   3.437
 1013SOL     OW 5952   1.293   4.952   3.285
 1013SOL    HW1 5953   1.330   4.879   3.227
 1013SOL    HW2 5954   1.345   4.957   3.370
 1014SOL     OW 5955   0.809   3.728   2.364
 1014SOL    HW1 5956   0.849   3.819   2.355
 1014SOL    HW2 5957   0.709   3.736   2.370
 1015SOL     OW 5958   0.197   4.700   3.126
 1015SOL    HW1 5959   0.286   4.655   3.112
 1015SOL    HW2 5960   0.124   4.635   3.107
 1016SOL     OW 5961   1.525   4.723   2.052
 1016SOL    HW1 5962   1.462   4.647   2.065
 1016SOL    HW2 5963   1.573   4.741   2.138
 1017SOL     OW 5964   0.317   3.975   3.663
 1017SOL    HW1 5965   0.388   4.046   3.669
 1017SOL    HW2 5966   0.229   4.014   3.691
 1018SOL     OW 5967   1.466   5.141   2.815
 1018SOL    HW1 5968   1.407   5.147   2.895
 1018SOL    HW2 5969   1.451   5.053   2.769
 1019SOL     OW 5970   0.598   4.453   2.132
 1019SOL    HW1 5971   0.622   4.522   2.064
 1019SOL    HW2 5972   0.520   4.486   2.186
 1020SOL     OW 5973   1.281   4.069   2.806
 1020SOL    HW1 5974   1.195   4.019   2.793
 1020SOL    HW2 5975   1.343   4.015   2.862
 1021SOL     OW 5976   1.394   4.193   3.536
 1021SOL    HW1 5977   1.374   4.236   3.624
 1021SOL    HW2 5978   1.472   4.131   3.545
 1022SOL     OW 5979   0.973   4.614   3.434
 1022SOL    HW1 5980   1.019   4.530   3.405
 1022SOL    HW2 5981   0.917   4.648   3.359
 1023SOL     OW 5982   0.991   4.134   3.104
 1023SOL    HW1 5983   0.914   4.168   3.158
 1023SOL    HW2 5984   0.957   4.083   3.025
 1024SOL     OW 5985   1.041   4.425   2.291
 1024SOL    HW1 5986   1.067   4.421   2.387
 1024SOL    HW2 5987   0.956   4.374   2.277
 1025SOL     OW 5988   0.076   4.535   2.651
 1025SOL    HW1 5989   0.175   4.523   2.660
 1025SOL    HW2 5990   0.052   4.630   2.672
 1026SOL     OW 5991   0.865   4.072   2.057
 1026SOL    HW1 5992   0.924   4.135   2.008
 1026SOL    HW2 5993   0.884   3.978   2.028
 1027SOL     OW 5994   1.362   4.868   2.407
 1027SOL    HW1 5995   1.445   4.839   2.359
 1027SOL    HW2 5996   1.313   4.935   2.351
 1028SOL     OW 5997   1.795   4.790   2.735
 1028SOL    HW1 5998   1.733   4.775   2.659
 1028SOL    HW2 5999   1.743   4.801   2.820
 1029SOL     OW 6000   0.321   4.667   2.104
 1029SOL    HW1 6001   0.403   4.706   2.062
 1029SOL    HW2 6002   0.294   4.585   2.055
 1030SOL     OW 6003   1.458   4.459   2.590
 1030SOL    HW1 6004   1.453   4.394   2.665
 1030SOL    HW2 6005   1.538   4.518   2.603
 1031SOL     OW 6006   0.202   4.009   3.360
 1031SOL    HW1 6007   0.122   4.069   3.347
 1031SOL    HW2 6008   0.192   3.960   3.446
 1032SOL     OW 6009   1.632   5.101   1.943
 1032SOL    HW1 6010   1.600   5.195   1.933
 1032SOL    HW2 6011   1.556   5.038   1.931
 1033SOL     OW 6012   1.400   3.831   2.288
 1033SOL    HW1 6013   1.376   3.794   2.198
 1033SOL    HW2 6014   1.499   3.847   2.292
 1034SOL     OW 6015   0.614   3.846   1.979
 1034SOL    HW1 6016   0.712   3.824   1.986
 1034SOL    HW2 6017   0.583   3.829   1.886
 1035SOL     OW 6018   0.781   3.988   3.611
 1035SOL    HW1 6019   0.848   3.927   3.654
 1035SOL    HW2 6020   0.708   4.007   3.676
 1036SOL     OW 6021   1.351   4.314   3.295
 1036SOL    HW1 6022   1.379   4.271   3.380
 1036SOL    HW2 6023   1.376   4.410   3.296
 1037SOL     OW 6024   0.803   5.126   2.786
 1037SOL    HW1 6025   0.893   5.140   2.744
 1037SOL    HW2 6026   0.732   5.128   2.715
 1038SOL     OW 6027   0.922   4.227   2.761
 1038SOL    HW1 6028   0.897   4.218   2.665
 1038SOL    HW2 6029   0.970   4.145   2.792
 1039SOL     OW 6030   0.539   3.788   2.374
 1039SOL    HW1 6031   0.458   3.789   2.432
 1039SOL    HW2 6032   0.542   3.871   2.319
 1040SOL     OW 6033   1.434   4.912   1.903
 1040SOL    HW1 6034   1.466   4.836   1.960
 1040SOL    HW2 6035   1.342   4.939   1.933
 1041SOL     OW 6036   0.297   3.759   2.033
 1041SOL    HW1 6037   0.346   3.843   2.012
 1041SOL    HW2 6038   0.359   3.694   2.078
 1042SOL     OW 6039   0.935   3.960   2.342
 1042SOL    HW1 6040   0.887   4.001   2.264
 1042SOL    HW2 6041   1.034   3.958   2.323
 1043SOL     OW 6042   1.076   4.407   3.326
 1043SOL    HW1 6043   0.996   4.346   3.329
 1043SOL    HW2 6044   1.157   4.354   3.302
 1044SOL     OW 6045   0.459   4.876   2.603
 1044SOL    HW1 6046   0.388   4.849   2.668
 1044SOL    HW2 6047   0.433   4.848   2.510
 1045SOL     OW 6048   1.032   4.273   1.878
 1045SOL    HW1 6049   0.991   4.355   1.839
 1045SOL    HW2 6050   1.096   4.299   1.951
 1046SOL     OW 6051   0.078   4.280   3.248
 1046SOL    HW1 6052   0.170   4.279   3.207
 1046SOL    HW2 6053   0.072   4.354   3.315
 1047SOL     OW 6054   0.561   3.946   3.009
 1047SOL    HW1 6055   0.599   3.862   3.046
 1047SOL    HW2 6056   0.473   3.965   3.053
 1048SOL     OW 6057   1.017   3.763   2.615
 1048SOL    HW1 6058   0.945   3.768   2.546
 1048SOL    HW2 6059   0.993   3.694   2.684
 1049SOL     OW 6060   1.429   4.897   2.729
 1049SOL    HW1 6061   1.374   4.813   2.722
 1049SOL    HW2 6062   1.455   4.926   2.637
 1050SOL     OW 6063   1.466   4.314   2.854
 1050SOL    HW1 6064   1.436   4.219   2.861
 1050SOL    HW2 6065   1.539   4.330   2.920
 1051SOL     OW 6066   1.857   4.557   2.239
 1051SOL    HW1 6067   1.899   4.493   2.303
 1051SOL    HW2 6068   1.819   4.506   2.161
 1052SOL     OW 6069   1.664   5.004   2.519
 1052SOL    HW1 6070   1.763   5.012   2.533
 1052SOL    HW2 6071   1.619   5.088   2.550
 1053SOL     OW 6072   1.390   4.299   1.940
 1053SOL    HW1 6073   1.336   4.278   2.021
 1053SOL    HW2 6074   1.481   4.258   1.949
 1054SOL     OW 6075   0.527   3.980   2.190
 1054SOL    HW1 6076   0.554   3.921   2.115
 1054SOL    HW2 6077   0.527   4.075   2.159
 1055SOL     OW 6078   1.754   4.947   3.450
 1055SOL    HW1 6079   1.845   4.908   3.437
 1055SOL    HW2 6080   1.762   5.043   3.474
 1056SOL     OW 6081   1.638   4.823   2.941
 1056SOL    HW1 6082   1.643   4.904   3.000
 1056SOL    HW2 6083   1.552   4.825   2.890
 1057SOL     OW 6084   0.915   3.813   3.264
 1057SOL    HW1 6085   0.940   3.793   3.169
 1057SOL    HW2 6086   0.987   3.869   3.306
 1058SOL     OW 6087   0.980   4.840   3.581
 1058SOL    HW1 6088   0.881   4.846   3.591
 1058SOL    HW2 6089   1.003   4.760   3.525
 1059SOL     OW 6090   0.705   4.774   2.230
 1059SOL    HW1 6091   0.691   4.781   2.329
 1059SOL    HW2 6092   0.789   4.723   2.212
 1060SOL     OW 6093   0.410   4.537   3.113
 1060SOL    HW1 6094   0.496   4.549   3.163
 1060SOL    HW2 6095   0.368   4.450   3.140
 1061SOL     OW 6096   1.274   4.110   3.124
 1061SOL    HW1 6097   1.295   4.184   3.188
 1061SOL    HW2 6098   1.185   4.127   3.081
 1062SOL     OW 6099   0.367   4.824   2.363
 1062SOL    HW1 6100   0.360   4.907   2.307
 1062SOL    HW2 6101   0.371   4.744   2.303
 1063SOL     OW 6102   0.566   4.261   2.727
 1063SOL    HW1 6103   0.578   4.327   2.653
 1063SOL    HW2 6104   0.612   4.295   2.810
 1064SOL     OW 6105   1.582   4.363   2.334
 1064SOL    HW1 6106   1.551   4.424   2.407
 1064SOL    HW2 6107   1.632   4.415   2.265
 1065SOL     OW 6108   0.402   4.475   3.460
 1065SOL    HW1 6109   0.470   4.530   3.413
 1065SOL    HW2 6110   0.442   4.387   3.487
 1066SOL     OW 6111   1.587   4.503   3.532
 1066SOL    HW1 6112   1.495   4.541   3.527
 1066SOL    HW2 6113   1.647   4.550   3.467
 1067SOL     OW 6114   1.013   3.829   3.632
 1067SOL    HW1 6115   1.019   3.914   3.580
 1067SOL    HW2 6116   1.045   3.753   3.575
 1068SOL     OW 6117   0.504   3.774   3.602
 1068SOL    HW1 6118   0.462   3.717   3.532
 1068SOL    HW2 6119   0.438   3.843   3.634
 1069SOL     OW 6120   0.573   4.594   2.891
 1069SOL    HW1 6121   0.617   4.683   2.882
 1069SOL    HW2 6122   0.510   4.594   2.968
 1070SOL     OW 6123   1.360   4.586   2.907
 1070SOL    HW1 6124   1.285   4.586   2.841
 1070SOL    HW2 6125   1.397   4.494   2.916
 1071SOL     OW 6126   1.209   4.249   2.137
 1071SOL    HW1 6127   1.222   4.165   2.191
 1071SOL    HW2 6128   1.180   4.323   2.197
 1072SOL     OW 6129   0.307   3.937   3.093
 1072SOL    HW1 6130   0.284   3.974   3.183
 1072SOL    HW2 6131   0.277   3.842   3.087
 1073SOL     OW 6132   0.037   5.034   3.144
 1073SOL    HW1 6133   0.090   4.985   3.212
 1073SOL    HW2 6134   0.059   5.132   3.149
 1074SOL     OW 6135   0.732   4.358   2.926
 1074SOL    HW1 6136   0.791   4.332   2.850
 1074SOL    HW2 6137   0.704   4.454   2.915
 1075SOL     OW 6138   1.728   4.659   3.716
 1075SOL    HW1 6139   1.682   4.652   3.627
 1075SOL    HW2 6140   1.666   4.703   3.782
 1076SOL     OW 6141   1.622   4.091   2.236
 1076SOL    HW1 6142   1.624   4.015   2.300
 1076SOL    HW2 6143   1.574   4.168   2.276
 1077SOL     OW 6144   1.023   4.490   2.828
 1077SOL    HW1 6145   1.038   4.511   2.924
 1077SOL    HW2 6146   0.993   4.395   2.819
 1078SOL     OW 6147   1.859   5.242   3.467
 1078SOL    HW1 6148   1.873   5.269   3.372
 1078SOL    HW2 6149   1.942   5.264   3.520
 1079SOL     OW 6150   0.350   4.622   3.666
 1079SOL    HW1 6151   0.426   4.666   3.714
 1079SOL    HW2 6152   0.385   4.575   3.584
 1080SOL     OW 6153   1.540   3.998   1.987
 1080SOL    HW1 6154   1.479   3.923   2.010
 1080SOL    HW2 6155   1.562   4.050   2.070
 1081SOL     OW 6156   1.303   4.562   1.904
 1081SOL    HW1 6157   1.337   4.469   1.919
 1081SOL    HW2 6158   1.321   4.589   1.809
 1082SOL     OW 6159   0.319   4.534   2.811
 1082SOL    HW1 6160   0.412   4.570   2.816
 1082SOL    HW2 6161   0.313   4.449   2.863
 1083SOL     OW 6162   0.339   4.233   2.868
 1083SOL    HW1 6163   0.287   4.150   2.851
 1083SOL    HW2 6164   0.416   4.238   2.804
 1084SOL     OW 6165   1.138   4.104   3.540
 1084SOL    HW1 6166   1.093   4.167   3.604
 1084SOL    HW2 6167   1.231   4.135   3.523
 1085SOL     OW 6168   1.160   3.931   3.339
 1085SOL    HW1 6169   1.160   3.995   3.416
 1085SOL    HW2 6170   1.188   3.979   3.256
 1086SOL     OW 6171   1.002   4.520   3.100
 1086SOL    HW1 6172   1.043   4.488   3.186
 1086SOL    HW2 6173   0.906   4.493   3.097
 1087SOL     OW 6174   0.040   4.268   2.976
 1087SOL    HW1 6175   0.125   4.235   2.935
 1087SOL    HW2 6176   0.053   4.283   3.074
 1088SOL     OW 6177   0.189   4.244   3.584
 1088SOL    HW1 6178   0.248   4.204   3.514
 1088SOL    HW2 6179   0.131   4.315   3.543
 1089SOL     OW 6180   1.369   4.674   3.522
 1089SOL    HW1 6181   1.408   4.763   3.542
 1089SOL    HW2 6182   1.379   4.654   3.425
 1090SOL     OW 6183   0.159   4.861   3.328
 1090SOL    HW1 6184   0.181   4.800   3.404
 1090SOL    HW2 6185   0.169   4.812   3.242
 1091SOL     OW 6186   1.347   4.783   3.096
 1091SOL    HW1 6187   1.371   4.720   3.022
 1091SOL    HW2 6188   1.257   4.823   3.078
 1092SOL     OW 6189   1.302   4.579   2.171
 1092SOL    HW1 6190   1.216   4.548   2.213
 1092SOL    HW2 6191   1.298   4.565   2.072
 1093SOL     OW 6192   0.083   4.982   2.884
 1093SOL    HW1 6193   0.078   4.981   2.984
 1093SOL    HW2 6194   0.000   4.941   2.846
 1094SOL     OW 6195   1.726   3.859   2.385
 1094SOL    HW1 6196   1.799   3.842   2.318
 1094SOL    HW2 6197   1.695   3.772   2.423
 1095SOL     OW 6198   1.280   4.651   2.534
 1095SOL    HW1 6199   1.340   4.570   2.536
 1095SOL    HW2 6200   1.320   4.720   2.474
 1096SOL     OW 6201   0.830   4.997   3.284
 1096SOL    HW1 6202   0.825   5.030   3.379
 1096SOL    HW2 6203   0.744   5.016   3.238
 1097SOL     OW 6204   1.841   3.899   2.825
 1097SOL    HW1 6205   1.880   3.814   2.789
 1097SOL    HW2 6206   1.743   3.901   2.806
 1098SOL     OW 6207   1.194   5.336   1.893
 1098SOL    HW1 6208   1.200   5.243   1.930
 1098SOL    HW2 6209   1.135   5.336   1.813
 1099SOL     OW 6210   0.822   4.726   3.234
 1099SOL    HW1 6211   0.862   4.725   3.142
 1099SOL    HW2 6212   0.832   4.818   3.274
 1100SOL     OW 6213   0.916   4.634   2.153
 1100SOL    HW1 6214   0.979   4.672   2.085
 1100SOL    HW2 6215   0.956   4.551   2.192
 1101SOL     OW 6216   0.372   5.012   3.352
 1101SOL    HW1 6217   0.359   5.105   3.318
 1101SOL    HW2 6218   0.288   4.960   3.339
 1102SOL     OW 6219   1.614   5.016   3.151
 1102SOL    HW1 6220   1.674   5.019   3.231
 1102SOL    HW2 6221   1.539   5.080   3.164
 1103SOL     OW 6222   1.039   4.822   2.558
 1103SOL    HW1 6223   0.969   4.775   2.612
 1103SOL    HW2 6224   1.098   4.754   2.515
 1104SOL     OW 6225   1.014   3.960   2.833
 1104SOL    HW1 6226   1.006   3.924   2.740
 1104SOL    HW2 6227   1.012   3.884   2.898
 1105SOL     OW 6228   0.105   4.737   3.588
 1105SOL    HW1 6229   0.028   4.704   3.642
 1105SOL    HW2 6230   0.190   4.707   3.630
 1106SOL     OW 6231   0.672   3.927   3.351
 1106SOL    HW1 6232   0.762   3.911   3.311
 1106SOL    HW2 6233   0.680   3.932   3.450
 1107SOL     OW 6234   0.075   4.069   1.895
 1107SOL    HW1 6235  -0.017   4.041   1.866
 1107SOL    HW2 6236   0.106   4.146   1.839
 1108SOL     OW 6237   1.440   4.580   3.260
 1108SOL    HW1 6238   1.383   4.632   3.197
 1108SOL    HW2 6239   1.536   4.592   3.236
 1109SOL     OW 6240   0.072   3.890   2.180
 1109SOL    HW1 6241   0.055   3.973   2.126
 1109SOL    HW2 6242   0.162   3.853   2.158
 1110SOL     OW 6243   1.450   4.944   3.495
 1110SOL    HW1 6244   1.441   4.934   3.594
 1110SOL    HW2 6245   1.546   4.937   3.469
 1111SOL     OW 6246   1.674   4.607   3.116
 1111SOL    HW1 6247   1.647   4.518   3.079
 1111SOL    HW2 6248   1.675   4.675   3.043
 1112SOL     OW 6249   1.225   4.049   2.311
 1112SOL    HW1 6250   1.290   3.975   2.300
 1112SOL    HW2 6251   1.245   4.099   2.395
 1113SOL     OW 6252   0.594   4.469   2.514
 1113SOL    HW1 6253   0.644   4.554   2.495
 1113SOL    HW2 6254   0.506   4.471   2.466
 1114SOL     OW 6255   1.730   4.658   3.379
 1114SOL    HW1 6256   1.768   4.749   3.394
 1114SOL    HW2 6257   1.722   4.641   3.280
 1115SOL     OW 6258   0.859   4.680   2.723
 1115SOL    HW1 6259   0.913   4.611   2.771
 1115SOL    HW2 6260   0.827   4.749   2.789
 1116SOL     OW 6261   1.083   4.708   1.949
 1116SOL    HW1 6262   1.060   4.761   1.867
 1116SOL    HW2 6263   1.164   4.652   1.930
 1117SOL     OW 6264   0.079   4.964   2.515
 1117SOL    HW1 6265   0.078   4.917   2.603
 1117SOL    HW2 6266   0.161   4.936   2.464
 1118SOL     OW 6267   0.317   4.271   3.142
 1118SOL    HW1 6268   0.355   4.212   3.214
 1118SOL    HW2 6269   0.357   4.245   3.054
 1119SOL     OW 6270   1.424   3.938   2.974
 1119SOL    HW1 6271   1.476   3.873   3.029
 1119SOL    HW2 6272   1.375   4.001   3.035
 1120SOL     OW 6273   1.001   3.758   3.016
 1120SOL    HW1 6274   0.938   3.686   2.985
 1120SOL    HW2 6275   1.094   3.722   3.016
 1121SOL     OW 6276   0.770   5.054   2.163
 1121SOL    HW1 6277   0.724   4.967   2.180
 1121SOL    HW2 6278   0.861   5.051   2.204
 1122SOL     OW 6279   1.352   3.776   2.030
 1122SOL    HW1 6280   1.387   3.735   1.946
 1122SOL    HW2 6281   1.262   3.738   2.050
 1123SOL     OW 6282   1.300   4.177   2.553
 1123SOL    HW1 6283   1.241   4.257   2.557
 1123SOL    HW2 6284   1.315   4.142   2.646
 1124SOL     OW 6285   1.593   3.945   2.744
 1124SOL    HW1 6286   1.509   3.944   2.798
 1124SOL    HW2 6287   1.595   4.028   2.688
 1125SOL     OW 6288   0.039   4.801   2.162
 1125SOL    HW1 6289   0.138   4.790   2.153
 1125SOL    HW2 6290  -0.001   4.715   2.194
 1126SOL     OW 6291   0.230   4.352   3.837
 1126SOL    HW1 6292   0.137   4.350   3.874
 1126SOL    HW2 6293   0.231   4.313   3.745
 1127SOL     OW 6294   0.225   3.999   4.720
 1127SOL    HW1 6295   0.260   3.982   4.812
 1127SOL    HW2 6296   0.137   3.954   4.708
 1128SOL     OW 6297   0.019   4.092   4.371
 1128SOL    HW1 6298  -0.063   4.135   4.410
 1128SOL    HW2 6299  -0.009   4.019   4.308
 1129SOL     OW 6300   0.569   4.999   4.889
 1129SOL    HW1 6301   0.476   4.992   4.852
 1129SOL    HW2 6302   0.580   5.088   4.933
 1130SOL     OW 6303   1.555   5.235   4.427
 1130SOL    HW1 6304   1.498   5.219   4.508
 1130SOL    HW2 6305   1.496   5.245   4.347
 1131SOL     OW 6306   1.135   4.427   4.441
 1131SOL    HW1 6307   1.192   4.505   4.416
 1131SOL    HW2 6308   1.075   4.453   4.517
 1132SOL     OW 6309   0.768   4.868   4.747
 1132SOL    HW1 6310   0.690   4.885   4.807
 1132SOL    HW2 6311   0.802   4.955   4.711
 1133SOL     OW 6312   0.335   5.159   4.785
 1133SOL    HW1 6313   0.257   5.128   4.732
 1133SOL    HW2 6314   0.393   5.217   4.728
 1134SOL     OW 6315   1.603   4.171   4.461
 1134SOL    HW1 6316   1.529   4.217   4.411
 1134SOL    HW2 6317   1.654   4.239   4.514
 1135SOL     OW 6318   1.689   4.646   4.336
 1135SOL    HW1 6319   1.784   4.617   4.344
 1135SOL    HW2 6320   1.681   4.711   4.261
 1136SOL     OW 6321   1.641   4.832   4.156
 1136SOL    HW1 6322   1.727   4.834   4.104
 1136SOL    HW2 6323   1.655   4.879   4.244
 1137SOL     OW 6324   0.809   3.728   4.226
 1137SOL    HW1 6325   0.849   3.819   4.217
 1137SOL    HW2 6326   0.709   3.736   4.232
 1138SOL     OW 6327   1.525   4.723   3.914
 1138SOL    HW1 6328   1.462   4.647   3.927
 1138SOL    HW2 6329   1.573   4.741   4.000
 1139SOL     OW 6330   1.466   5.141   4.677
 1139SOL    HW1 6331   1.407   5.147   4.757
 1139SOL    HW2 6332   1.451   5.053   4.631
 1140SOL     OW 6333   1.281   4.069   4.668
 1140SOL    HW1 6334   1.195   4.019   4.655
 1140SOL    HW2 6335   1.343   4.015   4.724
 1141SOL     OW 6336   0.991   4.134   4.966
 1141SOL    HW1 6337   0.914   4.168   5.020
 1141SOL    HW2 6338   0.957   4.083   4.887
 1142SOL     OW 6339   1.041   4.425   4.153
 1142SOL    HW1 6340   1.067   4.421   4.249
 1142SOL    HW2 6341   0.956   4.374   4.139
 1143SOL     OW 6342   0.550   3.920   4.609
 1143SOL    HW1 6343   0.545   3.915   4.709
 1143SOL    HW2 6344   0.552   4.016   4.580
 1144SOL     OW 6345   1.795   4.790   4.597
 1144SOL    HW1 6346   1.733   4.775   4.521
 1144SOL    HW2 6347   1.743   4.801   4.682
 1145SOL     OW 6348   1.458   4.459   4.452
 1145SOL    HW1 6349   1.453   4.394   4.527
 1145SOL    HW2 6350   1.538   4.518   4.465
 1146SOL     OW 6351   1.632   5.101   3.805
 1146SOL    HW1 6352   1.600   5.195   3.795
 1146SOL    HW2 6353   1.556   5.038   3.793
 1147SOL     OW 6354   1.400   3.831   4.150
 1147SOL    HW1 6355   1.376   3.794   4.060
 1147SOL    HW2 6356   1.499   3.847   4.154
 1148SOL     OW 6357   0.382   4.424   4.204
 1148SOL    HW1 6358   0.427   4.334   4.201
 1148SOL    HW2 6359   0.288   4.413   4.237
 1149SOL     OW 6360   0.614   3.846   3.841
 1149SOL    HW1 6361   0.712   3.824   3.848
 1149SOL    HW2 6362   0.583   3.829   3.748
 1150SOL     OW 6363   0.922   4.227   4.623
 1150SOL    HW1 6364   0.897   4.218   4.527
 1150SOL    HW2 6365   0.970   4.145   4.654
 1151SOL     OW 6366   0.539   3.788   4.236
 1151SOL    HW1 6367   0.458   3.789   4.294
 1151SOL    HW2 6368   0.542   3.871   4.181
 1152SOL     OW 6369   1.434   4.912   3.765
 1152SOL    HW1 6370   1.466   4.836   3.822
 1152SOL    HW2 6371   1.342   4.939   3.795
 1153SOL     OW 6372   0.297   3.759   3.895
 1153SOL    HW1 6373   0.346   3.843   3.874
 1153SOL    HW2 6374   0.359   3.694   3.940
 1154SOL     OW 6375   0.561   3.946   4.871
 1154SOL    HW1 6376   0.599   3.862   4.908
 1154SOL    HW2 6377   0.473   3.965   4.915
 1155SOL     OW 6378   0.866   4.178   4.366
 1155SOL    HW1 6379   0.834   4.250   4.304
 1155SOL    HW2 6380   0.890   4.097   4.313
 1156SOL     OW 6381   1.429   4.897   4.591
 1156SOL    HW1 6382   1.374   4.813   4.584
 1156SOL    HW2 6383   1.455   4.926   4.499
 1157SOL     OW 6384   1.466   4.314   4.716
 1157SOL    HW1 6385   1.436   4.219   4.723
 1157SOL    HW2 6386   1.539   4.330   4.782
 1158SOL     OW 6387   1.664   5.004   4.381
 1158SOL    HW1 6388   1.763   5.012   4.395
 1158SOL    HW2 6389   1.619   5.088   4.412
 1159SOL     OW 6390   1.390   4.299   3.802
 1159SOL    HW1 6391   1.336   4.278   3.883
 1159SOL    HW2 6392   1.481   4.258   3.811
 1160SOL     OW 6393   0.527   3.980   4.052
 1160SOL    HW1 6394   0.554   3.921   3.977
 1160SOL    HW2 6395   0.527   4.075   4.021
 1161SOL     OW 6396   1.638   4.823   4.803
 1161SOL    HW1 6397   1.643   4.904   4.862
 1161SOL    HW2 6398   1.552   4.825   4.752
 1162SOL     OW 6399   1.274   4.110   4.986
 1162SOL    HW1 6400   1.295   4.184   5.050
 1162SOL    HW2 6401   1.185   4.127   4.943
 1163SOL     OW 6402   0.566   4.261   4.589
 1163SOL    HW1 6403   0.578   4.327   4.515
 1163SOL    HW2 6404   0.612   4.295   4.672
 1164SOL     OW 6405   1.582   4.363   4.196
 1164SOL    HW1 6406   1.551   4.424   4.269
 1164SOL    HW2 6407   1.632   4.415   4.127
 1165SOL     OW 6408   0.573   4.594   4.753
 1165SOL    HW1 6409   0.617   4.683   4.744
 1165SOL    HW2 6410   0.510   4.594   4.830
 1166SOL     OW 6411   1.360   4.586   4.769
 1166SOL    HW1 6412   1.285   4.586   4.703
 1166SOL    HW2 6413   1.397   4.494   4.778
 1167SOL     OW 6414   1.209   4.249   3.999
 1167SOL    HW1 6415   1.222   4.165   4.053
 1167SOL    HW2 6416   1.180   4.323   4.059
 1168SOL     OW 6417   0.307   3.937   4.955
 1168SOL    HW1 6418   0.284   3.974   5.045
 1168SOL    HW2 6419   0.277   3.842   4.949
 1169SOL     OW 6420   0.037   5.034   5.006
 1169SOL    HW1 6421   0.090   4.985   5.074
 1169SOL    HW2 6422   0.059   5.132   5.011
 1170SOL     OW 6423   0.732   4.358   4.788
 1170SOL    HW1 6424   0.791   4.332   4.712
 1170SOL    HW2 6425   0.704   4.454   4.777
 1171SOL     OW 6426   0.307   3.787   4.342
 1171SOL    HW1 6427   0.296   3.881   4.375
 1171SOL    HW2 6428   0.302   3.724   4.419
 1172SOL     OW 6429   1.023   4.490   4.690
 1172SOL    HW1 6430   1.038   4.511   4.786
 1172SOL    HW2 6431   0.993   4.395   4.681
 1173SOL     OW 6432   1.303   4.562   3.766
 1173SOL    HW1 6433   1.337   4.469   3.781
 1173SOL    HW2 6434   1.321   4.589   3.671
 1174SOL     OW 6435   0.339   4.233   4.730
 1174SOL    HW1 6436   0.287   4.150   4.713
 1174SOL    HW2 6437   0.416   4.238   4.666
 1175SOL     OW 6438   1.002   4.520   4.962
 1175SOL    HW1 6439   1.043   4.488   5.048
 1175SOL    HW2 6440   0.906   4.493   4.959
 1176SOL     OW 6441   0.040   4.268   4.838
 1176SOL    HW1 6442   0.125   4.235   4.797
 1176SOL    HW2 6443   0.053   4.283   4.936
 1177SOL     OW 6444   1.657   4.328   4.930
 1177SOL    HW1 6445   1.619   4.259   4.992
 1177SOL    HW2 6446   1.739   4.292   4.886
 1178SOL     OW 6447   0.671   4.188   4.993
 1178SOL    HW1 6448   0.637   4.099   4.963
 1178SOL    HW2 6449   0.697   4.242   4.913
 1179SOL     OW 6450   0.473   4.224   3.915
 1179SOL    HW1 6451   0.534   4.304   3.919
 1179SOL    HW2 6452   0.378   4.255   3.922
 1180SOL     OW 6453   1.347   4.783   4.958
 1180SOL    HW1 6454   1.371   4.720   4.884
 1180SOL    HW2 6455   1.257   4.823   4.940
 1181SOL     OW 6456   1.302   4.579   4.033
 1181SOL    HW1 6457   1.216   4.548   4.075
 1181SOL    HW2 6458   1.298   4.565   3.934
 1182SOL     OW 6459   1.726   3.859   4.247
 1182SOL    HW1 6460   1.799   3.842   4.180
 1182SOL    HW2 6461   1.695   3.772   4.285
 1183SOL     OW 6462   0.830   4.997   5.146
 1183SOL    HW1 6463   0.825   5.030   5.241
 1183SOL    HW2 6464   0.744   5.016   5.100
 1184SOL     OW 6465   1.841   3.899   4.687
 1184SOL    HW1 6466   1.880   3.814   4.651
 1184SOL    HW2 6467   1.743   3.901   4.668
 1185SOL     OW 6468   0.263   4.050   4.444
 1185SOL    HW1 6469   0.184   4.101   4.410
 1185SOL    HW2 6470   0.254   4.035   4.542
 1186SOL     OW 6471   0.822   4.726   5.096
 1186SOL    HW1 6472   0.862   4.725   5.004
 1186SOL    HW2 6473   0.832   4.818   5.136
 1187SOL     OW 6474   1.014   3.960   4.695
 1187SOL    HW1 6475   1.006   3.924   4.602
 1187SOL    HW2 6476   1.012   3.884   4.760
 1188SOL     OW 6477   1.709   4.109   5.105
 1188SOL    HW1 6478   1.782   4.178   5.109
 1188SOL    HW2 6479   1.737   4.034   5.046
 1189SOL     OW 6480   0.075   4.069   3.757
 1189SOL    HW1 6481  -0.017   4.041   3.728
 1189SOL    HW2 6482   0.106   4.146   3.701
 1190SOL     OW 6483   0.072   3.890   4.042
 1190SOL    HW1 6484   0.055   3.973   3.988
 1190SOL    HW2 6485   0.162   3.853   4.020
 1191SOL     OW 6486   1.450   4.944   5.357
 1191SOL    HW1 6487   1.441   4.934   5.456
 1191SOL    HW2 6488   1.546   4.937   5.331
 1192SOL     OW 6489   1.674   4.607   4.978
 1192SOL    HW1 6490   1.647   4.518   4.941
 1192SOL    HW2 6491   1.675   4.675   4.905
 1193SOL     OW 6492   1.225   4.049   4.173
 1193SOL    HW1 6493   1.290   3.975   4.162
 1193SOL    HW2 6494   1.245   4.099   4.257
 1194SOL     OW 6495   1.730   4.658   5.241
 1194SOL    HW1 6496   1.768   4.749   5.256
 1194SOL    HW2 6497   1.722   4.641   5.142
 1195SOL     OW 6498   0.859   4.680   4.585
 1195SOL    HW1 6499   0.913   4.611   4.633
 1195SOL    HW2 6500   0.827   4.749   4.651
 1196SOL     OW 6501   1.824   3.916   4.951
 1196SOL    HW1 6502   1.820   3.826   4.995
 1196SOL    HW2 6503   1.827   3.905   4.852
 1197SOL     OW 6504   0.428   4.148   4.244
 1197SOL    HW1 6505   0.458   4.076   4.182
 1197SOL    HW2 6506   0.389   4.108   4.327
 1198SOL     OW 6507   0.770   5.054   4.025
 1198SOL    HW1 6508   0.724   4.967   4.042
 1198SOL    HW2 6509   0.861   5.051   4.066
 1199SOL     OW 6510   1.352   3.776   3.892
 1199SOL    HW1 6511   1.387   3.735   3.808
 1199SOL    HW2 6512   1.262   3.738   3.912
 1200SOL     OW 6513   1.300   4.177   4.415
 1200SOL    HW1 6514   1.241   4.257   4.419
 1200SOL    HW2 6515   1.315   4.142   4.508
 1201SOL     OW 6516   1.593   3.945   4.606
 1201SOL    HW1 6517   1.509   3.944   4.660
 1201SOL    HW2 6518   1.595   4.028   4.550
 1202SOL     OW 6519   0.039   4.801   4.024
 1202SOL    HW1 6520   0.138   4.790   4.015
 1202SOL    HW2 6521  -0.001   4.715   4.056
 1203SOL     OW 6522   2.087   0.275   0.996
 1203SOL    HW1 6523   2.122   0.258   1.088
 1203SOL    HW2 6524   1.999   0.230   0.984
 1204SOL     OW 6525   1.881   0.368   0.647
 1204SOL    HW1 6526   1.799   0.411   0.686
 1204SOL    HW2 6527   1.853   0.295   0.584
 1205SOL     OW 6528   2.431   1.275   1.165
 1205SOL    HW1 6529   2.338   1.268   1.128
 1205SOL    HW2 6530   2.442   1.364   1.209
 1206SOL     OW 6531   3.417   1.511   0.703
 1206SOL    HW1 6532   3.360   1.495   0.784
 1206SOL    HW2 6533   3.358   1.521   0.623
 1207SOL     OW 6534   3.617   0.607   0.231
 1207SOL    HW1 6535   3.605   0.594   0.132
 1207SOL    HW2 6536   3.587   0.526   0.280
 1208SOL     OW 6537   2.630   1.144   1.023
 1208SOL    HW1 6538   2.552   1.161   1.083
 1208SOL    HW2 6539   2.664   1.231   0.987
 1209SOL     OW 6540   2.547   1.012   0.665
 1209SOL    HW1 6541   2.616   0.996   0.735
 1209SOL    HW2 6542   2.474   1.069   0.703
 1210SOL     OW 6543   2.548   1.161   1.803
 1210SOL    HW1 6544   2.608   1.240   1.817
 1210SOL    HW2 6545   2.462   1.192   1.762
 1211SOL     OW 6546   2.197   1.435   1.061
 1211SOL    HW1 6547   2.119   1.404   1.008
 1211SOL    HW2 6548   2.255   1.493   1.004
 1212SOL     OW 6549   3.322   1.505   1.339
 1212SOL    HW1 6550   3.346   1.599   1.365
 1212SOL    HW2 6551   3.306   1.451   1.421
 1213SOL     OW 6552   2.300   0.392   1.499
 1213SOL    HW1 6553   2.382   0.336   1.508
 1213SOL    HW2 6554   2.219   0.334   1.503
 1214SOL     OW 6555   3.465   0.447   0.737
 1214SOL    HW1 6556   3.391   0.493   0.687
 1214SOL    HW2 6557   3.516   0.515   0.790
 1215SOL     OW 6558   2.989   1.341   1.690
 1215SOL    HW1 6559   3.036   1.341   1.778
 1215SOL    HW2 6560   2.941   1.254   1.679
 1216SOL     OW 6561   2.102   1.091   0.886
 1216SOL    HW1 6562   2.116   1.007   0.938
 1216SOL    HW2 6563   2.047   1.155   0.941
 1217SOL     OW 6564   2.482   1.786   1.439
 1217SOL    HW1 6565   2.390   1.769   1.474
 1217SOL    HW2 6566   2.510   1.878   1.465
 1218SOL     OW 6567   1.984   0.643   0.563
 1218SOL    HW1 6568   1.939   0.555   0.580
 1218SOL    HW2 6569   1.983   0.697   0.647
 1219SOL     OW 6570   3.704   1.767   0.359
 1219SOL    HW1 6571   3.758   1.738   0.439
 1219SOL    HW2 6572   3.734   1.857   0.330
 1220SOL     OW 6573   3.551   0.922   0.612
 1220SOL    HW1 6574   3.646   0.893   0.620
 1220SOL    HW2 6575   3.543   0.987   0.537
 1221SOL     OW 6576   3.503   1.108   0.432
 1221SOL    HW1 6577   3.589   1.110   0.380
 1221SOL    HW2 6578   3.517   1.155   0.520
 1222SOL     OW 6579   1.975   0.737   1.597
 1222SOL    HW1 6580   2.063   0.724   1.642
 1222SOL    HW2 6581   1.962   0.834   1.575
 1223SOL     OW 6582   2.475   1.365   0.726
 1223SOL    HW1 6583   2.426   1.278   0.735
 1223SOL    HW2 6584   2.452   1.408   0.639
 1224SOL     OW 6585   3.155   1.228   1.423
 1224SOL    HW1 6586   3.192   1.155   1.365
 1224SOL    HW2 6587   3.207   1.233   1.508
 1225SOL     OW 6588   2.671   0.004   0.502
 1225SOL    HW1 6589   2.711   0.095   0.493
 1225SOL    HW2 6590   2.571   0.012   0.508
 1226SOL     OW 6591   2.059   0.976   1.264
 1226SOL    HW1 6592   2.148   0.931   1.250
 1226SOL    HW2 6593   1.986   0.911   1.245
 1227SOL     OW 6594   3.049   1.792   1.616
 1227SOL    HW1 6595   3.073   1.852   1.540
 1227SOL    HW2 6596   3.056   1.697   1.586
 1228SOL     OW 6597   2.179   0.251   1.801
 1228SOL    HW1 6598   2.250   0.322   1.807
 1228SOL    HW2 6599   2.091   0.290   1.829
 1229SOL     OW 6600   3.328   1.417   0.953
 1229SOL    HW1 6601   3.269   1.423   1.033
 1229SOL    HW2 6602   3.313   1.329   0.907
 1230SOL     OW 6603   3.529   1.714   0.572
 1230SOL    HW1 6604   3.488   1.691   0.484
 1230SOL    HW2 6605   3.511   1.640   0.637
 1231SOL     OW 6606   2.460   0.729   0.270
 1231SOL    HW1 6607   2.484   0.798   0.202
 1231SOL    HW2 6608   2.382   0.762   0.324
 1232SOL     OW 6609   3.143   0.345   0.944
 1232SOL    HW1 6610   3.057   0.295   0.931
 1232SOL    HW2 6611   3.205   0.291   1.000
 1233SOL     OW 6612   3.438   1.662   0.307
 1233SOL    HW1 6613   3.527   1.708   0.310
 1233SOL    HW2 6614   3.417   1.638   0.212
 1234SOL     OW 6615   3.256   0.469   1.674
 1234SOL    HW1 6616   3.236   0.512   1.762
 1234SOL    HW2 6617   3.334   0.407   1.683
 1235SOL     OW 6618   2.903   0.701   0.429
 1235SOL    HW1 6619   2.929   0.697   0.525
 1235SOL    HW2 6620   2.818   0.650   0.415
 1236SOL     OW 6621   1.938   0.811   0.789
 1236SOL    HW1 6622   2.037   0.799   0.798
 1236SOL    HW2 6623   1.914   0.906   0.810
 1237SOL     OW 6624   1.992   1.821   1.571
 1237SOL    HW1 6625   1.982   1.806   1.670
 1237SOL    HW2 6626   1.906   1.857   1.535
 1238SOL     OW 6627   2.727   0.348   0.195
 1238SOL    HW1 6628   2.786   0.411   0.146
 1238SOL    HW2 6629   2.746   0.254   0.166
 1239SOL     OW 6630   3.581   0.585   1.831
 1239SOL    HW1 6631   3.555   0.674   1.795
 1239SOL    HW2 6632   3.579   0.517   1.758
 1240SOL     OW 6633   2.412   0.196   0.885
 1240SOL    HW1 6634   2.407   0.191   0.985
 1240SOL    HW2 6635   2.414   0.292   0.856
 1241SOL     OW 6636   2.870   1.456   0.477
 1241SOL    HW1 6637   2.824   1.528   0.425
 1241SOL    HW2 6638   2.866   1.476   0.575
 1242SOL     OW 6639   2.213   1.801   0.853
 1242SOL    HW1 6640   2.263   1.715   0.859
 1242SOL    HW2 6641   2.278   1.878   0.850
 1243SOL     OW 6642   3.657   1.066   0.873
 1243SOL    HW1 6643   3.595   1.051   0.797
 1243SOL    HW2 6644   3.605   1.077   0.958
 1244SOL     OW 6645   3.089   1.550   1.506
 1244SOL    HW1 6646   3.095   1.473   1.570
 1244SOL    HW2 6647   3.037   1.524   1.426
 1245SOL     OW 6648   3.320   0.735   0.728
 1245SOL    HW1 6649   3.315   0.670   0.803
 1245SOL    HW2 6650   3.400   0.794   0.741
 1246SOL     OW 6651   2.323   1.266   1.727
 1246SOL    HW1 6652   2.273   1.267   1.641
 1246SOL    HW2 6653   2.260   1.248   1.803
 1247SOL     OW 6654   2.973   1.776   0.237
 1247SOL    HW1 6655   2.913   1.714   0.287
 1247SOL    HW2 6656   3.004   1.732   0.152
 1248SOL     OW 6657   2.064   0.285   1.498
 1248SOL    HW1 6658   1.984   0.345   1.485
 1248SOL    HW2 6659   2.054   0.236   1.584
 1249SOL     OW 6660   2.326   1.743   0.323
 1249SOL    HW1 6661   2.359   1.782   0.409
 1249SOL    HW2 6662   2.402   1.736   0.258
 1250SOL     OW 6663   2.111   1.785   1.241
 1250SOL    HW1 6664   2.168   1.720   1.291
 1250SOL    HW2 6665   2.095   1.752   1.148
 1251SOL     OW 6666   2.802   1.698   0.904
 1251SOL    HW1 6667   2.882   1.641   0.925
 1251SOL    HW2 6668   2.753   1.658   0.827
 1252SOL     OW 6669   2.244   0.700   0.480
 1252SOL    HW1 6670   2.289   0.610   0.477
 1252SOL    HW2 6671   2.150   0.689   0.513
 1253SOL     OW 6672   3.409   0.222   1.729
 1253SOL    HW1 6673   3.404   0.259   1.821
 1253SOL    HW2 6674   3.337   0.153   1.717
 1254SOL     OW 6675   2.643   0.264   1.749
 1254SOL    HW1 6676   2.710   0.203   1.792
 1254SOL    HW2 6677   2.570   0.283   1.814
 1255SOL     OW 6678   2.750   1.514   1.195
 1255SOL    HW1 6679   2.727   1.489   1.101
 1255SOL    HW2 6680   2.811   1.445   1.234
 1256SOL     OW 6681   3.213   0.590   1.433
 1256SOL    HW1 6682   3.241   0.547   1.518
 1256SOL    HW2 6683   3.238   0.686   1.434
 1257SOL     OW 6684   2.665   1.402   0.924
 1257SOL    HW1 6685   2.755   1.416   0.882
 1257SOL    HW2 6686   2.594   1.404   0.853
 1258SOL     OW 6687   2.401   0.064   0.512
 1258SOL    HW1 6688   2.320   0.065   0.570
 1258SOL    HW2 6689   2.404   0.147   0.457
 1259SOL     OW 6690   2.797   0.236   0.480
 1259SOL    HW1 6691   2.749   0.277   0.402
 1259SOL    HW2 6692   2.896   0.234   0.461
 1260SOL     OW 6693   2.938   0.683   1.464
 1260SOL    HW1 6694   2.858   0.622   1.467
 1260SOL    HW2 6695   3.019   0.630   1.440
 1261SOL     OW 6696   3.089   1.570   0.793
 1261SOL    HW1 6697   3.110   1.644   0.728
 1261SOL    HW2 6698   3.157   1.570   0.866
 1262SOL     OW 6699   2.321   1.152   0.741
 1262SOL    HW1 6700   2.250   1.125   0.806
 1262SOL    HW2 6701   2.295   1.124   0.648
 1263SOL     OW 6702   3.133   1.797   0.591
 1263SOL    HW1 6703   3.177   1.861   0.527
 1263SOL    HW2 6704   3.083   1.849   0.661
 1264SOL     OW 6705   2.894   0.549   0.016
 1264SOL    HW1 6706   2.853   0.631  -0.023
 1264SOL    HW2 6707   2.958   0.575   0.089
 1265SOL     OW 6708   1.940   0.556   1.386
 1265SOL    HW1 6709   2.032   0.555   1.345
 1265SOL    HW2 6710   1.934   0.630   1.453
 1266SOL     OW 6711   2.423   0.222   1.147
 1266SOL    HW1 6712   2.461   0.138   1.184
 1266SOL    HW2 6713   2.335   0.241   1.191
 1267SOL     OW 6714   2.879   0.039   0.753
 1267SOL    HW1 6715   2.807   0.044   0.684
 1267SOL    HW2 6716   2.855  -0.030   0.822
 1268SOL     OW 6717   3.291   1.173   0.867
 1268SOL    HW1 6718   3.236   1.089   0.860
 1268SOL    HW2 6719   3.317   1.202   0.775
 1269SOL     OW 6720   3.328   0.590   0.992
 1269SOL    HW1 6721   3.298   0.495   0.999
 1269SOL    HW2 6722   3.401   0.606   1.058
 1270SOL     OW 6723   3.526   1.280   0.657
 1270SOL    HW1 6724   3.625   1.288   0.671
 1270SOL    HW2 6725   3.481   1.364   0.688
 1271SOL     OW 6726   3.252   0.575   0.078
 1271SOL    HW1 6727   3.198   0.554   0.159
 1271SOL    HW2 6728   3.343   0.534   0.087
 1272SOL     OW 6729   3.616   1.223   1.588
 1272SOL    HW1 6730   3.707   1.184   1.575
 1272SOL    HW2 6731   3.624   1.319   1.612
 1273SOL     OW 6732   2.926   1.347   1.340
 1273SOL    HW1 6733   2.846   1.324   1.395
 1273SOL    HW2 6734   3.009   1.321   1.389
 1274SOL     OW 6735   3.454   1.629   1.625
 1274SOL    HW1 6736   3.481   1.663   1.535
 1274SOL    HW2 6737   3.533   1.591   1.671
 1275SOL     OW 6738   2.973   1.195   1.100
 1275SOL    HW1 6739   2.933   1.239   1.181
 1275SOL    HW2 6740   2.932   1.232   1.017
 1276SOL     OW 6741   3.500   1.099   1.079
 1276SOL    HW1 6742   3.505   1.180   1.138
 1276SOL    HW2 6743   3.414   1.101   1.028
 1277SOL     OW 6744   2.777   0.089   1.402
 1277SOL    HW1 6745   2.802   0.069   1.307
 1277SOL    HW2 6746   2.849   0.145   1.444
 1278SOL     OW 6747   2.567   1.050   0.368
 1278SOL    HW1 6748   2.553   1.057   0.467
 1278SOL    HW2 6749   2.651   0.999   0.350
 1279SOL     OW 6750   3.136   0.386   1.262
 1279SOL    HW1 6751   3.157   0.460   1.326
 1279SOL    HW2 6752   3.047   0.403   1.219
 1280SOL     OW 6753   1.926   1.564   1.331
 1280SOL    HW1 6754   1.880   1.646   1.297
 1280SOL    HW2 6755   2.024   1.583   1.340
 1281SOL     OW 6756   2.229   1.100   0.501
 1281SOL    HW1 6757   2.222   1.183   0.445
 1281SOL    HW2 6758   2.233   1.020   0.441
 1282SOL     OW 6759   3.134   1.445   1.142
 1282SOL    HW1 6760   3.181   1.458   1.229
 1282SOL    HW2 6761   3.068   1.371   1.151
 1283SOL     OW 6762   2.216   1.510   1.329
 1283SOL    HW1 6763   2.195   1.466   1.242
 1283SOL    HW2 6764   2.313   1.536   1.332
 1284SOL     OW 6765   3.449   0.779   1.670
 1284SOL    HW1 6766   3.357   0.817   1.665
 1284SOL    HW2 6767   3.509   0.826   1.605
 1285SOL     OW 6768   2.875   0.105   1.770
 1285SOL    HW1 6769   2.881   0.190   1.718
 1285SOL    HW2 6770   2.907   0.029   1.713
 1286SOL     OW 6771   2.366   0.050   1.740
 1286SOL    HW1 6772   2.324  -0.007   1.670
 1286SOL    HW2 6773   2.300   0.119   1.772
 1287SOL     OW 6774   3.222   0.862   1.045
 1287SOL    HW1 6775   3.147   0.862   0.979
 1287SOL    HW2 6776   3.259   0.770   1.054
 1288SOL     OW 6777   3.071   0.525   0.275
 1288SOL    HW1 6778   3.084   0.441   0.329
 1288SOL    HW2 6779   3.042   0.599   0.335
 1289SOL     OW 6780   2.169   0.213   1.231
 1289SOL    HW1 6781   2.146   0.250   1.321
 1289SOL    HW2 6782   2.139   0.118   1.225
 1290SOL     OW 6783   1.899   1.310   1.282
 1290SOL    HW1 6784   1.952   1.261   1.350
 1290SOL    HW2 6785   1.921   1.408   1.287
 1291SOL     OW 6786   3.590   0.935   1.854
 1291SOL    HW1 6787   3.544   0.928   1.765
 1291SOL    HW2 6788   3.528   0.979   1.920
 1292SOL     OW 6789   2.169   0.063   0.618
 1292SOL    HW1 6790   2.158   0.157   0.651
 1292SOL    HW2 6791   2.164   0.000   0.695
 1293SOL     OW 6792   2.842   1.573   1.700
 1293SOL    HW1 6793   2.822   1.617   1.612
 1293SOL    HW2 6794   2.881   1.482   1.684
 1294SOL     OW 6795   3.721   1.518   1.605
 1294SOL    HW1 6796   3.735   1.545   1.510
 1294SOL    HW2 6797   3.804   1.540   1.658
 1295SOL     OW 6798   2.212   0.898   1.804
 1295SOL    HW1 6799   2.288   0.942   1.852
 1295SOL    HW2 6800   2.247   0.851   1.722
 1296SOL     OW 6801   3.165   0.838   0.042
 1296SOL    HW1 6802   3.199   0.745   0.057
 1296SOL    HW2 6803   3.183   0.865  -0.053
 1297SOL     OW 6804   2.930   1.333   0.849
 1297SOL    HW1 6805   2.937   1.249   0.794
 1297SOL    HW2 6806   2.992   1.402   0.813
 1298SOL     OW 6807   2.181   0.810   0.949
 1298SOL    HW1 6808   2.274   0.846   0.954
 1298SOL    HW2 6809   2.175   0.725   1.001
 1299SOL     OW 6810   3.000   0.380   1.678
 1299SOL    HW1 6811   2.955   0.443   1.742
 1299SOL    HW2 6812   3.093   0.411   1.661
 1300SOL     OW 6813   3.022   0.207   1.477
 1300SOL    HW1 6814   3.022   0.271   1.554
 1300SOL    HW2 6815   3.050   0.255   1.394
 1301SOL     OW 6816   1.950   1.801   0.927
 1301SOL    HW1 6817   1.908   1.715   0.900
 1301SOL    HW2 6818   2.044   1.804   0.893
 1302SOL     OW 6819   2.366   1.568   0.910
 1302SOL    HW1 6820   2.432   1.642   0.919
 1302SOL    HW2 6821   2.410   1.489   0.868
 1303SOL     OW 6822   2.864   0.796   1.238
 1303SOL    HW1 6823   2.905   0.764   1.324
 1303SOL    HW2 6824   2.768   0.769   1.235
 1304SOL     OW 6825   1.902   0.544   1.114
 1304SOL    HW1 6826   1.987   0.511   1.073
 1304SOL    HW2 6827   1.915   0.559   1.212
 1305SOL     OW 6828   2.051   0.520   1.722
 1305SOL    HW1 6829   2.110   0.480   1.652
 1305SOL    HW2 6830   1.993   0.591   1.681
 1306SOL     OW 6831   2.677   0.572   0.325
 1306SOL    HW1 6832   2.684   0.483   0.279
 1306SOL    HW2 6833   2.583   0.606   0.317
 1307SOL     OW 6834   3.519   0.604   1.206
 1307SOL    HW1 6835   3.481   0.535   1.268
 1307SOL    HW2 6836   3.601   0.568   1.162
 1308SOL     OW 6837   2.114   1.564   1.744
 1308SOL    HW1 6838   2.084   1.621   1.820
 1308SOL    HW2 6839   2.107   1.467   1.770
 1309SOL     OW 6840   2.792   1.678   1.465
 1309SOL    HW1 6841   2.768   1.660   1.370
 1309SOL    HW2 6842   2.822   1.772   1.475
 1310SOL     OW 6843   2.021   1.137   1.466
 1310SOL    HW1 6844   2.043   1.076   1.542
 1310SOL    HW2 6845   2.031   1.088   1.380
 1311SOL     OW 6846   3.209   1.059   1.234
 1311SOL    HW1 6847   3.233   0.996   1.160
 1311SOL    HW2 6848   3.119   1.099   1.216
 1312SOL     OW 6849   3.164   0.855   0.309
 1312SOL    HW1 6850   3.078   0.824   0.351
 1312SOL    HW2 6851   3.160   0.841   0.210
 1313SOL     OW 6852   1.945   1.258   1.022
 1313SOL    HW1 6853   1.940   1.257   1.122
 1313SOL    HW2 6854   1.862   1.217   0.984
 1314SOL     OW 6855   2.550   1.662   1.716
 1314SOL    HW1 6856   2.494   1.743   1.725
 1314SOL    HW2 6857   2.602   1.666   1.630
 1315SOL     OW 6858   2.765   0.086   0.133
 1315SOL    HW1 6859   2.816   0.087   0.047
 1315SOL    HW2 6860   2.821   0.044   0.204
 1316SOL     OW 6861   3.250   1.573   0.477
 1316SOL    HW1 6862   3.317   1.585   0.403
 1316SOL    HW2 6863   3.210   1.662   0.500
 1317SOL     OW 6864   1.992   1.794   1.851
 1317SOL    HW1 6865   1.951   1.720   1.904
 1317SOL    HW2 6866   2.056   1.845   1.909
 1318SOL     OW 6867   2.692   1.273   1.422
 1318SOL    HW1 6868   2.687   1.306   1.517
 1318SOL    HW2 6869   2.606   1.292   1.376
 1319SOL     OW 6870   2.534   1.616   0.154
 1319SOL    HW1 6871   2.543   1.626   0.055
 1319SOL    HW2 6872   2.494   1.527   0.175
 1320SOL     OW 6873   3.512   1.720   1.394
 1320SOL    HW1 6874   3.565   1.730   1.310
 1320SOL    HW2 6875   3.485   1.810   1.428
 1321SOL     OW 6876   2.125   0.326   0.720
 1321SOL    HW1 6877   2.046   0.377   0.686
 1321SOL    HW2 6878   2.116   0.311   0.818
 1322SOL     OW 6879   3.056   1.612   0.031
 1322SOL    HW1 6880   3.062   1.519   0.068
 1322SOL    HW2 6881   2.997   1.612  -0.049
 1323SOL     OW 6882   3.366   1.607   0.044
 1323SOL    HW1 6883   3.274   1.644   0.051
 1323SOL    HW2 6884   3.404   1.627  -0.046
 1324SOL     OW 6885   2.234   1.288   1.490
 1324SOL    HW1 6886   2.221   1.381   1.456
 1324SOL    HW2 6887   2.150   1.236   1.477
 1325SOL     OW 6888   3.476   1.292   1.289
 1325SOL    HW1 6889   3.536   1.295   1.369
 1325SOL    HW2 6890   3.401   1.356   1.302
 1326SOL     OW 6891   2.901   1.098   0.696
 1326SOL    HW1 6892   2.831   1.051   0.750
 1326SOL    HW2 6893   2.960   1.030   0.653
 1327SOL     OW 6894   2.876   0.236   0.971
 1327SOL    HW1 6895   2.868   0.200   0.878
 1327SOL    HW2 6896   2.874   0.160   1.036
 1328SOL     OW 6897   2.452   1.487   0.491
 1328SOL    HW1 6898   2.494   1.429   0.421
 1328SOL    HW2 6899   2.408   1.566   0.447
 1329SOL     OW 6900   3.571   0.385   1.381
 1329SOL    HW1 6901   3.644   0.454   1.385
 1329SOL    HW2 6902   3.599   0.310   1.322
 1330SOL     OW 6903   1.967   1.013   1.726
 1330SOL    HW1 6904   1.890   0.980   1.780
 1330SOL    HW2 6905   2.052   0.983   1.768
 1331SOL     OW 6906   2.534   0.203   1.489
 1331SOL    HW1 6907   2.624   0.187   1.449
 1331SOL    HW2 6908   2.542   0.208   1.588
 1332SOL     OW 6909   3.302   0.856   1.398
 1332SOL    HW1 6910   3.245   0.908   1.335
 1332SOL    HW2 6911   3.398   0.868   1.374
 1333SOL     OW 6912   2.578   0.565   1.708
 1333SOL    HW1 6913   2.597   0.630   1.782
 1333SOL    HW2 6914   2.638   0.485   1.717
 1334SOL     OW 6915   2.252   1.741   1.560
 1334SOL    HW1 6916   2.161   1.782   1.558
 1334SOL    HW2 6917   2.245   1.647   1.592
 1335SOL     OW 6918   3.536   0.883   1.254
 1335SOL    HW1 6919   3.509   0.794   1.217
 1335SOL    HW2 6920   3.537   0.951   1.181
 1336SOL     OW 6921   3.087   0.325   0.449
 1336SOL    HW1 6922   3.152   0.251   0.438
 1336SOL    HW2 6923   3.107   0.375   0.533
 1337SOL     OW 6924   2.456   0.745   0.652
 1337SOL    HW1 6925   2.506   0.830   0.633
 1337SOL    HW2 6926   2.368   0.747   0.604
 1338SOL     OW 6927   3.639   0.342   1.642
 1338SOL    HW1 6928   3.622   0.373   1.548
 1338SOL    HW2 6929   3.555   0.305   1.680
 1339SOL     OW 6930   3.592   0.934   1.517
 1339SOL    HW1 6931   3.630   1.025   1.532
 1339SOL    HW2 6932   3.584   0.917   1.418
 1340SOL     OW 6933   2.721   1.374   0.016
 1340SOL    HW1 6934   2.675   1.389   0.104
 1340SOL    HW2 6935   2.765   1.459  -0.014
 1341SOL     OW 6936   2.523   1.790   0.953
 1341SOL    HW1 6937   2.477   1.878   0.940
 1341SOL    HW2 6938   2.622   1.802   0.946
 1342SOL     OW 6939   2.721   0.956   0.861
 1342SOL    HW1 6940   2.775   0.887   0.909
 1342SOL    HW2 6941   2.689   1.025   0.927
 1343SOL     OW 6942   3.723   1.569   0.851
 1343SOL    HW1 6943   3.652   1.557   0.781
 1343SOL    HW2 6944   3.724   1.490   0.911
 1344SOL     OW 6945   2.083   1.314   1.844
 1344SOL    HW1 6946   2.018   1.241   1.823
 1344SOL    HW2 6947   2.087   1.328   1.942
 1345SOL     OW 6948   2.534   1.391   1.624
 1345SOL    HW1 6949   2.456   1.341   1.662
 1345SOL    HW2 6950   2.531   1.486   1.655
 1346SOL     OW 6951   3.686   0.192   1.227
 1346SOL    HW1 6952   3.682   0.102   1.271
 1346SOL    HW2 6953   3.689   0.181   1.128
 1347SOL     OW 6954   3.567   1.487   1.104
 1347SOL    HW1 6955   3.474   1.462   1.077
 1347SOL    HW2 6956   3.593   1.437   1.186
 1348SOL     OW 6957   2.674   1.586   0.687
 1348SOL    HW1 6958   2.706   1.596   0.593
 1348SOL    HW2 6959   2.595   1.524   0.689
 1349SOL     OW 6960   2.632   1.330   0.301
 1349SOL    HW1 6961   2.586   1.243   0.318
 1349SOL    HW2 6962   2.723   1.327   0.342
 1350SOL     OW 6963   2.480   1.567   1.284
 1350SOL    HW1 6964   2.475   1.649   1.341
 1350SOL    HW2 6965   2.569   1.564   1.239
 1351SOL     OW 6966   3.162   0.453   0.691
 1351SOL    HW1 6967   3.103   0.533   0.695
 1351SOL    HW2 6968   3.177   0.418   0.784
 1352SOL     OW 6969   3.455   0.221   0.882
 1352SOL    HW1 6970   3.371   0.220   0.936
 1352SOL    HW2 6971   3.457   0.304   0.826
 1353SOL     OW 6972   2.737   1.646   0.337
 1353SOL    HW1 6973   2.660   1.611   0.283
 1353SOL    HW2 6974   2.705   1.717   0.399
 1354SOL     OW 6975   2.092   0.628   1.975
 1354SOL    HW1 6976   1.999   0.626   2.012
 1354SOL    HW2 6977   2.093   0.589   1.883
 1355SOL     OW 6978   2.087   0.275   2.858
 1355SOL    HW1 6979   2.122   0.258   2.950
 1355SOL    HW2 6980   1.999   0.230   2.846
 1356SOL     OW 6981   1.881   0.368   2.509
 1356SOL    HW1 6982   1.799   0.411   2.548
 1356SOL    HW2 6983   1.853   0.295   2.446
 1357SOL     OW 6984   2.997   0.703   2.579
 1357SOL    HW1 6985   3.054   0.781   2.554
 1357SOL    HW2 6986   2.937   0.729   2.655
 1358SOL     OW 6987   3.617   0.607   2.093
 1358SOL    HW1 6988   3.605   0.594   1.994
 1358SOL    HW2 6989   3.587   0.526   2.142
 1359SOL     OW 6990   2.712   0.798   3.685
 1359SOL    HW1 6991   2.708   0.874   3.750
 1359SOL    HW2 6992   2.734   0.834   3.594
 1360SOL     OW 6993   2.547   1.012   2.527
 1360SOL    HW1 6994   2.616   0.996   2.597
 1360SOL    HW2 6995   2.474   1.069   2.565
 1361SOL     OW 6996   2.548   1.161   3.665
 1361SOL    HW1 6997   2.608   1.240   3.679
 1361SOL    HW2 6998   2.462   1.192   3.624
 1362SOL     OW 6999   3.322   1.505   3.201
 1362SOL    HW1 7000   3.346   1.599   3.227
 1362SOL    HW2 7001   3.306   1.451   3.283
 1363SOL     OW 7002   3.465   0.447   2.599
 1363SOL    HW1 7003   3.391   0.493   2.549
 1363SOL    HW2 7004   3.516   0.515   2.652
 1364SOL     OW 7005   2.093   1.713   2.345
 1364SOL    HW1 7006   2.127   1.790   2.399
 1364SOL    HW2 7007   2.137   1.713   2.255
 1365SOL     OW 7008   2.989   1.341   3.552
 1365SOL    HW1 7009   3.036   1.341   3.640
 1365SOL    HW2 7010   2.941   1.254   3.541
 1366SOL     OW 7011   2.468   0.964   1.985
 1366SOL    HW1 7012   2.475   1.048   1.931
 1366SOL    HW2 7013   2.514   0.977   2.073
 1367SOL     OW 7014   3.456   0.114   3.342
 1367SOL    HW1 7015   3.438   0.181   3.270
 1367SOL    HW2 7016   3.453   0.160   3.431
 1368SOL     OW 7017   1.984   0.643   2.425
 1368SOL    HW1 7018   1.939   0.555   2.442
 1368SOL    HW2 7019   1.983   0.697   2.509
 1369SOL     OW 7020   1.889   1.596   1.979
 1369SOL    HW1 7021   1.870   1.500   2.000
 1369SOL    HW2 7022   1.856   1.654   2.054
 1370SOL     OW 7023   3.503   1.108   2.294
 1370SOL    HW1 7024   3.589   1.110   2.242
 1370SOL    HW2 7025   3.517   1.155   2.382
 1371SOL     OW 7026   1.975   0.737   3.459
 1371SOL    HW1 7027   2.063   0.724   3.504
 1371SOL    HW2 7028   1.962   0.834   3.437
 1372SOL     OW 7029   2.475   1.365   2.588
 1372SOL    HW1 7030   2.426   1.278   2.597
 1372SOL    HW2 7031   2.452   1.408   2.501
 1373SOL     OW 7032   2.671   0.004   2.364
 1373SOL    HW1 7033   2.711   0.095   2.355
 1373SOL    HW2 7034   2.571   0.012   2.370
 1374SOL     OW 7035   3.387   0.999   2.052
 1374SOL    HW1 7036   3.324   0.923   2.065
 1374SOL    HW2 7037   3.435   1.017   2.138
 1375SOL     OW 7038   2.179   0.251   3.663
 1375SOL    HW1 7039   2.250   0.322   3.669
 1375SOL    HW2 7040   2.091   0.290   3.691
 1376SOL     OW 7041   2.460   0.729   2.132
 1376SOL    HW1 7042   2.484   0.798   2.064
 1376SOL    HW2 7043   2.382   0.762   2.186
 1377SOL     OW 7044   3.143   0.345   2.806
 1377SOL    HW1 7045   3.057   0.295   2.793
 1377SOL    HW2 7046   3.205   0.291   2.862
 1378SOL     OW 7047   3.256   0.469   3.536
 1378SOL    HW1 7048   3.236   0.512   3.624
 1378SOL    HW2 7049   3.334   0.407   3.545
 1379SOL     OW 7050   2.835   0.890   3.434
 1379SOL    HW1 7051   2.881   0.806   3.405
 1379SOL    HW2 7052   2.779   0.924   3.359
 1380SOL     OW 7053   2.853   0.410   3.104
 1380SOL    HW1 7054   2.776   0.444   3.158
 1380SOL    HW2 7055   2.819   0.359   3.025
 1381SOL     OW 7056   2.903   0.701   2.291
 1381SOL    HW1 7057   2.929   0.697   2.387
 1381SOL    HW2 7058   2.818   0.650   2.277
 1382SOL     OW 7059   1.938   0.811   2.651
 1382SOL    HW1 7060   2.037   0.799   2.660
 1382SOL    HW2 7061   1.914   0.906   2.672
 1383SOL     OW 7062   2.727   0.348   2.057
 1383SOL    HW1 7063   2.786   0.411   2.008
 1383SOL    HW2 7064   2.746   0.254   2.028
 1384SOL     OW 7065   3.224   1.144   2.407
 1384SOL    HW1 7066   3.307   1.115   2.359
 1384SOL    HW2 7067   3.175   1.211   2.351
 1385SOL     OW 7068   2.412   0.196   2.747
 1385SOL    HW1 7069   2.407   0.191   2.847
 1385SOL    HW2 7070   2.414   0.292   2.718
 1386SOL     OW 7071   2.870   1.456   2.339
 1386SOL    HW1 7072   2.824   1.528   2.287
 1386SOL    HW2 7073   2.866   1.476   2.437
 1387SOL     OW 7074   2.213   1.801   2.715
 1387SOL    HW1 7075   2.263   1.715   2.721
 1387SOL    HW2 7076   2.278   1.878   2.712
 1388SOL     OW 7077   3.089   1.550   3.368
 1388SOL    HW1 7078   3.095   1.473   3.432
 1388SOL    HW2 7079   3.037   1.524   3.288
 1389SOL     OW 7080   2.183   0.943   2.104
 1389SOL    HW1 7081   2.265   0.982   2.062
 1389SOL    HW2 7082   2.156   0.861   2.055
 1390SOL     OW 7083   2.323   1.266   3.589
 1390SOL    HW1 7084   2.273   1.267   3.503
 1390SOL    HW2 7085   2.260   1.248   3.665
 1391SOL     OW 7086   2.973   1.776   2.099
 1391SOL    HW1 7087   2.913   1.714   2.149
 1391SOL    HW2 7088   3.004   1.732   2.014
 1392SOL     OW 7089   2.064   0.285   3.360
 1392SOL    HW1 7090   1.984   0.345   3.347
 1392SOL    HW2 7091   2.054   0.236   3.446
 1393SOL     OW 7092   2.326   1.743   2.185
 1393SOL    HW1 7093   2.359   1.782   2.271
 1393SOL    HW2 7094   2.402   1.736   2.120
 1394SOL     OW 7095   3.262   0.107   2.288
 1394SOL    HW1 7096   3.238   0.070   2.198
 1394SOL    HW2 7097   3.361   0.123   2.292
 1395SOL     OW 7098   2.244   0.700   2.342
 1395SOL    HW1 7099   2.289   0.610   2.339
 1395SOL    HW2 7100   2.150   0.689   2.375
 1396SOL     OW 7101   3.409   0.222   3.591
 1396SOL    HW1 7102   3.404   0.259   3.683
 1396SOL    HW2 7103   3.337   0.153   3.579
 1397SOL     OW 7104   2.476   0.122   1.979
 1397SOL    HW1 7105   2.574   0.100   1.986
 1397SOL    HW2 7106   2.445   0.105   1.886
 1398SOL     OW 7107   2.750   1.514   3.057
 1398SOL    HW1 7108   2.727   1.489   2.963
 1398SOL    HW2 7109   2.811   1.445   3.096
 1399SOL     OW 7110   3.213   0.590   3.295
 1399SOL    HW1 7111   3.241   0.547   3.380
 1399SOL    HW2 7112   3.238   0.686   3.296
 1400SOL     OW 7113   2.665   1.402   2.786
 1400SOL    HW1 7114   2.755   1.416   2.744
 1400SOL    HW2 7115   2.594   1.404   2.715
 1401SOL     OW 7116   2.784   0.503   2.761
 1401SOL    HW1 7117   2.759   0.494   2.665
 1401SOL    HW2 7118   2.832   0.421   2.792
 1402SOL     OW 7119   2.401   0.064   2.374
 1402SOL    HW1 7120   2.320   0.065   2.432
 1402SOL    HW2 7121   2.404   0.147   2.319
 1403SOL     OW 7122   3.296   1.188   1.903
 1403SOL    HW1 7123   3.328   1.112   1.960
 1403SOL    HW2 7124   3.204   1.215   1.933
 1404SOL     OW 7125   2.159   0.035   2.033
 1404SOL    HW1 7126   2.208   0.119   2.012
 1404SOL    HW2 7127   2.221  -0.030   2.078
 1405SOL     OW 7128   2.797   0.236   2.342
 1405SOL    HW1 7129   2.749   0.277   2.264
 1405SOL    HW2 7130   2.896   0.234   2.323
 1406SOL     OW 7131   2.938   0.683   3.326
 1406SOL    HW1 7132   2.858   0.622   3.329
 1406SOL    HW2 7133   3.019   0.630   3.302
 1407SOL     OW 7134   3.133   1.797   2.453
 1407SOL    HW1 7135   3.177   1.861   2.389
 1407SOL    HW2 7136   3.083   1.849   2.523
 1408SOL     OW 7137   2.728   0.454   2.504
 1408SOL    HW1 7138   2.696   0.526   2.442
 1408SOL    HW2 7139   2.752   0.373   2.451
 1409SOL     OW 7140   2.879   0.039   2.615
 1409SOL    HW1 7141   2.807   0.044   2.546
 1409SOL    HW2 7142   2.855  -0.030   2.684
 1410SOL     OW 7143   3.328   0.590   2.854
 1410SOL    HW1 7144   3.298   0.495   2.861
 1410SOL    HW2 7145   3.401   0.606   2.920
 1411SOL     OW 7146   3.719   0.833   2.239
 1411SOL    HW1 7147   3.761   0.769   2.303
 1411SOL    HW2 7148   3.681   0.782   2.161
 1412SOL     OW 7149   2.350   1.385   2.036
 1412SOL    HW1 7150   2.263   1.370   2.083
 1412SOL    HW2 7151   2.333   1.411   1.941
 1413SOL     OW 7152   3.526   1.280   2.519
 1413SOL    HW1 7153   3.625   1.288   2.533
 1413SOL    HW2 7154   3.481   1.364   2.550
 1414SOL     OW 7155   3.252   0.575   1.940
 1414SOL    HW1 7156   3.198   0.554   2.021
 1414SOL    HW2 7157   3.343   0.534   1.949
 1415SOL     OW 7158   2.389   0.256   2.190
 1415SOL    HW1 7159   2.416   0.197   2.115
 1415SOL    HW2 7160   2.389   0.351   2.159
 1416SOL     OW 7161   3.616   1.223   3.450
 1416SOL    HW1 7162   3.707   1.184   3.437
 1416SOL    HW2 7163   3.624   1.319   3.474
 1417SOL     OW 7164   2.926   1.347   3.202
 1417SOL    HW1 7165   2.846   1.324   3.257
 1417SOL    HW2 7166   3.009   1.321   3.251
 1418SOL     OW 7167   3.454   1.629   3.487
 1418SOL    HW1 7168   3.481   1.663   3.397
 1418SOL    HW2 7169   3.533   1.591   3.533
 1419SOL     OW 7170   2.973   1.195   2.962
 1419SOL    HW1 7171   2.933   1.239   3.043
 1419SOL    HW2 7172   2.932   1.232   2.879
 1420SOL     OW 7173   2.777   0.089   3.264
 1420SOL    HW1 7174   2.802   0.069   3.169
 1420SOL    HW2 7175   2.849   0.145   3.306
 1421SOL     OW 7176   2.842   1.116   3.581
 1421SOL    HW1 7177   2.743   1.122   3.591
 1421SOL    HW2 7178   2.865   1.036   3.525
 1422SOL     OW 7179   2.567   1.050   2.230
 1422SOL    HW1 7180   2.553   1.057   2.329
 1422SOL    HW2 7181   2.651   0.999   2.212
 1423SOL     OW 7182   3.136   0.386   3.124
 1423SOL    HW1 7183   3.157   0.460   3.188
 1423SOL    HW2 7184   3.047   0.403   3.081
 1424SOL     OW 7185   1.926   1.564   3.193
 1424SOL    HW1 7186   1.880   1.646   3.159
 1424SOL    HW2 7187   2.024   1.583   3.202
 1425SOL     OW 7188   2.428   0.537   2.727
 1425SOL    HW1 7189   2.440   0.603   2.653
 1425SOL    HW2 7190   2.474   0.571   2.810
 1426SOL     OW 7191   3.114   1.348   2.250
 1426SOL    HW1 7192   3.164   1.425   2.290
 1426SOL    HW2 7193   3.019   1.350   2.282
 1427SOL     OW 7194   3.444   0.639   2.334
 1427SOL    HW1 7195   3.413   0.700   2.407
 1427SOL    HW2 7196   3.494   0.691   2.265
 1428SOL     OW 7197   2.216   1.510   3.191
 1428SOL    HW1 7198   2.195   1.466   3.104
 1428SOL    HW2 7199   2.313   1.536   3.194
 1429SOL     OW 7200   2.875   0.105   3.632
 1429SOL    HW1 7201   2.881   0.190   3.580
 1429SOL    HW2 7202   2.907   0.029   3.575
 1430SOL     OW 7203   3.071   0.525   2.137
 1430SOL    HW1 7204   3.084   0.441   2.191
 1430SOL    HW2 7205   3.042   0.599   2.197
 1431SOL     OW 7206   2.169   0.213   3.093
 1431SOL    HW1 7207   2.146   0.250   3.183
 1431SOL    HW2 7208   2.139   0.118   3.087
 1432SOL     OW 7209   1.899   1.310   3.144
 1432SOL    HW1 7210   1.952   1.261   3.212
 1432SOL    HW2 7211   1.921   1.408   3.149
 1433SOL     OW 7212   2.169   0.063   2.480
 1433SOL    HW1 7213   2.158   0.157   2.513
 1433SOL    HW2 7214   2.164   0.000   2.557
 1434SOL     OW 7215   3.484   0.367   2.236
 1434SOL    HW1 7216   3.486   0.291   2.300
 1434SOL    HW2 7217   3.436   0.444   2.276
 1435SOL     OW 7218   3.721   1.518   3.467
 1435SOL    HW1 7219   3.735   1.545   3.372
 1435SOL    HW2 7220   3.804   1.540   3.520
 1436SOL     OW 7221   2.212   0.898   3.666
 1436SOL    HW1 7222   2.288   0.942   3.714
 1436SOL    HW2 7223   2.247   0.851   3.584
 1437SOL     OW 7224   3.402   0.274   1.987
 1437SOL    HW1 7225   3.341   0.199   2.010
 1437SOL    HW2 7226   3.424   0.326   2.070
 1438SOL     OW 7227   3.165   0.838   1.904
 1438SOL    HW1 7228   3.199   0.745   1.919
 1438SOL    HW2 7229   3.183   0.865   1.809
 1439SOL     OW 7230   2.930   1.333   2.711
 1439SOL    HW1 7231   2.937   1.249   2.656
 1439SOL    HW2 7232   2.992   1.402   2.675
 1440SOL     OW 7233   2.201   0.509   2.868
 1440SOL    HW1 7234   2.149   0.426   2.851
 1440SOL    HW2 7235   2.278   0.514   2.804
 1441SOL     OW 7236   3.000   0.380   3.540
 1441SOL    HW1 7237   2.955   0.443   3.604
 1441SOL    HW2 7238   3.093   0.411   3.523
 1442SOL     OW 7239   3.022   0.207   3.339
 1442SOL    HW1 7240   3.022   0.271   3.416
 1442SOL    HW2 7241   3.050   0.255   3.256
 1443SOL     OW 7242   1.870   1.326   2.062
 1443SOL    HW1 7243   1.777   1.347   2.031
 1443SOL    HW2 7244   1.880   1.227   2.075
 1444SOL     OW 7245   1.950   1.801   2.789
 1444SOL    HW1 7246   1.908   1.715   2.762
 1444SOL    HW2 7247   2.044   1.804   2.755
 1445SOL     OW 7248   2.864   0.796   3.100
 1445SOL    HW1 7249   2.905   0.764   3.186
 1445SOL    HW2 7250   2.768   0.769   3.097
 1446SOL     OW 7251   2.677   0.572   2.187
 1446SOL    HW1 7252   2.684   0.483   2.141
 1446SOL    HW2 7253   2.583   0.606   2.179
 1447SOL     OW 7254   3.519   0.604   3.068
 1447SOL    HW1 7255   3.481   0.535   3.130
 1447SOL    HW2 7256   3.601   0.568   3.024
 1448SOL     OW 7257   2.335   0.500   2.053
 1448SOL    HW1 7258   2.396   0.580   2.057
 1448SOL    HW2 7259   2.240   0.531   2.060
 1449SOL     OW 7260   2.021   1.137   3.328
 1449SOL    HW1 7261   2.043   1.076   3.404
 1449SOL    HW2 7262   2.031   1.088   3.242
 1450SOL     OW 7263   3.164   0.855   2.171
 1450SOL    HW1 7264   3.078   0.824   2.213
 1450SOL    HW2 7265   3.160   0.841   2.072
 1451SOL     OW 7266   3.588   0.135   2.385
 1451SOL    HW1 7267   3.661   0.118   2.318
 1451SOL    HW2 7268   3.557   0.048   2.423
 1452SOL     OW 7269   3.142   0.927   2.534
 1452SOL    HW1 7270   3.202   0.846   2.536
 1452SOL    HW2 7271   3.182   0.996   2.474
 1453SOL     OW 7272   2.692   1.273   3.284
 1453SOL    HW1 7273   2.687   1.306   3.379
 1453SOL    HW2 7274   2.606   1.292   3.238
 1454SOL     OW 7275   2.534   1.616   2.016
 1454SOL    HW1 7276   2.543   1.626   1.917
 1454SOL    HW2 7277   2.494   1.527   2.037
 1455SOL     OW 7278   3.512   1.720   3.256
 1455SOL    HW1 7279   3.565   1.730   3.172
 1455SOL    HW2 7280   3.485   1.810   3.290
 1456SOL     OW 7281   3.703   0.175   2.825
 1456SOL    HW1 7282   3.742   0.090   2.789
 1456SOL    HW2 7283   3.605   0.177   2.806
 1457SOL     OW 7284   2.125   0.326   2.582
 1457SOL    HW1 7285   2.046   0.377   2.548
 1457SOL    HW2 7286   2.116   0.311   2.680
 1458SOL     OW 7287   3.056   1.612   1.893
 1458SOL    HW1 7288   3.062   1.519   1.930
 1458SOL    HW2 7289   2.997   1.612   1.813
 1459SOL     OW 7290   2.876   0.236   2.833
 1459SOL    HW1 7291   2.868   0.200   2.740
 1459SOL    HW2 7292   2.874   0.160   2.898
 1460SOL     OW 7293   2.452   1.487   2.353
 1460SOL    HW1 7294   2.494   1.429   2.283
 1460SOL    HW2 7295   2.408   1.566   2.309
 1461SOL     OW 7296   3.571   0.385   3.243
 1461SOL    HW1 7297   3.644   0.454   3.247
 1461SOL    HW2 7298   3.599   0.310   3.184
 1462SOL     OW 7299   2.117   1.348   2.152
 1462SOL    HW1 7300   2.021   1.349   2.125
 1462SOL    HW2 7301   2.129   1.401   2.236
 1463SOL     OW 7302   2.534   0.203   3.351
 1463SOL    HW1 7303   2.624   0.187   3.311
 1463SOL    HW2 7304   2.542   0.208   3.450
 1464SOL     OW 7305   1.937   0.345   1.895
 1464SOL    HW1 7306   1.845   0.317   1.866
 1464SOL    HW2 7307   1.968   0.422   1.839
 1465SOL     OW 7308   3.302   0.856   3.260
 1465SOL    HW1 7309   3.245   0.908   3.197
 1465SOL    HW2 7310   3.398   0.868   3.236
 1466SOL     OW 7311   1.934   0.166   2.180
 1466SOL    HW1 7312   1.917   0.249   2.126
 1466SOL    HW2 7313   2.024   0.129   2.158
 1467SOL     OW 7314   3.045   1.335   1.981
 1467SOL    HW1 7315   2.946   1.324   1.983
 1467SOL    HW2 7316   3.079   1.350   2.074
 1468SOL     OW 7317   2.578   0.565   3.570
 1468SOL    HW1 7318   2.597   0.630   3.644
 1468SOL    HW2 7319   2.638   0.485   3.579
 1469SOL     OW 7320   3.312   1.220   3.495
 1469SOL    HW1 7321   3.303   1.210   3.594
 1469SOL    HW2 7322   3.408   1.213   3.469
 1470SOL     OW 7323   3.536   0.883   3.116
 1470SOL    HW1 7324   3.509   0.794   3.079
 1470SOL    HW2 7325   3.537   0.951   3.043
 1471SOL     OW 7326   3.087   0.325   2.311
 1471SOL    HW1 7327   3.152   0.251   2.300
 1471SOL    HW2 7328   3.107   0.375   2.395
 1472SOL     OW 7329   2.456   0.745   2.514
 1472SOL    HW1 7330   2.506   0.830   2.495
 1472SOL    HW2 7331   2.368   0.747   2.466
 1473SOL     OW 7332   3.592   0.934   3.379
 1473SOL    HW1 7333   3.630   1.025   3.394
 1473SOL    HW2 7334   3.584   0.917   3.280
 1474SOL     OW 7335   2.721   1.374   1.878
 1474SOL    HW1 7336   2.675   1.389   1.966
 1474SOL    HW2 7337   2.765   1.459   1.848
 1475SOL     OW 7338   2.534   1.391   3.486
 1475SOL    HW1 7339   2.456   1.341   3.524
 1475SOL    HW2 7340   2.531   1.486   3.517
 1476SOL     OW 7341   3.686   0.192   3.089
 1476SOL    HW1 7342   3.682   0.102   3.133
 1476SOL    HW2 7343   3.689   0.181   2.990
 1477SOL     OW 7344   2.290   0.424   2.382
 1477SOL    HW1 7345   2.320   0.352   2.320
 1477SOL    HW2 7346   2.251   0.384   2.465
 1478SOL     OW 7347   2.179   0.547   3.142
 1478SOL    HW1 7348   2.217   0.488   3.214
 1478SOL    HW2 7349   2.219   0.521   3.054
 1479SOL     OW 7350   2.674   1.586   2.549
 1479SOL    HW1 7351   2.706   1.596   2.455
 1479SOL    HW2 7352   2.595   1.524   2.551
 1480SOL     OW 7353   3.286   0.214   2.974
 1480SOL    HW1 7354   3.338   0.149   3.029
 1480SOL    HW2 7355   3.237   0.277   3.035
 1481SOL     OW 7356   2.632   1.330   2.163
 1481SOL    HW1 7357   2.586   1.243   2.180
 1481SOL    HW2 7358   2.723   1.327   2.204
 1482SOL     OW 7359   3.214   0.052   2.030
 1482SOL    HW1 7360   3.249   0.011   1.946
 1482SOL    HW2 7361   3.124   0.014   2.050
 1483SOL     OW 7362   3.162   0.453   2.553
 1483SOL    HW1 7363   3.103   0.533   2.557
 1483SOL    HW2 7364   3.177   0.418   2.646
 1484SOL     OW 7365   3.455   0.221   2.744
 1484SOL    HW1 7366   3.371   0.220   2.798
 1484SOL    HW2 7367   3.457   0.304   2.688
 1485SOL     OW 7368   1.901   1.077   2.162
 1485SOL    HW1 7369   2.000   1.066   2.153
 1485SOL    HW2 7370   1.861   0.991   2.194
 1486SOL     OW 7371   2.737   1.646   2.199
 1486SOL    HW1 7372   2.660   1.611   2.145
 1486SOL    HW2 7373   2.705   1.717   2.261
 1487SOL     OW 7374   2.092   0.628   3.837
 1487SOL    HW1 7375   1.999   0.626   3.874
 1487SOL    HW2 7376   2.093   0.589   3.745
 1488SOL     OW 7377   1.881   0.368   4.371
 1488SOL    HW1 7378   1.799   0.411   4.410
 1488SOL    HW2 7379   1.853   0.295   4.308
 1489SOL     OW 7380   2.431   1.275   4.889
 1489SOL    HW1 7381   2.338   1.268   4.852
 1489SOL    HW2 7382   2.442   1.364   4.933
 1490SOL     OW 7383   2.630   1.144   4.747
 1490SOL    HW1 7384   2.552   1.161   4.807
 1490SOL    HW2 7385   2.664   1.231   4.711
 1491SOL     OW 7386   2.547   1.012   4.389
 1491SOL    HW1 7387   2.616   0.996   4.459
 1491SOL    HW2 7388   2.474   1.069   4.427
 1492SOL     OW 7389   2.197   1.435   4.785
 1492SOL    HW1 7390   2.119   1.404   4.732
 1492SOL    HW2 7391   2.255   1.493   4.728
 1493SOL     OW 7392   3.465   0.447   4.461
 1493SOL    HW1 7393   3.391   0.493   4.411
 1493SOL    HW2 7394   3.516   0.515   4.514
 1494SOL     OW 7395   2.093   1.713   4.207
 1494SOL    HW1 7396   2.127   1.790   4.261
 1494SOL    HW2 7397   2.137   1.713   4.117
 1495SOL     OW 7398   2.092   1.434   4.262
 1495SOL    HW1 7399   2.066   1.530   4.262
 1495SOL    HW2 7400   2.021   1.380   4.307
 1496SOL     OW 7401   2.102   1.091   4.610
 1496SOL    HW1 7402   2.116   1.007   4.662
 1496SOL    HW2 7403   2.047   1.155   4.665
 1497SOL     OW 7404   2.468   0.964   3.847
 1497SOL    HW1 7405   2.475   1.048   3.793
 1497SOL    HW2 7406   2.514   0.977   3.935
 1498SOL     OW 7407   1.984   0.643   4.287
 1498SOL    HW1 7408   1.939   0.555   4.304
 1498SOL    HW2 7409   1.983   0.697   4.371
 1499SOL     OW 7410   1.889   1.596   3.841
 1499SOL    HW1 7411   1.870   1.500   3.862
 1499SOL    HW2 7412   1.856   1.654   3.916
 1500SOL     OW 7413   3.551   0.922   4.336
 1500SOL    HW1 7414   3.646   0.893   4.344
 1500SOL    HW2 7415   3.543   0.987   4.261
 1501SOL     OW 7416   3.503   1.108   4.156
 1501SOL    HW1 7417   3.589   1.110   4.104
 1501SOL    HW2 7418   3.517   1.155   4.244
 1502SOL     OW 7419   2.475   1.365   4.450
 1502SOL    HW1 7420   2.426   1.278   4.459
 1502SOL    HW2 7421   2.452   1.408   4.363
 1503SOL     OW 7422   2.059   0.976   4.988
 1503SOL    HW1 7423   2.148   0.931   4.974
 1503SOL    HW2 7424   1.986   0.911   4.969
 1504SOL     OW 7425   3.387   0.999   3.914
 1504SOL    HW1 7426   3.324   0.923   3.927
 1504SOL    HW2 7427   3.435   1.017   4.000
 1505SOL     OW 7428   3.328   1.417   4.677
 1505SOL    HW1 7429   3.269   1.423   4.757
 1505SOL    HW2 7430   3.313   1.329   4.631
 1506SOL     OW 7431   3.529   1.714   4.296
 1506SOL    HW1 7432   3.488   1.691   4.208
 1506SOL    HW2 7433   3.511   1.640   4.361
 1507SOL     OW 7434   2.460   0.729   3.994
 1507SOL    HW1 7435   2.484   0.798   3.926
 1507SOL    HW2 7436   2.382   0.762   4.048
 1508SOL     OW 7437   3.438   1.662   4.031
 1508SOL    HW1 7438   3.527   1.708   4.034
 1508SOL    HW2 7439   3.417   1.638   3.936
 1509SOL     OW 7440   2.903   0.701   4.153
 1509SOL    HW1 7441   2.929   0.697   4.249
 1509SOL    HW2 7442   2.818   0.650   4.139
 1510SOL     OW 7443   1.938   0.811   4.513
 1510SOL    HW1 7444   2.037   0.799   4.522
 1510SOL    HW2 7445   1.914   0.906   4.534
 1511SOL     OW 7446   2.727   0.348   3.919
 1511SOL    HW1 7447   2.786   0.411   3.870
 1511SOL    HW2 7448   2.746   0.254   3.890
 1512SOL     OW 7449   3.224   1.144   4.269
 1512SOL    HW1 7450   3.307   1.115   4.221
 1512SOL    HW2 7451   3.175   1.211   4.213
 1513SOL     OW 7452   2.412   0.196   4.609
 1513SOL    HW1 7453   2.407   0.191   4.709
 1513SOL    HW2 7454   2.414   0.292   4.580
 1514SOL     OW 7455   2.870   1.456   4.201
 1514SOL    HW1 7456   2.824   1.528   4.149
 1514SOL    HW2 7457   2.866   1.476   4.299
 1515SOL     OW 7458   2.213   1.801   4.577
 1515SOL    HW1 7459   2.263   1.715   4.583
 1515SOL    HW2 7460   2.278   1.878   4.574
 1516SOL     OW 7461   3.657   1.066   4.597
 1516SOL    HW1 7462   3.595   1.051   4.521
 1516SOL    HW2 7463   3.605   1.077   4.682
 1517SOL     OW 7464   2.973   1.776   3.961
 1517SOL    HW1 7465   2.913   1.714   4.011
 1517SOL    HW2 7466   3.004   1.732   3.876
 1518SOL     OW 7467   3.494   1.377   3.805
 1518SOL    HW1 7468   3.462   1.471   3.795
 1518SOL    HW2 7469   3.418   1.314   3.793
 1519SOL     OW 7470   3.262   0.107   4.150
 1519SOL    HW1 7471   3.238   0.070   4.060
 1519SOL    HW2 7472   3.361   0.123   4.154
 1520SOL     OW 7473   2.244   0.700   4.204
 1520SOL    HW1 7474   2.289   0.610   4.201
 1520SOL    HW2 7475   2.150   0.689   4.237
 1521SOL     OW 7476   3.296   1.188   3.765
 1521SOL    HW1 7477   3.328   1.112   3.822
 1521SOL    HW2 7478   3.204   1.215   3.795
 1522SOL     OW 7479   2.321   1.152   4.465
 1522SOL    HW1 7480   2.250   1.125   4.530
 1522SOL    HW2 7481   2.295   1.124   4.372
 1523SOL     OW 7482   2.423   0.222   4.871
 1523SOL    HW1 7483   2.461   0.138   4.908
 1523SOL    HW2 7484   2.335   0.241   4.915
 1524SOL     OW 7485   2.879   0.039   4.477
 1524SOL    HW1 7486   2.807   0.044   4.408
 1524SOL    HW2 7487   2.855  -0.030   4.546
 1525SOL     OW 7488   3.291   1.173   4.591
 1525SOL    HW1 7489   3.236   1.089   4.584
 1525SOL    HW2 7490   3.317   1.202   4.499
 1526SOL     OW 7491   3.719   0.833   4.101
 1526SOL    HW1 7492   3.761   0.769   4.165
 1526SOL    HW2 7493   3.681   0.782   4.023
 1527SOL     OW 7494   2.350   1.385   3.898
 1527SOL    HW1 7495   2.263   1.370   3.945
 1527SOL    HW2 7496   2.333   1.411   3.803
 1528SOL     OW 7497   3.526   1.280   4.381
 1528SOL    HW1 7498   3.625   1.288   4.395
 1528SOL    HW2 7499   3.481   1.364   4.412
 1529SOL     OW 7500   2.389   0.256   4.052
 1529SOL    HW1 7501   2.416   0.197   3.977
 1529SOL    HW2 7502   2.389   0.351   4.021
 1530SOL     OW 7503   3.500   1.099   4.803
 1530SOL    HW1 7504   3.505   1.180   4.862
 1530SOL    HW2 7505   3.414   1.101   4.752
 1531SOL     OW 7506   2.567   1.050   4.092
 1531SOL    HW1 7507   2.553   1.057   4.191
 1531SOL    HW2 7508   2.651   0.999   4.074
 1532SOL     OW 7509   2.272   0.813   4.975
 1532SOL    HW1 7510   2.358   0.825   5.025
 1532SOL    HW2 7511   2.230   0.726   5.002
 1533SOL     OW 7512   2.428   0.537   4.589
 1533SOL    HW1 7513   2.440   0.603   4.515
 1533SOL    HW2 7514   2.474   0.571   4.672
 1534SOL     OW 7515   3.114   1.348   4.112
 1534SOL    HW1 7516   3.164   1.425   4.152
 1534SOL    HW2 7517   3.019   1.350   4.144
 1535SOL     OW 7518   3.444   0.639   4.196
 1535SOL    HW1 7519   3.413   0.700   4.269
 1535SOL    HW2 7520   3.494   0.691   4.127
 1536SOL     OW 7521   2.435   0.870   4.753
 1536SOL    HW1 7522   2.479   0.959   4.744
 1536SOL    HW2 7523   2.372   0.870   4.830
 1537SOL     OW 7524   3.222   0.862   4.769
 1537SOL    HW1 7525   3.147   0.862   4.703
 1537SOL    HW2 7526   3.259   0.770   4.778
 1538SOL     OW 7527   2.594   0.634   4.788
 1538SOL    HW1 7528   2.653   0.608   4.712
 1538SOL    HW2 7529   2.566   0.730   4.777
 1539SOL     OW 7530   3.484   0.367   4.098
 1539SOL    HW1 7531   3.486   0.291   4.162
 1539SOL    HW2 7532   3.436   0.444   4.138
 1540SOL     OW 7533   3.402   0.274   3.849
 1540SOL    HW1 7534   3.341   0.199   3.872
 1540SOL    HW2 7535   3.424   0.326   3.932
 1541SOL     OW 7536   2.181   0.810   4.673
 1541SOL    HW1 7537   2.274   0.846   4.678
 1541SOL    HW2 7538   2.175   0.725   4.725
 1542SOL     OW 7539   2.201   0.509   4.730
 1542SOL    HW1 7540   2.149   0.426   4.713
 1542SOL    HW2 7541   2.278   0.514   4.666
 1543SOL     OW 7542   2.366   1.568   4.634
 1543SOL    HW1 7543   2.432   1.642   4.643
 1543SOL    HW2 7544   2.410   1.489   4.592
 1544SOL     OW 7545   2.864   0.796   4.962
 1544SOL    HW1 7546   2.905   0.764   5.048
 1544SOL    HW2 7547   2.768   0.769   4.959
 1545SOL     OW 7548   1.902   0.544   4.838
 1545SOL    HW1 7549   1.987   0.511   4.797
 1545SOL    HW2 7550   1.915   0.559   4.936
 1546SOL     OW 7551   2.677   0.572   4.049
 1546SOL    HW1 7552   2.684   0.483   4.003
 1546SOL    HW2 7553   2.583   0.606   4.041
 1547SOL     OW 7554   3.519   0.604   4.930
 1547SOL    HW1 7555   3.481   0.535   4.992
 1547SOL    HW2 7556   3.601   0.568   4.886
 1548SOL     OW 7557   2.533   0.464   4.993
 1548SOL    HW1 7558   2.499   0.375   4.963
 1548SOL    HW2 7559   2.559   0.518   4.913
 1549SOL     OW 7560   2.792   1.678   5.189
 1549SOL    HW1 7561   2.768   1.660   5.094
 1549SOL    HW2 7562   2.822   1.772   5.199
 1550SOL     OW 7563   2.335   0.500   3.915
 1550SOL    HW1 7564   2.396   0.580   3.919
 1550SOL    HW2 7565   2.240   0.531   3.922
 1551SOL     OW 7566   3.164   0.855   4.033
 1551SOL    HW1 7567   3.078   0.824   4.075
 1551SOL    HW2 7568   3.160   0.841   3.934
 1552SOL     OW 7569   3.114   1.731   4.852
 1552SOL    HW1 7570   3.198   1.736   4.798
 1552SOL    HW2 7571   3.091   1.635   4.870
 1553SOL     OW 7572   1.945   1.258   4.746
 1553SOL    HW1 7573   1.940   1.257   4.846
 1553SOL    HW2 7574   1.862   1.217   4.708
 1554SOL     OW 7575   3.142   0.927   4.396
 1554SOL    HW1 7576   3.202   0.846   4.398
 1554SOL    HW2 7577   3.182   0.996   4.336
 1555SOL     OW 7578   3.512   1.720   5.118
 1555SOL    HW1 7579   3.565   1.730   5.034
 1555SOL    HW2 7580   3.485   1.810   5.152
 1556SOL     OW 7581   3.703   0.175   4.687
 1556SOL    HW1 7582   3.742   0.090   4.651
 1556SOL    HW2 7583   3.605   0.177   4.668
 1557SOL     OW 7584   2.125   0.326   4.444
 1557SOL    HW1 7585   2.046   0.377   4.410
 1557SOL    HW2 7586   2.116   0.311   4.542
 1558SOL     OW 7587   3.056   1.612   3.755
 1558SOL    HW1 7588   3.062   1.519   3.792
 1558SOL    HW2 7589   2.997   1.612   3.675
 1559SOL     OW 7590   2.684   1.002   5.096
 1559SOL    HW1 7591   2.724   1.001   5.004
 1559SOL    HW2 7592   2.694   1.094   5.136
 1560SOL     OW 7593   2.778   0.910   4.015
 1560SOL    HW1 7594   2.841   0.948   3.947
 1560SOL    HW2 7595   2.818   0.827   4.054
 1561SOL     OW 7596   3.366   1.607   3.768
 1561SOL    HW1 7597   3.274   1.644   3.775
 1561SOL    HW2 7598   3.404   1.627   3.678
 1562SOL     OW 7599   2.901   1.098   4.420
 1562SOL    HW1 7600   2.831   1.051   4.474
 1562SOL    HW2 7601   2.960   1.030   4.377
 1563SOL     OW 7602   3.571   0.385   5.105
 1563SOL    HW1 7603   3.644   0.454   5.109
 1563SOL    HW2 7604   3.599   0.310   5.046
 1564SOL     OW 7605   2.117   1.348   4.014
 1564SOL    HW1 7606   2.021   1.349   3.987
 1564SOL    HW2 7607   2.129   1.401   4.098
 1565SOL     OW 7608   1.934   0.166   4.042
 1565SOL    HW1 7609   1.917   0.249   3.988
 1565SOL    HW2 7610   2.024   0.129   4.020
 1566SOL     OW 7611   3.045   1.335   3.843
 1566SOL    HW1 7612   2.946   1.324   3.845
 1566SOL    HW2 7613   3.079   1.350   3.936
 1567SOL     OW 7614   3.355   1.767   4.683
 1567SOL    HW1 7615   3.388   1.831   4.614
 1567SOL    HW2 7616   3.421   1.761   4.758
 1568SOL     OW 7617   3.536   0.883   4.978
 1568SOL    HW1 7618   3.509   0.794   4.941
 1568SOL    HW2 7619   3.537   0.951   4.905
 1569SOL     OW 7620   3.087   0.325   4.173
 1569SOL    HW1 7621   3.152   0.251   4.162
 1569SOL    HW2 7622   3.107   0.375   4.257
 1570SOL     OW 7623   2.456   0.745   4.376
 1570SOL    HW1 7624   2.506   0.830   4.357
 1570SOL    HW2 7625   2.368   0.747   4.328
 1571SOL     OW 7626   2.721   0.956   4.585
 1571SOL    HW1 7627   2.775   0.887   4.633
 1571SOL    HW2 7628   2.689   1.025   4.651
 1572SOL     OW 7629   2.945   0.984   3.811
 1572SOL    HW1 7630   2.922   1.037   3.729
 1572SOL    HW2 7631   3.026   0.928   3.792
 1573SOL     OW 7632   3.686   0.192   4.951
 1573SOL    HW1 7633   3.682   0.102   4.995
 1573SOL    HW2 7634   3.689   0.181   4.852
 1574SOL     OW 7635   2.290   0.424   4.244
 1574SOL    HW1 7636   2.320   0.352   4.182
 1574SOL    HW2 7637   2.251   0.384   4.327
 1575SOL     OW 7638   3.567   1.487   4.828
 1575SOL    HW1 7639   3.474   1.462   4.801
 1575SOL    HW2 7640   3.593   1.437   4.910
 1576SOL     OW 7641   3.286   0.214   4.836
 1576SOL    HW1 7642   3.338   0.149   4.891
 1576SOL    HW2 7643   3.237   0.277   4.897
 1577SOL     OW 7644   2.863   0.034   4.878
 1577SOL    HW1 7645   2.800  -0.038   4.847
 1577SOL    HW2 7646   2.956  -0.002   4.878
 1578SOL     OW 7647   2.632   1.330   4.025
 1578SOL    HW1 7648   2.586   1.243   4.042
 1578SOL    HW2 7649   2.723   1.327   4.066
 1579SOL     OW 7650   3.214   0.052   3.892
 1579SOL    HW1 7651   3.249   0.011   3.808
 1579SOL    HW2 7652   3.124   0.014   3.912
 1580SOL     OW 7653   3.455   0.221   4.606
 1580SOL    HW1 7654   3.371   0.220   4.660
 1580SOL    HW2 7655   3.457   0.304   4.550
 1581SOL     OW 7656   2.092   2.490   0.113
 1581SOL    HW1 7657   1.999   2.488   0.150
 1581SOL    HW2 7658   2.093   2.451   0.021
 1582SOL     OW 7659   2.431   3.137   1.165
 1582SOL    HW1 7660   2.338   3.130   1.128
 1582SOL    HW2 7661   2.442   3.226   1.209
 1583SOL     OW 7662   3.417   3.373   0.703
 1583SOL    HW1 7663   3.360   3.357   0.784
 1583SOL    HW2 7664   3.358   3.383   0.623
 1584SOL     OW 7665   2.997   2.565   0.717
 1584SOL    HW1 7666   3.054   2.643   0.692
 1584SOL    HW2 7667   2.937   2.591   0.793
 1585SOL     OW 7668   3.617   2.469   0.231
 1585SOL    HW1 7669   3.605   2.456   0.132
 1585SOL    HW2 7670   3.587   2.388   0.280
 1586SOL     OW 7671   2.548   3.023   1.803
 1586SOL    HW1 7672   2.608   3.102   1.817
 1586SOL    HW2 7673   2.462   3.054   1.762
 1587SOL     OW 7674   2.197   3.297   1.061
 1587SOL    HW1 7675   2.119   3.266   1.008
 1587SOL    HW2 7676   2.255   3.355   1.004
 1588SOL     OW 7677   3.322   3.367   1.339
 1588SOL    HW1 7678   3.346   3.461   1.365
 1588SOL    HW2 7679   3.306   3.313   1.421
 1589SOL     OW 7680   2.300   2.254   1.499
 1589SOL    HW1 7681   2.382   2.198   1.508
 1589SOL    HW2 7682   2.219   2.196   1.503
 1590SOL     OW 7683   3.465   2.309   0.737
 1590SOL    HW1 7684   3.391   2.355   0.687
 1590SOL    HW2 7685   3.516   2.377   0.790
 1591SOL     OW 7686   2.989   3.203   1.690
 1591SOL    HW1 7687   3.036   3.203   1.778
 1591SOL    HW2 7688   2.941   3.116   1.679
 1592SOL     OW 7689   2.092   3.296   0.538
 1592SOL    HW1 7690   2.066   3.392   0.538
 1592SOL    HW2 7691   2.021   3.242   0.583
 1593SOL     OW 7692   2.482   3.648   1.439
 1593SOL    HW1 7693   2.390   3.631   1.474
 1593SOL    HW2 7694   2.510   3.740   1.465
 1594SOL     OW 7695   2.468   2.826   0.123
 1594SOL    HW1 7696   2.475   2.910   0.069
 1594SOL    HW2 7697   2.514   2.839   0.211
 1595SOL     OW 7698   3.456   1.976   1.480
 1595SOL    HW1 7699   3.438   2.043   1.408
 1595SOL    HW2 7700   3.453   2.022   1.569
 1596SOL     OW 7701   1.984   2.505   0.563
 1596SOL    HW1 7702   1.939   2.417   0.580
 1596SOL    HW2 7703   1.983   2.559   0.647
 1597SOL     OW 7704   3.704   3.629   0.359
 1597SOL    HW1 7705   3.758   3.600   0.439
 1597SOL    HW2 7706   3.734   3.719   0.330
 1598SOL     OW 7707   1.889   3.458   0.117
 1598SOL    HW1 7708   1.870   3.362   0.138
 1598SOL    HW2 7709   1.856   3.516   0.192
 1599SOL     OW 7710   3.551   2.784   0.612
 1599SOL    HW1 7711   3.646   2.755   0.620
 1599SOL    HW2 7712   3.543   2.849   0.537
 1600SOL     OW 7713   3.503   2.970   0.432
 1600SOL    HW1 7714   3.589   2.972   0.380
 1600SOL    HW2 7715   3.517   3.017   0.520
 1601SOL     OW 7716   1.975   2.599   1.597
 1601SOL    HW1 7717   2.063   2.586   1.642
 1601SOL    HW2 7718   1.962   2.696   1.575
 1602SOL     OW 7719   2.671   1.866   0.502
 1602SOL    HW1 7720   2.711   1.957   0.493
 1602SOL    HW2 7721   2.571   1.874   0.508
 1603SOL     OW 7722   3.049   3.654   1.616
 1603SOL    HW1 7723   3.073   3.714   1.540
 1603SOL    HW2 7724   3.056   3.559   1.586
 1604SOL     OW 7725   2.179   2.113   1.801
 1604SOL    HW1 7726   2.250   2.184   1.807
 1604SOL    HW2 7727   2.091   2.152   1.829
 1605SOL     OW 7728   3.328   3.279   0.953
 1605SOL    HW1 7729   3.269   3.285   1.033
 1605SOL    HW2 7730   3.313   3.191   0.907
 1606SOL     OW 7731   3.529   3.576   0.572
 1606SOL    HW1 7732   3.488   3.553   0.484
 1606SOL    HW2 7733   3.511   3.502   0.637
 1607SOL     OW 7734   2.460   2.591   0.270
 1607SOL    HW1 7735   2.484   2.660   0.202
 1607SOL    HW2 7736   2.382   2.624   0.324
 1608SOL     OW 7737   3.438   3.524   0.307
 1608SOL    HW1 7738   3.527   3.570   0.310
 1608SOL    HW2 7739   3.417   3.500   0.212
 1609SOL     OW 7740   2.669   2.467   1.465
 1609SOL    HW1 7741   2.622   2.464   1.554
 1609SOL    HW2 7742   2.618   2.412   1.399
 1610SOL     OW 7743   3.256   2.331   1.674
 1610SOL    HW1 7744   3.236   2.374   1.762
 1610SOL    HW2 7745   3.334   2.269   1.683
 1611SOL     OW 7746   2.853   2.272   1.242
 1611SOL    HW1 7747   2.776   2.306   1.296
 1611SOL    HW2 7748   2.819   2.221   1.163
 1612SOL     OW 7749   2.903   2.563   0.429
 1612SOL    HW1 7750   2.929   2.559   0.525
 1612SOL    HW2 7751   2.818   2.512   0.415
 1613SOL     OW 7752   1.938   2.673   0.789
 1613SOL    HW1 7753   2.037   2.661   0.798
 1613SOL    HW2 7754   1.914   2.768   0.810
 1614SOL     OW 7755   2.727   2.210   0.195
 1614SOL    HW1 7756   2.786   2.273   0.146
 1614SOL    HW2 7757   2.746   2.116   0.166
 1615SOL     OW 7758   3.581   2.447   1.831
 1615SOL    HW1 7759   3.555   2.536   1.795
 1615SOL    HW2 7760   3.579   2.379   1.758
 1616SOL     OW 7761   3.224   3.006   0.545
 1616SOL    HW1 7762   3.307   2.977   0.497
 1616SOL    HW2 7763   3.175   3.073   0.489
 1617SOL     OW 7764   2.412   2.058   0.885
 1617SOL    HW1 7765   2.407   2.053   0.985
 1617SOL    HW2 7766   2.414   2.154   0.856
 1618SOL     OW 7767   2.870   3.318   0.477
 1618SOL    HW1 7768   2.824   3.390   0.425
 1618SOL    HW2 7769   2.866   3.338   0.575
 1619SOL     OW 7770   3.657   2.928   0.873
 1619SOL    HW1 7771   3.595   2.913   0.797
 1619SOL    HW2 7772   3.605   2.939   0.958
 1620SOL     OW 7773   3.089   3.412   1.506
 1620SOL    HW1 7774   3.095   3.335   1.570
 1620SOL    HW2 7775   3.037   3.386   1.426
 1621SOL     OW 7776   2.183   2.805   0.242
 1621SOL    HW1 7777   2.265   2.844   0.200
 1621SOL    HW2 7778   2.156   2.723   0.193
 1622SOL     OW 7779   3.320   2.597   0.728
 1622SOL    HW1 7780   3.315   2.532   0.803
 1622SOL    HW2 7781   3.400   2.656   0.741
 1623SOL     OW 7782   2.323   3.128   1.727
 1623SOL    HW1 7783   2.273   3.129   1.641
 1623SOL    HW2 7784   2.260   3.110   1.803
 1624SOL     OW 7785   2.973   3.638   0.237
 1624SOL    HW1 7786   2.913   3.576   0.287
 1624SOL    HW2 7787   3.004   3.594   0.152
 1625SOL     OW 7788   2.064   2.147   1.498
 1625SOL    HW1 7789   1.984   2.207   1.485
 1625SOL    HW2 7790   2.054   2.098   1.584
 1626SOL     OW 7791   2.326   3.605   0.323
 1626SOL    HW1 7792   2.359   3.644   0.409
 1626SOL    HW2 7793   2.402   3.598   0.258
 1627SOL     OW 7794   2.802   3.560   0.904
 1627SOL    HW1 7795   2.882   3.503   0.925
 1627SOL    HW2 7796   2.753   3.520   0.827
 1628SOL     OW 7797   2.244   2.562   0.480
 1628SOL    HW1 7798   2.289   2.472   0.477
 1628SOL    HW2 7799   2.150   2.551   0.513
 1629SOL     OW 7800   3.409   2.084   1.729
 1629SOL    HW1 7801   3.404   2.121   1.821
 1629SOL    HW2 7802   3.337   2.015   1.717
 1630SOL     OW 7803   3.213   2.452   1.433
 1630SOL    HW1 7804   3.241   2.409   1.518
 1630SOL    HW2 7805   3.238   2.548   1.434
 1631SOL     OW 7806   2.665   3.264   0.924
 1631SOL    HW1 7807   2.755   3.278   0.882
 1631SOL    HW2 7808   2.594   3.266   0.853
 1632SOL     OW 7809   2.784   2.365   0.899
 1632SOL    HW1 7810   2.759   2.356   0.803
 1632SOL    HW2 7811   2.832   2.283   0.930
 1633SOL     OW 7812   2.797   2.098   0.480
 1633SOL    HW1 7813   2.749   2.139   0.402
 1633SOL    HW2 7814   2.896   2.096   0.461
 1634SOL     OW 7815   3.089   3.432   0.793
 1634SOL    HW1 7816   3.110   3.506   0.728
 1634SOL    HW2 7817   3.157   3.432   0.866
 1635SOL     OW 7818   3.133   3.659   0.591
 1635SOL    HW1 7819   3.177   3.723   0.527
 1635SOL    HW2 7820   3.083   3.711   0.661
 1636SOL     OW 7821   2.894   2.411   0.016
 1636SOL    HW1 7822   2.853   2.493  -0.023
 1636SOL    HW2 7823   2.958   2.437   0.089
 1637SOL     OW 7824   2.423   2.084   1.147
 1637SOL    HW1 7825   2.461   2.000   1.184
 1637SOL    HW2 7826   2.335   2.103   1.191
 1638SOL     OW 7827   2.879   1.901   0.753
 1638SOL    HW1 7828   2.807   1.906   0.684
 1638SOL    HW2 7829   2.855   1.832   0.822
 1639SOL     OW 7830   3.328   2.452   0.992
 1639SOL    HW1 7831   3.298   2.357   0.999
 1639SOL    HW2 7832   3.401   2.468   1.058
 1640SOL     OW 7833   3.719   2.695   0.377
 1640SOL    HW1 7834   3.761   2.631   0.441
 1640SOL    HW2 7835   3.681   2.644   0.299
 1641SOL     OW 7836   2.350   3.247   0.174
 1641SOL    HW1 7837   2.263   3.232   0.221
 1641SOL    HW2 7838   2.333   3.273   0.079
 1642SOL     OW 7839   3.526   3.142   0.657
 1642SOL    HW1 7840   3.625   3.150   0.671
 1642SOL    HW2 7841   3.481   3.226   0.688
 1643SOL     OW 7842   3.252   2.437   0.078
 1643SOL    HW1 7843   3.198   2.416   0.159
 1643SOL    HW2 7844   3.343   2.396   0.087
 1644SOL     OW 7845   2.389   2.118   0.328
 1644SOL    HW1 7846   2.416   2.059   0.253
 1644SOL    HW2 7847   2.389   2.213   0.297
 1645SOL     OW 7848   3.616   3.085   1.588
 1645SOL    HW1 7849   3.707   3.046   1.575
 1645SOL    HW2 7850   3.624   3.181   1.612
 1646SOL     OW 7851   3.500   2.961   1.079
 1646SOL    HW1 7852   3.505   3.042   1.138
 1646SOL    HW2 7853   3.414   2.963   1.028
 1647SOL     OW 7854   2.777   1.951   1.402
 1647SOL    HW1 7855   2.802   1.931   1.307
 1647SOL    HW2 7856   2.849   2.007   1.444
 1648SOL     OW 7857   2.567   2.912   0.368
 1648SOL    HW1 7858   2.553   2.919   0.467
 1648SOL    HW2 7859   2.651   2.861   0.350
 1649SOL     OW 7860   2.272   2.675   1.251
 1649SOL    HW1 7861   2.358   2.687   1.301
 1649SOL    HW2 7862   2.230   2.588   1.278
 1650SOL     OW 7863   1.926   3.426   1.331
 1650SOL    HW1 7864   1.880   3.508   1.297
 1650SOL    HW2 7865   2.024   3.445   1.340
 1651SOL     OW 7866   3.114   3.210   0.388
 1651SOL    HW1 7867   3.164   3.287   0.428
 1651SOL    HW2 7868   3.019   3.212   0.420
 1652SOL     OW 7869   3.444   2.501   0.472
 1652SOL    HW1 7870   3.413   2.562   0.545
 1652SOL    HW2 7871   3.494   2.553   0.403
 1653SOL     OW 7872   2.216   3.372   1.329
 1653SOL    HW1 7873   2.195   3.328   1.242
 1653SOL    HW2 7874   2.313   3.398   1.332
 1654SOL     OW 7875   3.449   2.641   1.670
 1654SOL    HW1 7876   3.357   2.679   1.665
 1654SOL    HW2 7877   3.509   2.688   1.605
 1655SOL     OW 7878   2.875   1.967   1.770
 1655SOL    HW1 7879   2.881   2.052   1.718
 1655SOL    HW2 7880   2.907   1.891   1.713
 1656SOL     OW 7881   2.366   1.912   1.740
 1656SOL    HW1 7882   2.324   1.855   1.670
 1656SOL    HW2 7883   2.300   1.981   1.772
 1657SOL     OW 7884   3.222   2.724   1.045
 1657SOL    HW1 7885   3.147   2.724   0.979
 1657SOL    HW2 7886   3.259   2.632   1.054
 1658SOL     OW 7887   3.071   2.387   0.275
 1658SOL    HW1 7888   3.084   2.303   0.329
 1658SOL    HW2 7889   3.042   2.461   0.335
 1659SOL     OW 7890   2.169   2.075   1.231
 1659SOL    HW1 7891   2.146   2.112   1.321
 1659SOL    HW2 7892   2.139   1.980   1.225
 1660SOL     OW 7893   1.899   3.172   1.282
 1660SOL    HW1 7894   1.952   3.123   1.350
 1660SOL    HW2 7895   1.921   3.270   1.287
 1661SOL     OW 7896   2.594   2.496   1.064
 1661SOL    HW1 7897   2.653   2.470   0.988
 1661SOL    HW2 7898   2.566   2.592   1.053
 1662SOL     OW 7899   3.590   2.797   1.854
 1662SOL    HW1 7900   3.544   2.790   1.765
 1662SOL    HW2 7901   3.528   2.841   1.920
 1663SOL     OW 7902   3.484   2.229   0.374
 1663SOL    HW1 7903   3.486   2.153   0.438
 1663SOL    HW2 7904   3.436   2.306   0.414
 1664SOL     OW 7905   2.885   2.628   0.966
 1664SOL    HW1 7906   2.900   2.649   1.062
 1664SOL    HW2 7907   2.855   2.533   0.957
 1665SOL     OW 7908   3.721   3.380   1.605
 1665SOL    HW1 7909   3.735   3.407   1.510
 1665SOL    HW2 7910   3.804   3.402   1.658
 1666SOL     OW 7911   2.212   2.760   1.804
 1666SOL    HW1 7912   2.288   2.804   1.852
 1666SOL    HW2 7913   2.247   2.713   1.722
 1667SOL     OW 7914   3.402   2.136   0.125
 1667SOL    HW1 7915   3.341   2.061   0.148
 1667SOL    HW2 7916   3.424   2.188   0.208
 1668SOL     OW 7917   3.165   2.700   0.042
 1668SOL    HW1 7918   3.199   2.607   0.057
 1668SOL    HW2 7919   3.183   2.727  -0.053
 1669SOL     OW 7920   1.950   3.663   0.927
 1669SOL    HW1 7921   1.908   3.577   0.900
 1669SOL    HW2 7922   2.044   3.666   0.893
 1670SOL     OW 7923   2.864   2.658   1.238
 1670SOL    HW1 7924   2.905   2.626   1.324
 1670SOL    HW2 7925   2.768   2.631   1.235
 1671SOL     OW 7926   2.677   2.434   0.325
 1671SOL    HW1 7927   2.684   2.345   0.279
 1671SOL    HW2 7928   2.583   2.468   0.317
 1672SOL     OW 7929   2.533   2.326   1.269
 1672SOL    HW1 7930   2.499   2.237   1.239
 1672SOL    HW2 7931   2.559   2.380   1.189
 1673SOL     OW 7932   2.792   3.540   1.465
 1673SOL    HW1 7933   2.768   3.522   1.370
 1673SOL    HW2 7934   2.822   3.634   1.475
 1674SOL     OW 7935   2.335   2.362   0.191
 1674SOL    HW1 7936   2.396   2.442   0.195
 1674SOL    HW2 7937   2.240   2.393   0.198
 1675SOL     OW 7938   2.021   2.999   1.466
 1675SOL    HW1 7939   2.043   2.938   1.542
 1675SOL    HW2 7940   2.031   2.950   1.380
 1676SOL     OW 7941   3.164   2.717   0.309
 1676SOL    HW1 7942   3.078   2.686   0.351
 1676SOL    HW2 7943   3.160   2.703   0.210
 1677SOL     OW 7944   3.114   3.593   1.128
 1677SOL    HW1 7945   3.198   3.598   1.074
 1677SOL    HW2 7946   3.091   3.497   1.146
 1678SOL     OW 7947   1.945   3.120   1.022
 1678SOL    HW1 7948   1.940   3.119   1.122
 1678SOL    HW2 7949   1.862   3.079   0.984
 1679SOL     OW 7950   2.550   3.524   1.716
 1679SOL    HW1 7951   2.494   3.605   1.725
 1679SOL    HW2 7952   2.602   3.528   1.630
 1680SOL     OW 7953   2.765   1.948   0.133
 1680SOL    HW1 7954   2.816   1.949   0.047
 1680SOL    HW2 7955   2.821   1.906   0.204
 1681SOL     OW 7956   3.250   3.435   0.477
 1681SOL    HW1 7957   3.317   3.447   0.403
 1681SOL    HW2 7958   3.210   3.524   0.500
 1682SOL     OW 7959   3.142   2.789   0.672
 1682SOL    HW1 7960   3.202   2.708   0.674
 1682SOL    HW2 7961   3.182   2.858   0.612
 1683SOL     OW 7962   2.692   3.135   1.422
 1683SOL    HW1 7963   2.687   3.168   1.517
 1683SOL    HW2 7964   2.606   3.154   1.376
 1684SOL     OW 7965   2.534   3.478   0.154
 1684SOL    HW1 7966   2.543   3.488   0.055
 1684SOL    HW2 7967   2.494   3.389   0.175
 1685SOL     OW 7968   3.703   2.037   0.963
 1685SOL    HW1 7969   3.742   1.952   0.927
 1685SOL    HW2 7970   3.605   2.039   0.944
 1686SOL     OW 7971   3.056   3.474   0.031
 1686SOL    HW1 7972   3.062   3.381   0.068
 1686SOL    HW2 7973   2.997   3.474  -0.049
 1687SOL     OW 7974   2.684   2.864   1.372
 1687SOL    HW1 7975   2.724   2.863   1.280
 1687SOL    HW2 7976   2.694   2.956   1.412
 1688SOL     OW 7977   2.778   2.772   0.291
 1688SOL    HW1 7978   2.841   2.810   0.223
 1688SOL    HW2 7979   2.818   2.689   0.330
 1689SOL     OW 7980   3.366   3.469   0.044
 1689SOL    HW1 7981   3.274   3.506   0.051
 1689SOL    HW2 7982   3.404   3.489  -0.046
 1690SOL     OW 7983   2.234   3.150   1.490
 1690SOL    HW1 7984   2.221   3.243   1.456
 1690SOL    HW2 7985   2.150   3.098   1.477
 1691SOL     OW 7986   3.476   3.154   1.289
 1691SOL    HW1 7987   3.536   3.157   1.369
 1691SOL    HW2 7988   3.401   3.218   1.302
 1692SOL     OW 7989   2.901   2.960   0.696
 1692SOL    HW1 7990   2.831   2.913   0.750
 1692SOL    HW2 7991   2.960   2.892   0.653
 1693SOL     OW 7992   2.876   2.098   0.971
 1693SOL    HW1 7993   2.868   2.062   0.878
 1693SOL    HW2 7994   2.874   2.022   1.036
 1694SOL     OW 7995   2.452   3.349   0.491
 1694SOL    HW1 7996   2.494   3.291   0.421
 1694SOL    HW2 7997   2.408   3.428   0.447
 1695SOL     OW 7998   3.571   2.247   1.381
 1695SOL    HW1 7999   3.644   2.316   1.385
 1695SOL    HW2 8000   3.599   2.172   1.322
 1696SOL     OW 8001   2.117   3.210   0.290
 1696SOL    HW1 8002   2.021   3.211   0.263
 1696SOL    HW2 8003   2.129   3.263   0.374
 1697SOL     OW 8004   1.967   2.875   1.726
 1697SOL    HW1 8005   1.890   2.842   1.780
 1697SOL    HW2 8006   2.052   2.845   1.768
 1698SOL     OW 8007   3.045   3.197   0.119
 1698SOL    HW1 8008   2.946   3.186   0.121
 1698SOL    HW2 8009   3.079   3.212   0.212
 1699SOL     OW 8010   2.475   2.704   1.431
 1699SOL    HW1 8011   2.531   2.785   1.414
 1699SOL    HW2 8012   2.534   2.624   1.434
 1700SOL     OW 8013   3.355   3.629   0.959
 1700SOL    HW1 8014   3.388   3.693   0.890
 1700SOL    HW2 8015   3.421   3.623   1.034
 1701SOL     OW 8016   2.252   3.603   1.560
 1701SOL    HW1 8017   2.161   3.644   1.558
 1701SOL    HW2 8018   2.245   3.509   1.592
 1702SOL     OW 8019   3.087   2.187   0.449
 1702SOL    HW1 8020   3.152   2.113   0.438
 1702SOL    HW2 8021   3.107   2.237   0.533
 1703SOL     OW 8022   3.639   2.204   1.642
 1703SOL    HW1 8023   3.622   2.235   1.548
 1703SOL    HW2 8024   3.555   2.167   1.680
 1704SOL     OW 8025   2.721   3.236   0.016
 1704SOL    HW1 8026   2.675   3.251   0.104
 1704SOL    HW2 8027   2.765   3.321  -0.014
 1705SOL     OW 8028   2.721   2.818   0.861
 1705SOL    HW1 8029   2.775   2.749   0.909
 1705SOL    HW2 8030   2.689   2.887   0.927
 1706SOL     OW 8031   2.945   2.846   0.087
 1706SOL    HW1 8032   2.922   2.899   0.005
 1706SOL    HW2 8033   3.026   2.790   0.068
 1707SOL     OW 8034   3.723   3.431   0.851
 1707SOL    HW1 8035   3.652   3.419   0.781
 1707SOL    HW2 8036   3.724   3.352   0.911
 1708SOL     OW 8037   2.083   3.176   1.844
 1708SOL    HW1 8038   2.018   3.103   1.823
 1708SOL    HW2 8039   2.087   3.190   1.942
 1709SOL     OW 8040   1.941   3.102   0.653
 1709SOL    HW1 8041   1.940   3.055   0.741
 1709SOL    HW2 8042   2.023   3.074   0.602
 1710SOL     OW 8043   2.534   3.253   1.624
 1710SOL    HW1 8044   2.456   3.203   1.662
 1710SOL    HW2 8045   2.531   3.348   1.655
 1711SOL     OW 8046   3.686   2.054   1.227
 1711SOL    HW1 8047   3.682   1.964   1.271
 1711SOL    HW2 8048   3.689   2.043   1.128
 1712SOL     OW 8049   2.290   2.286   0.520
 1712SOL    HW1 8050   2.320   2.214   0.458
 1712SOL    HW2 8051   2.251   2.246   0.603
 1713SOL     OW 8052   3.567   3.349   1.104
 1713SOL    HW1 8053   3.474   3.324   1.077
 1713SOL    HW2 8054   3.593   3.299   1.186
 1714SOL     OW 8055   2.863   1.896   1.154
 1714SOL    HW1 8056   2.800   1.824   1.123
 1714SOL    HW2 8057   2.956   1.860   1.154
 1715SOL     OW 8058   2.632   3.192   0.301
 1715SOL    HW1 8059   2.586   3.105   0.318
 1715SOL    HW2 8060   2.723   3.189   0.342
 1716SOL     OW 8061   2.480   3.429   1.284
 1716SOL    HW1 8062   2.475   3.511   1.341
 1716SOL    HW2 8063   2.569   3.426   1.239
 1717SOL     OW 8064   3.214   1.914   0.168
 1717SOL    HW1 8065   3.249   1.873   0.084
 1717SOL    HW2 8066   3.124   1.876   0.188
 1718SOL     OW 8067   1.901   2.939   0.300
 1718SOL    HW1 8068   2.000   2.928   0.291
 1718SOL    HW2 8069   1.861   2.853   0.332
 1719SOL     OW 8070   2.087   2.137   2.858
 1719SOL    HW1 8071   2.122   2.120   2.950
 1719SOL    HW2 8072   1.999   2.092   2.846
 1720SOL     OW 8073   1.881   2.230   2.509
 1720SOL    HW1 8074   1.799   2.273   2.548
 1720SOL    HW2 8075   1.853   2.157   2.446
 1721SOL     OW 8076   2.431   3.137   3.027
 1721SOL    HW1 8077   2.338   3.130   2.990
 1721SOL    HW2 8078   2.442   3.226   3.071
 1722SOL     OW 8079   3.417   3.373   2.565
 1722SOL    HW1 8080   3.360   3.357   2.646
 1722SOL    HW2 8081   3.358   3.383   2.485
 1723SOL     OW 8082   2.630   3.006   2.885
 1723SOL    HW1 8083   2.552   3.023   2.945
 1723SOL    HW2 8084   2.664   3.093   2.849
 1724SOL     OW 8085   2.712   2.660   3.685
 1724SOL    HW1 8086   2.708   2.736   3.750
 1724SOL    HW2 8087   2.734   2.696   3.594
 1725SOL     OW 8088   2.548   3.023   3.665
 1725SOL    HW1 8089   2.608   3.102   3.679
 1725SOL    HW2 8090   2.462   3.054   3.624
 1726SOL     OW 8091   3.322   3.367   3.201
 1726SOL    HW1 8092   3.346   3.461   3.227
 1726SOL    HW2 8093   3.306   3.313   3.283
 1727SOL     OW 8094   2.300   2.254   3.361
 1727SOL    HW1 8095   2.382   2.198   3.370
 1727SOL    HW2 8096   2.219   2.196   3.365
 1728SOL     OW 8097   2.482   3.648   3.301
 1728SOL    HW1 8098   2.390   3.631   3.336
 1728SOL    HW2 8099   2.510   3.740   3.327
 1729SOL     OW 8100   2.468   2.826   1.985
 1729SOL    HW1 8101   2.475   2.910   1.931
 1729SOL    HW2 8102   2.514   2.839   2.073
 1730SOL     OW 8103   3.456   1.976   3.342
 1730SOL    HW1 8104   3.438   2.043   3.270
 1730SOL    HW2 8105   3.453   2.022   3.431
 1731SOL     OW 8106   3.704   3.629   2.221
 1731SOL    HW1 8107   3.758   3.600   2.301
 1731SOL    HW2 8108   3.734   3.719   2.192
 1732SOL     OW 8109   2.475   3.227   2.588
 1732SOL    HW1 8110   2.426   3.140   2.597
 1732SOL    HW2 8111   2.452   3.270   2.501
 1733SOL     OW 8112   3.155   3.090   3.285
 1733SOL    HW1 8113   3.192   3.017   3.227
 1733SOL    HW2 8114   3.207   3.095   3.370
 1734SOL     OW 8115   2.671   1.866   2.364
 1734SOL    HW1 8116   2.711   1.957   2.355
 1734SOL    HW2 8117   2.571   1.874   2.370
 1735SOL     OW 8118   3.049   3.654   3.478
 1735SOL    HW1 8119   3.073   3.714   3.402
 1735SOL    HW2 8120   3.056   3.559   3.448
 1736SOL     OW 8121   3.328   3.279   2.815
 1736SOL    HW1 8122   3.269   3.285   2.895
 1736SOL    HW2 8123   3.313   3.191   2.769
 1737SOL     OW 8124   3.143   2.207   2.806
 1737SOL    HW1 8125   3.057   2.157   2.793
 1737SOL    HW2 8126   3.205   2.153   2.862
 1738SOL     OW 8127   3.438   3.524   2.169
 1738SOL    HW1 8128   3.527   3.570   2.172
 1738SOL    HW2 8129   3.417   3.500   2.074
 1739SOL     OW 8130   2.669   2.467   3.327
 1739SOL    HW1 8131   2.622   2.464   3.416
 1739SOL    HW2 8132   2.618   2.412   3.261
 1740SOL     OW 8133   3.256   2.331   3.536
 1740SOL    HW1 8134   3.236   2.374   3.624
 1740SOL    HW2 8135   3.334   2.269   3.545
 1741SOL     OW 8136   2.835   2.752   3.434
 1741SOL    HW1 8137   2.881   2.668   3.405
 1741SOL    HW2 8138   2.779   2.786   3.359
 1742SOL     OW 8139   2.853   2.272   3.104
 1742SOL    HW1 8140   2.776   2.306   3.158
 1742SOL    HW2 8141   2.819   2.221   3.025
 1743SOL     OW 8142   1.938   2.673   2.651
 1743SOL    HW1 8143   2.037   2.661   2.660
 1743SOL    HW2 8144   1.914   2.768   2.672
 1744SOL     OW 8145   1.992   3.683   3.433
 1744SOL    HW1 8146   1.982   3.668   3.532
 1744SOL    HW2 8147   1.906   3.719   3.397
 1745SOL     OW 8148   3.224   3.006   2.407
 1745SOL    HW1 8149   3.307   2.977   2.359
 1745SOL    HW2 8150   3.175   3.073   2.351
 1746SOL     OW 8151   2.412   2.058   2.747
 1746SOL    HW1 8152   2.407   2.053   2.847
 1746SOL    HW2 8153   2.414   2.154   2.718
 1747SOL     OW 8154   2.870   3.318   2.339
 1747SOL    HW1 8155   2.824   3.390   2.287
 1747SOL    HW2 8156   2.866   3.338   2.437
 1748SOL     OW 8157   3.089   3.412   3.368
 1748SOL    HW1 8158   3.095   3.335   3.432
 1748SOL    HW2 8159   3.037   3.386   3.288
 1749SOL     OW 8160   2.183   2.805   2.104
 1749SOL    HW1 8161   2.265   2.844   2.062
 1749SOL    HW2 8162   2.156   2.723   2.055
 1750SOL     OW 8163   2.323   3.128   3.589
 1750SOL    HW1 8164   2.273   3.129   3.503
 1750SOL    HW2 8165   2.260   3.110   3.665
 1751SOL     OW 8166   2.973   3.638   2.099
 1751SOL    HW1 8167   2.913   3.576   2.149
 1751SOL    HW2 8168   3.004   3.594   2.014
 1752SOL     OW 8169   2.064   2.147   3.360
 1752SOL    HW1 8170   1.984   2.207   3.347
 1752SOL    HW2 8171   2.054   2.098   3.446
 1753SOL     OW 8172   3.494   3.239   1.943
 1753SOL    HW1 8173   3.462   3.333   1.933
 1753SOL    HW2 8174   3.418   3.176   1.931
 1754SOL     OW 8175   3.262   1.969   2.288
 1754SOL    HW1 8176   3.238   1.932   2.198
 1754SOL    HW2 8177   3.361   1.985   2.292
 1755SOL     OW 8178   2.111   3.647   3.103
 1755SOL    HW1 8179   2.168   3.582   3.153
 1755SOL    HW2 8180   2.095   3.614   3.010
 1756SOL     OW 8181   2.802   3.560   2.766
 1756SOL    HW1 8182   2.882   3.503   2.787
 1756SOL    HW2 8183   2.753   3.520   2.689
 1757SOL     OW 8184   2.244   2.562   2.342
 1757SOL    HW1 8185   2.289   2.472   2.339
 1757SOL    HW2 8186   2.150   2.551   2.375
 1758SOL     OW 8187   3.409   2.084   3.591
 1758SOL    HW1 8188   3.404   2.121   3.683
 1758SOL    HW2 8189   3.337   2.015   3.579
 1759SOL     OW 8190   2.476   1.984   1.979
 1759SOL    HW1 8191   2.574   1.962   1.986
 1759SOL    HW2 8192   2.445   1.967   1.886
 1760SOL     OW 8193   2.643   2.126   3.611
 1760SOL    HW1 8194   2.710   2.065   3.654
 1760SOL    HW2 8195   2.570   2.145   3.676
 1761SOL     OW 8196   2.750   3.376   3.057
 1761SOL    HW1 8197   2.727   3.351   2.963
 1761SOL    HW2 8198   2.811   3.307   3.096
 1762SOL     OW 8199   3.213   2.452   3.295
 1762SOL    HW1 8200   3.241   2.409   3.380
 1762SOL    HW2 8201   3.238   2.548   3.296
 1763SOL     OW 8202   2.665   3.264   2.786
 1763SOL    HW1 8203   2.755   3.278   2.744
 1763SOL    HW2 8204   2.594   3.266   2.715
 1764SOL     OW 8205   2.401   1.926   2.374
 1764SOL    HW1 8206   2.320   1.927   2.432
 1764SOL    HW2 8207   2.404   2.009   2.319
 1765SOL     OW 8208   3.296   3.050   1.903
 1765SOL    HW1 8209   3.328   2.974   1.960
 1765SOL    HW2 8210   3.204   3.077   1.933
 1766SOL     OW 8211   2.159   1.897   2.033
 1766SOL    HW1 8212   2.208   1.981   2.012
 1766SOL    HW2 8213   2.221   1.832   2.078
 1767SOL     OW 8214   2.938   2.545   3.326
 1767SOL    HW1 8215   2.858   2.484   3.329
 1767SOL    HW2 8216   3.019   2.492   3.302
 1768SOL     OW 8217   3.089   3.432   2.655
 1768SOL    HW1 8218   3.110   3.506   2.590
 1768SOL    HW2 8219   3.157   3.432   2.728
 1769SOL     OW 8220   2.321   3.014   2.603
 1769SOL    HW1 8221   2.250   2.987   2.668
 1769SOL    HW2 8222   2.295   2.986   2.510
 1770SOL     OW 8223   3.133   3.659   2.453
 1770SOL    HW1 8224   3.177   3.723   2.389
 1770SOL    HW2 8225   3.083   3.711   2.523
 1771SOL     OW 8226   2.423   2.084   3.009
 1771SOL    HW1 8227   2.461   2.000   3.046
 1771SOL    HW2 8228   2.335   2.103   3.053
 1772SOL     OW 8229   3.291   3.035   2.729
 1772SOL    HW1 8230   3.236   2.951   2.722
 1772SOL    HW2 8231   3.317   3.064   2.637
 1773SOL     OW 8232   3.328   2.452   2.854
 1773SOL    HW1 8233   3.298   2.357   2.861
 1773SOL    HW2 8234   3.401   2.468   2.920
 1774SOL     OW 8235   3.526   3.142   2.519
 1774SOL    HW1 8236   3.625   3.150   2.533
 1774SOL    HW2 8237   3.481   3.226   2.550
 1775SOL     OW 8238   3.252   2.437   1.940
 1775SOL    HW1 8239   3.198   2.416   2.021
 1775SOL    HW2 8240   3.343   2.396   1.949
 1776SOL     OW 8241   2.389   2.118   2.190
 1776SOL    HW1 8242   2.416   2.059   2.115
 1776SOL    HW2 8243   2.389   2.213   2.159
 1777SOL     OW 8244   3.616   3.085   3.450
 1777SOL    HW1 8245   3.707   3.046   3.437
 1777SOL    HW2 8246   3.624   3.181   3.474
 1778SOL     OW 8247   2.926   3.209   3.202
 1778SOL    HW1 8248   2.846   3.186   3.257
 1778SOL    HW2 8249   3.009   3.183   3.251
 1779SOL     OW 8250   3.454   3.491   3.487
 1779SOL    HW1 8251   3.481   3.525   3.397
 1779SOL    HW2 8252   3.533   3.453   3.533
 1780SOL     OW 8253   2.973   3.057   2.962
 1780SOL    HW1 8254   2.933   3.101   3.043
 1780SOL    HW2 8255   2.932   3.094   2.879
 1781SOL     OW 8256   3.500   2.961   2.941
 1781SOL    HW1 8257   3.505   3.042   3.000
 1781SOL    HW2 8258   3.414   2.963   2.890
 1782SOL     OW 8259   3.136   2.248   3.124
 1782SOL    HW1 8260   3.157   2.322   3.188
 1782SOL    HW2 8261   3.047   2.265   3.081
 1783SOL     OW 8262   2.229   2.962   2.363
 1783SOL    HW1 8263   2.222   3.045   2.307
 1783SOL    HW2 8264   2.233   2.882   2.303
 1784SOL     OW 8265   3.114   3.210   2.250
 1784SOL    HW1 8266   3.164   3.287   2.290
 1784SOL    HW2 8267   3.019   3.212   2.282
 1785SOL     OW 8268   3.134   3.307   3.004
 1785SOL    HW1 8269   3.181   3.320   3.091
 1785SOL    HW2 8270   3.068   3.233   3.013
 1786SOL     OW 8271   2.216   3.372   3.191
 1786SOL    HW1 8272   2.195   3.328   3.104
 1786SOL    HW2 8273   2.313   3.398   3.194
 1787SOL     OW 8274   2.264   2.613   3.460
 1787SOL    HW1 8275   2.332   2.668   3.413
 1787SOL    HW2 8276   2.304   2.525   3.487
 1788SOL     OW 8277   2.875   1.967   3.632
 1788SOL    HW1 8278   2.881   2.052   3.580
 1788SOL    HW2 8279   2.907   1.891   3.575
 1789SOL     OW 8280   3.222   2.724   2.907
 1789SOL    HW1 8281   3.147   2.724   2.841
 1789SOL    HW2 8282   3.259   2.632   2.916
 1790SOL     OW 8283   2.169   1.925   2.480
 1790SOL    HW1 8284   2.158   2.019   2.513
 1790SOL    HW2 8285   2.164   1.862   2.557
 1791SOL     OW 8286   2.885   2.628   2.828
 1791SOL    HW1 8287   2.900   2.649   2.924
 1791SOL    HW2 8288   2.855   2.533   2.819
 1792SOL     OW 8289   3.402   2.136   1.987
 1792SOL    HW1 8290   3.341   2.061   2.010
 1792SOL    HW2 8291   3.424   2.188   2.070
 1793SOL     OW 8292   3.165   2.700   1.904
 1793SOL    HW1 8293   3.199   2.607   1.919
 1793SOL    HW2 8294   3.183   2.727   1.809
 1794SOL     OW 8295   2.930   3.195   2.711
 1794SOL    HW1 8296   2.937   3.111   2.656
 1794SOL    HW2 8297   2.992   3.264   2.675
 1795SOL     OW 8298   3.000   2.242   3.540
 1795SOL    HW1 8299   2.955   2.305   3.604
 1795SOL    HW2 8300   3.093   2.273   3.523
 1796SOL     OW 8301   3.022   2.069   3.339
 1796SOL    HW1 8302   3.022   2.133   3.416
 1796SOL    HW2 8303   3.050   2.117   3.256
 1797SOL     OW 8304   1.870   3.188   2.062
 1797SOL    HW1 8305   1.777   3.209   2.031
 1797SOL    HW2 8306   1.880   3.089   2.075
 1798SOL     OW 8307   2.366   3.430   2.772
 1798SOL    HW1 8308   2.432   3.504   2.781
 1798SOL    HW2 8309   2.410   3.351   2.730
 1799SOL     OW 8310   2.864   2.658   3.100
 1799SOL    HW1 8311   2.905   2.626   3.186
 1799SOL    HW2 8312   2.768   2.631   3.097
 1800SOL     OW 8313   1.902   2.406   2.976
 1800SOL    HW1 8314   1.987   2.373   2.935
 1800SOL    HW2 8315   1.915   2.421   3.074
 1801SOL     OW 8316   2.114   3.426   3.606
 1801SOL    HW1 8317   2.084   3.483   3.682
 1801SOL    HW2 8318   2.107   3.329   3.632
 1802SOL     OW 8319   2.533   2.326   3.131
 1802SOL    HW1 8320   2.499   2.237   3.101
 1802SOL    HW2 8321   2.559   2.380   3.051
 1803SOL     OW 8322   2.792   3.540   3.327
 1803SOL    HW1 8323   2.768   3.522   3.232
 1803SOL    HW2 8324   2.822   3.634   3.337
 1804SOL     OW 8325   3.209   2.921   3.096
 1804SOL    HW1 8326   3.233   2.858   3.022
 1804SOL    HW2 8327   3.119   2.961   3.078
 1805SOL     OW 8328   3.621   3.609   3.016
 1805SOL    HW1 8329   3.682   3.639   2.943
 1805SOL    HW2 8330   3.583   3.520   2.994
 1806SOL     OW 8331   3.114   3.593   2.990
 1806SOL    HW1 8332   3.198   3.598   2.936
 1806SOL    HW2 8333   3.091   3.497   3.008
 1807SOL     OW 8334   2.550   3.524   3.578
 1807SOL    HW1 8335   2.494   3.605   3.587
 1807SOL    HW2 8336   2.602   3.528   3.492
 1808SOL     OW 8337   3.250   3.435   2.339
 1808SOL    HW1 8338   3.317   3.447   2.265
 1808SOL    HW2 8339   3.210   3.524   2.362
 1809SOL     OW 8340   1.992   3.656   3.713
 1809SOL    HW1 8341   1.951   3.582   3.766
 1809SOL    HW2 8342   2.056   3.707   3.771
 1810SOL     OW 8343   3.142   2.789   2.534
 1810SOL    HW1 8344   3.202   2.708   2.536
 1810SOL    HW2 8345   3.182   2.858   2.474
 1811SOL     OW 8346   2.692   3.135   3.284
 1811SOL    HW1 8347   2.687   3.168   3.379
 1811SOL    HW2 8348   2.606   3.154   3.238
 1812SOL     OW 8349   2.534   3.478   2.016
 1812SOL    HW1 8350   2.543   3.488   1.917
 1812SOL    HW2 8351   2.494   3.389   2.037
 1813SOL     OW 8352   3.512   3.582   3.256
 1813SOL    HW1 8353   3.565   3.592   3.172
 1813SOL    HW2 8354   3.485   3.672   3.290
 1814SOL     OW 8355   3.056   3.474   1.893
 1814SOL    HW1 8356   3.062   3.381   1.930
 1814SOL    HW2 8357   2.997   3.474   1.813
 1815SOL     OW 8358   2.684   2.864   3.234
 1815SOL    HW1 8359   2.724   2.863   3.142
 1815SOL    HW2 8360   2.694   2.956   3.274
 1816SOL     OW 8361   2.778   2.772   2.153
 1816SOL    HW1 8362   2.841   2.810   2.085
 1816SOL    HW2 8363   2.818   2.689   2.192
 1817SOL     OW 8364   3.366   3.469   1.906
 1817SOL    HW1 8365   3.274   3.506   1.913
 1817SOL    HW2 8366   3.404   3.489   1.816
 1818SOL     OW 8367   2.234   3.150   3.352
 1818SOL    HW1 8368   2.221   3.243   3.318
 1818SOL    HW2 8369   2.150   3.098   3.339
 1819SOL     OW 8370   3.476   3.154   3.151
 1819SOL    HW1 8371   3.536   3.157   3.231
 1819SOL    HW2 8372   3.401   3.218   3.164
 1820SOL     OW 8373   2.901   2.960   2.558
 1820SOL    HW1 8374   2.831   2.913   2.612
 1820SOL    HW2 8375   2.960   2.892   2.515
 1821SOL     OW 8376   2.876   2.098   2.833
 1821SOL    HW1 8377   2.868   2.062   2.740
 1821SOL    HW2 8378   2.874   2.022   2.898
 1822SOL     OW 8379   2.534   2.065   3.351
 1822SOL    HW1 8380   2.624   2.049   3.311
 1822SOL    HW2 8381   2.542   2.070   3.450
 1823SOL     OW 8382   3.302   2.718   3.260
 1823SOL    HW1 8383   3.245   2.770   3.197
 1823SOL    HW2 8384   3.398   2.730   3.236
 1824SOL     OW 8385   1.934   2.028   2.180
 1824SOL    HW1 8386   1.917   2.111   2.126
 1824SOL    HW2 8387   2.024   1.991   2.158
 1825SOL     OW 8388   3.045   3.197   1.981
 1825SOL    HW1 8389   2.946   3.186   1.983
 1825SOL    HW2 8390   3.079   3.212   2.074
 1826SOL     OW 8391   2.475   2.704   3.293
 1826SOL    HW1 8392   2.531   2.785   3.276
 1826SOL    HW2 8393   2.534   2.624   3.296
 1827SOL     OW 8394   2.578   2.427   3.570
 1827SOL    HW1 8395   2.597   2.492   3.644
 1827SOL    HW2 8396   2.638   2.347   3.579
 1828SOL     OW 8397   3.312   3.082   3.495
 1828SOL    HW1 8398   3.303   3.072   3.594
 1828SOL    HW2 8399   3.408   3.075   3.469
 1829SOL     OW 8400   2.252   3.603   3.422
 1829SOL    HW1 8401   2.161   3.644   3.420
 1829SOL    HW2 8402   2.245   3.509   3.454
 1830SOL     OW 8403   3.087   2.187   2.311
 1830SOL    HW1 8404   3.152   2.113   2.300
 1830SOL    HW2 8405   3.107   2.237   2.395
 1831SOL     OW 8406   3.639   2.204   3.504
 1831SOL    HW1 8407   3.622   2.235   3.410
 1831SOL    HW2 8408   3.555   2.167   3.542
 1832SOL     OW 8409   3.592   2.796   3.379
 1832SOL    HW1 8410   3.630   2.887   3.394
 1832SOL    HW2 8411   3.584   2.779   3.280
 1833SOL     OW 8412   2.523   3.652   2.815
 1833SOL    HW1 8413   2.477   3.740   2.802
 1833SOL    HW2 8414   2.622   3.664   2.808
 1834SOL     OW 8415   2.945   2.846   1.949
 1834SOL    HW1 8416   2.922   2.899   1.867
 1834SOL    HW2 8417   3.026   2.790   1.930
 1835SOL     OW 8418   3.723   3.431   2.713
 1835SOL    HW1 8419   3.652   3.419   2.643
 1835SOL    HW2 8420   3.724   3.352   2.773
 1836SOL     OW 8421   2.534   3.253   3.486
 1836SOL    HW1 8422   2.456   3.203   3.524
 1836SOL    HW2 8423   2.531   3.348   3.517
 1837SOL     OW 8424   3.567   3.349   2.966
 1837SOL    HW1 8425   3.474   3.324   2.939
 1837SOL    HW2 8426   3.593   3.299   3.048
 1838SOL     OW 8427   2.674   3.448   2.549
 1838SOL    HW1 8428   2.706   3.458   2.455
 1838SOL    HW2 8429   2.595   3.386   2.551
 1839SOL     OW 8430   2.632   3.192   2.163
 1839SOL    HW1 8431   2.586   3.105   2.180
 1839SOL    HW2 8432   2.723   3.189   2.204
 1840SOL     OW 8433   2.480   3.429   3.146
 1840SOL    HW1 8434   2.475   3.511   3.203
 1840SOL    HW2 8435   2.569   3.426   3.101
 1841SOL     OW 8436   3.214   1.914   2.030
 1841SOL    HW1 8437   3.249   1.873   1.946
 1841SOL    HW2 8438   3.124   1.876   2.050
 1842SOL     OW 8439   3.455   2.083   2.744
 1842SOL    HW1 8440   3.371   2.082   2.798
 1842SOL    HW2 8441   3.457   2.166   2.688
 1843SOL     OW 8442   1.901   2.939   2.162
 1843SOL    HW1 8443   2.000   2.928   2.153
 1843SOL    HW2 8444   1.861   2.853   2.194
 1844SOL     OW 8445   2.092   2.490   3.837
 1844SOL    HW1 8446   1.999   2.488   3.874
 1844SOL    HW2 8447   2.093   2.451   3.745
 1845SOL     OW 8448   2.087   2.137   4.720
 1845SOL    HW1 8449   2.122   2.120   4.812
 1845SOL    HW2 8450   1.999   2.092   4.708
 1846SOL     OW 8451   1.881   2.230   4.371
 1846SOL    HW1 8452   1.799   2.273   4.410
 1846SOL    HW2 8453   1.853   2.157   4.308
 1847SOL     OW 8454   2.997   2.565   4.441
 1847SOL    HW1 8455   3.054   2.643   4.416
 1847SOL    HW2 8456   2.937   2.591   4.517
 1848SOL     OW 8457   2.547   2.874   4.389
 1848SOL    HW1 8458   2.616   2.858   4.459
 1848SOL    HW2 8459   2.474   2.931   4.427
 1849SOL     OW 8460   2.093   3.575   4.207
 1849SOL    HW1 8461   2.127   3.652   4.261
 1849SOL    HW2 8462   2.137   3.575   4.117
 1850SOL     OW 8463   2.482   3.648   5.163
 1850SOL    HW1 8464   2.390   3.631   5.198
 1850SOL    HW2 8465   2.510   3.740   5.189
 1851SOL     OW 8466   2.468   2.826   3.847
 1851SOL    HW1 8467   2.475   2.910   3.793
 1851SOL    HW2 8468   2.514   2.839   3.935
 1852SOL     OW 8469   3.704   3.629   4.083
 1852SOL    HW1 8470   3.758   3.600   4.163
 1852SOL    HW2 8471   3.734   3.719   4.054
 1853SOL     OW 8472   1.889   3.458   3.841
 1853SOL    HW1 8473   1.870   3.362   3.862
 1853SOL    HW2 8474   1.856   3.516   3.916
 1854SOL     OW 8475   3.551   2.784   4.336
 1854SOL    HW1 8476   3.646   2.755   4.344
 1854SOL    HW2 8477   3.543   2.849   4.261
 1855SOL     OW 8478   3.503   2.970   4.156
 1855SOL    HW1 8479   3.589   2.972   4.104
 1855SOL    HW2 8480   3.517   3.017   4.244
 1856SOL     OW 8481   2.671   1.866   4.226
 1856SOL    HW1 8482   2.711   1.957   4.217
 1856SOL    HW2 8483   2.571   1.874   4.232
 1857SOL     OW 8484   2.059   2.838   4.988
 1857SOL    HW1 8485   2.148   2.793   4.974
 1857SOL    HW2 8486   1.986   2.773   4.969
 1858SOL     OW 8487   2.460   2.591   3.994
 1858SOL    HW1 8488   2.484   2.660   3.926
 1858SOL    HW2 8489   2.382   2.624   4.048
 1859SOL     OW 8490   3.143   2.207   4.668
 1859SOL    HW1 8491   3.057   2.157   4.655
 1859SOL    HW2 8492   3.205   2.153   4.724
 1860SOL     OW 8493   3.438   3.524   4.031
 1860SOL    HW1 8494   3.527   3.570   4.034
 1860SOL    HW2 8495   3.417   3.500   3.936
 1861SOL     OW 8496   2.853   2.272   4.966
 1861SOL    HW1 8497   2.776   2.306   5.020
 1861SOL    HW2 8498   2.819   2.221   4.887
 1862SOL     OW 8499   2.903   2.563   4.153
 1862SOL    HW1 8500   2.929   2.559   4.249
 1862SOL    HW2 8501   2.818   2.512   4.139
 1863SOL     OW 8502   2.727   2.210   3.919
 1863SOL    HW1 8503   2.786   2.273   3.870
 1863SOL    HW2 8504   2.746   2.116   3.890
 1864SOL     OW 8505   2.870   3.318   4.201
 1864SOL    HW1 8506   2.824   3.390   4.149
 1864SOL    HW2 8507   2.866   3.338   4.299
 1865SOL     OW 8508   2.213   3.663   4.577
 1865SOL    HW1 8509   2.263   3.577   4.583
 1865SOL    HW2 8510   2.278   3.740   4.574
 1866SOL     OW 8511   3.657   2.928   4.597
 1866SOL    HW1 8512   3.595   2.913   4.521
 1866SOL    HW2 8513   3.605   2.939   4.682
 1867SOL     OW 8514   2.183   2.805   3.966
 1867SOL    HW1 8515   2.265   2.844   3.924
 1867SOL    HW2 8516   2.156   2.723   3.917
 1868SOL     OW 8517   3.320   2.597   4.452
 1868SOL    HW1 8518   3.315   2.532   4.527
 1868SOL    HW2 8519   3.400   2.656   4.465
 1869SOL     OW 8520   2.973   3.638   3.961
 1869SOL    HW1 8521   2.913   3.576   4.011
 1869SOL    HW2 8522   3.004   3.594   3.876
 1870SOL     OW 8523   3.494   3.239   3.805
 1870SOL    HW1 8524   3.462   3.333   3.795
 1870SOL    HW2 8525   3.418   3.176   3.793
 1871SOL     OW 8526   2.326   3.605   4.047
 1871SOL    HW1 8527   2.359   3.644   4.133
 1871SOL    HW2 8528   2.402   3.598   3.982
 1872SOL     OW 8529   3.262   1.969   4.150
 1872SOL    HW1 8530   3.238   1.932   4.060
 1872SOL    HW2 8531   3.361   1.985   4.154
 1873SOL     OW 8532   2.244   2.562   4.204
 1873SOL    HW1 8533   2.289   2.472   4.201
 1873SOL    HW2 8534   2.150   2.551   4.237
 1874SOL     OW 8535   2.784   2.365   4.623
 1874SOL    HW1 8536   2.759   2.356   4.527
 1874SOL    HW2 8537   2.832   2.283   4.654
 1875SOL     OW 8538   2.401   1.926   4.236
 1875SOL    HW1 8539   2.320   1.927   4.294
 1875SOL    HW2 8540   2.404   2.009   4.181
 1876SOL     OW 8541   2.797   2.098   4.204
 1876SOL    HW1 8542   2.749   2.139   4.126
 1876SOL    HW2 8543   2.896   2.096   4.185
 1877SOL     OW 8544   3.089   3.432   4.517
 1877SOL    HW1 8545   3.110   3.506   4.452
 1877SOL    HW2 8546   3.157   3.432   4.590
 1878SOL     OW 8547   2.321   3.014   4.465
 1878SOL    HW1 8548   2.250   2.987   4.530
 1878SOL    HW2 8549   2.295   2.986   4.372
 1879SOL     OW 8550   3.133   3.659   4.315
 1879SOL    HW1 8551   3.177   3.723   4.251
 1879SOL    HW2 8552   3.083   3.711   4.385
 1880SOL     OW 8553   2.894   2.411   3.740
 1880SOL    HW1 8554   2.853   2.493   3.701
 1880SOL    HW2 8555   2.958   2.437   3.813
 1881SOL     OW 8556   2.728   2.316   4.366
 1881SOL    HW1 8557   2.696   2.388   4.304
 1881SOL    HW2 8558   2.752   2.235   4.313
 1882SOL     OW 8559   3.291   3.035   4.591
 1882SOL    HW1 8560   3.236   2.951   4.584
 1882SOL    HW2 8561   3.317   3.064   4.499
 1883SOL     OW 8562   3.252   2.437   3.802
 1883SOL    HW1 8563   3.198   2.416   3.883
 1883SOL    HW2 8564   3.343   2.396   3.811
 1884SOL     OW 8565   2.389   2.118   4.052
 1884SOL    HW1 8566   2.416   2.059   3.977
 1884SOL    HW2 8567   2.389   2.213   4.021
 1885SOL     OW 8568   3.500   2.961   4.803
 1885SOL    HW1 8569   3.505   3.042   4.862
 1885SOL    HW2 8570   3.414   2.963   4.752
 1886SOL     OW 8571   2.567   2.912   4.092
 1886SOL    HW1 8572   2.553   2.919   4.191
 1886SOL    HW2 8573   2.651   2.861   4.074
 1887SOL     OW 8574   2.272   2.675   4.975
 1887SOL    HW1 8575   2.358   2.687   5.025
 1887SOL    HW2 8576   2.230   2.588   5.002
 1888SOL     OW 8577   3.136   2.248   4.986
 1888SOL    HW1 8578   3.157   2.322   5.050
 1888SOL    HW2 8579   3.047   2.265   4.943
 1889SOL     OW 8580   2.428   2.399   4.589
 1889SOL    HW1 8581   2.440   2.465   4.515
 1889SOL    HW2 8582   2.474   2.433   4.672
 1890SOL     OW 8583   3.114   3.210   4.112
 1890SOL    HW1 8584   3.164   3.287   4.152
 1890SOL    HW2 8585   3.019   3.212   4.144
 1891SOL     OW 8586   3.134   3.307   4.866
 1891SOL    HW1 8587   3.181   3.320   4.953
 1891SOL    HW2 8588   3.068   3.233   4.875
 1892SOL     OW 8589   2.435   2.732   4.753
 1892SOL    HW1 8590   2.479   2.821   4.744
 1892SOL    HW2 8591   2.372   2.732   4.830
 1893SOL     OW 8592   3.222   2.724   4.769
 1893SOL    HW1 8593   3.147   2.724   4.703
 1893SOL    HW2 8594   3.259   2.632   4.778
 1894SOL     OW 8595   3.071   2.387   3.999
 1894SOL    HW1 8596   3.084   2.303   4.053
 1894SOL    HW2 8597   3.042   2.461   4.059
 1895SOL     OW 8598   1.899   3.172   5.006
 1895SOL    HW1 8599   1.952   3.123   5.074
 1895SOL    HW2 8600   1.921   3.270   5.011
 1896SOL     OW 8601   2.594   2.496   4.788
 1896SOL    HW1 8602   2.653   2.470   4.712
 1896SOL    HW2 8603   2.566   2.592   4.777
 1897SOL     OW 8604   2.169   1.925   4.342
 1897SOL    HW1 8605   2.158   2.019   4.375
 1897SOL    HW2 8606   2.164   1.862   4.419
 1898SOL     OW 8607   3.484   2.229   4.098
 1898SOL    HW1 8608   3.486   2.153   4.162
 1898SOL    HW2 8609   3.436   2.306   4.138
 1899SOL     OW 8610   2.885   2.628   4.690
 1899SOL    HW1 8611   2.900   2.649   4.786
 1899SOL    HW2 8612   2.855   2.533   4.681
 1900SOL     OW 8613   3.402   2.136   3.849
 1900SOL    HW1 8614   3.341   2.061   3.872
 1900SOL    HW2 8615   3.424   2.188   3.932
 1901SOL     OW 8616   2.181   2.672   4.673
 1901SOL    HW1 8617   2.274   2.708   4.678
 1901SOL    HW2 8618   2.175   2.587   4.725
 1902SOL     OW 8619   2.201   2.371   4.730
 1902SOL    HW1 8620   2.149   2.288   4.713
 1902SOL    HW2 8621   2.278   2.376   4.666
 1903SOL     OW 8622   3.022   2.069   5.201
 1903SOL    HW1 8623   3.022   2.133   5.278
 1903SOL    HW2 8624   3.050   2.117   5.118
 1904SOL     OW 8625   1.870   3.188   3.924
 1904SOL    HW1 8626   1.777   3.209   3.893
 1904SOL    HW2 8627   1.880   3.089   3.937
 1905SOL     OW 8628   1.950   3.663   4.651
 1905SOL    HW1 8629   1.908   3.577   4.624
 1905SOL    HW2 8630   2.044   3.666   4.617
 1906SOL     OW 8631   2.864   2.658   4.962
 1906SOL    HW1 8632   2.905   2.626   5.048
 1906SOL    HW2 8633   2.768   2.631   4.959
 1907SOL     OW 8634   1.902   2.406   4.838
 1907SOL    HW1 8635   1.987   2.373   4.797
 1907SOL    HW2 8636   1.915   2.421   4.936
 1908SOL     OW 8637   2.677   2.434   4.049
 1908SOL    HW1 8638   2.684   2.345   4.003
 1908SOL    HW2 8639   2.583   2.468   4.041
 1909SOL     OW 8640   2.792   3.540   5.189
 1909SOL    HW1 8641   2.768   3.522   5.094
 1909SOL    HW2 8642   2.822   3.634   5.199
 1910SOL     OW 8643   2.335   2.362   3.915
 1910SOL    HW1 8644   2.396   2.442   3.919
 1910SOL    HW2 8645   2.240   2.393   3.922
 1911SOL     OW 8646   3.209   2.921   4.958
 1911SOL    HW1 8647   3.233   2.858   4.884
 1911SOL    HW2 8648   3.119   2.961   4.940
 1912SOL     OW 8649   3.621   3.609   4.878
 1912SOL    HW1 8650   3.682   3.639   4.805
 1912SOL    HW2 8651   3.583   3.520   4.856
 1913SOL     OW 8652   3.114   3.593   4.852
 1913SOL    HW1 8653   3.198   3.598   4.798
 1913SOL    HW2 8654   3.091   3.497   4.870
 1914SOL     OW 8655   1.945   3.120   4.746
 1914SOL    HW1 8656   1.940   3.119   4.846
 1914SOL    HW2 8657   1.862   3.079   4.708
 1915SOL     OW 8658   3.588   1.997   4.247
 1915SOL    HW1 8659   3.661   1.980   4.180
 1915SOL    HW2 8660   3.557   1.910   4.285
 1916SOL     OW 8661   3.250   3.435   4.201
 1916SOL    HW1 8662   3.317   3.447   4.127
 1916SOL    HW2 8663   3.210   3.524   4.224
 1917SOL     OW 8664   3.142   2.789   4.396
 1917SOL    HW1 8665   3.202   2.708   4.398
 1917SOL    HW2 8666   3.182   2.858   4.336
 1918SOL     OW 8667   2.534   3.478   3.878
 1918SOL    HW1 8668   2.543   3.488   3.779
 1918SOL    HW2 8669   2.494   3.389   3.899
 1919SOL     OW 8670   3.512   3.582   5.118
 1919SOL    HW1 8671   3.565   3.592   5.034
 1919SOL    HW2 8672   3.485   3.672   5.152
 1920SOL     OW 8673   2.125   2.188   4.444
 1920SOL    HW1 8674   2.046   2.239   4.410
 1920SOL    HW2 8675   2.116   2.173   4.542
 1921SOL     OW 8676   2.684   2.864   5.096
 1921SOL    HW1 8677   2.724   2.863   5.004
 1921SOL    HW2 8678   2.694   2.956   5.136
 1922SOL     OW 8679   2.778   2.772   4.015
 1922SOL    HW1 8680   2.841   2.810   3.947
 1922SOL    HW2 8681   2.818   2.689   4.054
 1923SOL     OW 8682   3.366   3.469   3.768
 1923SOL    HW1 8683   3.274   3.506   3.775
 1923SOL    HW2 8684   3.404   3.489   3.678
 1924SOL     OW 8685   2.901   2.960   4.420
 1924SOL    HW1 8686   2.831   2.913   4.474
 1924SOL    HW2 8687   2.960   2.892   4.377
 1925SOL     OW 8688   2.876   2.098   4.695
 1925SOL    HW1 8689   2.868   2.062   4.602
 1925SOL    HW2 8690   2.874   2.022   4.760
 1926SOL     OW 8691   2.452   3.349   4.215
 1926SOL    HW1 8692   2.494   3.291   4.145
 1926SOL    HW2 8693   2.408   3.428   4.171
 1927SOL     OW 8694   3.571   2.247   5.105
 1927SOL    HW1 8695   3.644   2.316   5.109
 1927SOL    HW2 8696   3.599   2.172   5.046
 1928SOL     OW 8697   1.937   2.207   3.757
 1928SOL    HW1 8698   1.845   2.179   3.728
 1928SOL    HW2 8699   1.968   2.284   3.701
 1929SOL     OW 8700   1.934   2.028   4.042
 1929SOL    HW1 8701   1.917   2.111   3.988
 1929SOL    HW2 8702   2.024   1.991   4.020
 1930SOL     OW 8703   3.355   3.629   4.683
 1930SOL    HW1 8704   3.388   3.693   4.614
 1930SOL    HW2 8705   3.421   3.623   4.758
 1931SOL     OW 8706   3.312   3.082   5.357
 1931SOL    HW1 8707   3.303   3.072   5.456
 1931SOL    HW2 8708   3.408   3.075   5.331
 1932SOL     OW 8709   3.536   2.745   4.978
 1932SOL    HW1 8710   3.509   2.656   4.941
 1932SOL    HW2 8711   3.537   2.813   4.905
 1933SOL     OW 8712   3.087   2.187   4.173
 1933SOL    HW1 8713   3.152   2.113   4.162
 1933SOL    HW2 8714   3.107   2.237   4.257
 1934SOL     OW 8715   2.456   2.607   4.376
 1934SOL    HW1 8716   2.506   2.692   4.357
 1934SOL    HW2 8717   2.368   2.609   4.328
 1935SOL     OW 8718   2.523   3.652   4.677
 1935SOL    HW1 8719   2.477   3.740   4.664
 1935SOL    HW2 8720   2.622   3.664   4.670
 1936SOL     OW 8721   2.721   2.818   4.585
 1936SOL    HW1 8722   2.775   2.749   4.633
 1936SOL    HW2 8723   2.689   2.887   4.651
 1937SOL     OW 8724   2.290   2.286   4.244
 1937SOL    HW1 8725   2.320   2.214   4.182
 1937SOL    HW2 8726   2.251   2.246   4.327
 1938SOL     OW 8727   2.674   3.448   4.411
 1938SOL    HW1 8728   2.706   3.458   4.317
 1938SOL    HW2 8729   2.595   3.386   4.413
 1939SOL     OW 8730   3.286   2.076   4.836
 1939SOL    HW1 8731   3.338   2.011   4.891
 1939SOL    HW2 8732   3.237   2.139   4.897
 1940SOL     OW 8733   2.632   3.192   4.025
 1940SOL    HW1 8734   2.586   3.105   4.042
 1940SOL    HW2 8735   2.723   3.189   4.066
 1941SOL     OW 8736   3.214   1.914   3.892
 1941SOL    HW1 8737   3.249   1.873   3.808
 1941SOL    HW2 8738   3.124   1.876   3.912
 1942SOL     OW 8739   3.162   2.315   4.415
 1942SOL    HW1 8740   3.103   2.395   4.419
 1942SOL    HW2 8741   3.177   2.280   4.508
 1943SOL     OW 8742   3.455   2.083   4.606
 1943SOL    HW1 8743   3.371   2.082   4.660
 1943SOL    HW2 8744   3.457   2.166   4.550
 1944SOL     OW 8745   1.901   2.939   4.024
 1944SOL    HW1 8746   2.000   2.928   4.015
 1944SOL    HW2 8747   1.861   2.853   4.056
 1945SOL     OW 8748   2.737   3.508   4.061
 1945SOL    HW1 8749   2.660   3.473   4.007
 1945SOL    HW2 8750   2.705   3.579   4.123
 1946SOL     OW 8751   2.092   4.352   0.113
 1946SOL    HW1 8752   1.999   4.350   0.150
 1946SOL    HW2 8753   2.093   4.313   0.021
 1947SOL     OW 8754   2.087   3.999   0.996
 1947SOL    HW1 8755   2.122   3.982   1.088
 1947SOL    HW2 8756   1.999   3.954   0.984
 1948SOL     OW 8757   1.881   4.092   0.647
 1948SOL    HW1 8758   1.799   4.135   0.686
 1948SOL    HW2 8759   1.853   4.019   0.584
 1949SOL     OW 8760   2.431   4.999   1.165
 1949SOL    HW1 8761   2.338   4.992   1.128
 1949SOL    HW2 8762   2.442   5.088   1.209
 1950SOL     OW 8763   2.997   4.427   0.717
 1950SOL    HW1 8764   3.054   4.505   0.692
 1950SOL    HW2 8765   2.937   4.453   0.793
 1951SOL     OW 8766   2.630   4.868   1.023
 1951SOL    HW1 8767   2.552   4.885   1.083
 1951SOL    HW2 8768   2.664   4.955   0.987
 1952SOL     OW 8769   2.712   4.522   1.823
 1952SOL    HW1 8770   2.708   4.598   1.888
 1952SOL    HW2 8771   2.734   4.558   1.732
 1953SOL     OW 8772   2.547   4.736   0.665
 1953SOL    HW1 8773   2.616   4.720   0.735
 1953SOL    HW2 8774   2.474   4.793   0.703
 1954SOL     OW 8775   2.548   4.885   1.803
 1954SOL    HW1 8776   2.608   4.964   1.817
 1954SOL    HW2 8777   2.462   4.916   1.762
 1955SOL     OW 8778   2.197   5.159   1.061
 1955SOL    HW1 8779   2.119   5.128   1.008
 1955SOL    HW2 8780   2.255   5.217   1.004
 1956SOL     OW 8781   2.102   4.815   0.886
 1956SOL    HW1 8782   2.116   4.731   0.938
 1956SOL    HW2 8783   2.047   4.879   0.941
 1957SOL     OW 8784   2.468   4.688   0.123
 1957SOL    HW1 8785   2.475   4.772   0.069
 1957SOL    HW2 8786   2.514   4.701   0.211
 1958SOL     OW 8787   1.984   4.367   0.563
 1958SOL    HW1 8788   1.939   4.279   0.580
 1958SOL    HW2 8789   1.983   4.421   0.647
 1959SOL     OW 8790   3.551   4.646   0.612
 1959SOL    HW1 8791   3.646   4.617   0.620
 1959SOL    HW2 8792   3.543   4.711   0.537
 1960SOL     OW 8793   3.503   4.832   0.432
 1960SOL    HW1 8794   3.589   4.834   0.380
 1960SOL    HW2 8795   3.517   4.879   0.520
 1961SOL     OW 8796   2.059   4.700   1.264
 1961SOL    HW1 8797   2.148   4.655   1.250
 1961SOL    HW2 8798   1.986   4.635   1.245
 1962SOL     OW 8799   2.179   3.975   1.801
 1962SOL    HW1 8800   2.250   4.046   1.807
 1962SOL    HW2 8801   2.091   4.014   1.829
 1963SOL     OW 8802   2.460   4.453   0.270
 1963SOL    HW1 8803   2.484   4.522   0.202
 1963SOL    HW2 8804   2.382   4.486   0.324
 1964SOL     OW 8805   3.143   4.069   0.944
 1964SOL    HW1 8806   3.057   4.019   0.931
 1964SOL    HW2 8807   3.205   4.015   1.000
 1965SOL     OW 8808   2.669   4.329   1.465
 1965SOL    HW1 8809   2.622   4.326   1.554
 1965SOL    HW2 8810   2.618   4.274   1.399
 1966SOL     OW 8811   2.853   4.134   1.242
 1966SOL    HW1 8812   2.776   4.168   1.296
 1966SOL    HW2 8813   2.819   4.083   1.163
 1967SOL     OW 8814   2.903   4.425   0.429
 1967SOL    HW1 8815   2.929   4.421   0.525
 1967SOL    HW2 8816   2.818   4.374   0.415
 1968SOL     OW 8817   1.938   4.535   0.789
 1968SOL    HW1 8818   2.037   4.523   0.798
 1968SOL    HW2 8819   1.914   4.630   0.810
 1969SOL     OW 8820   2.727   4.072   0.195
 1969SOL    HW1 8821   2.786   4.135   0.146
 1969SOL    HW2 8822   2.746   3.978   0.166
 1970SOL     OW 8823   3.224   4.868   0.545
 1970SOL    HW1 8824   3.307   4.839   0.497
 1970SOL    HW2 8825   3.175   4.935   0.489
 1971SOL     OW 8826   3.657   4.790   0.873
 1971SOL    HW1 8827   3.595   4.775   0.797
 1971SOL    HW2 8828   3.605   4.801   0.958
 1972SOL     OW 8829   2.183   4.667   0.242
 1972SOL    HW1 8830   2.265   4.706   0.200
 1972SOL    HW2 8831   2.156   4.585   0.193
 1973SOL     OW 8832   2.064   4.009   1.498
 1973SOL    HW1 8833   1.984   4.069   1.485
 1973SOL    HW2 8834   2.054   3.960   1.584
 1974SOL     OW 8835   2.244   4.424   0.480
 1974SOL    HW1 8836   2.289   4.334   0.477
 1974SOL    HW2 8837   2.150   4.413   0.513
 1975SOL     OW 8838   3.409   3.946   1.729
 1975SOL    HW1 8839   3.404   3.983   1.821
 1975SOL    HW2 8840   3.337   3.877   1.717
 1976SOL     OW 8841   2.643   3.988   1.749
 1976SOL    HW1 8842   2.710   3.927   1.792
 1976SOL    HW2 8843   2.570   4.007   1.814
 1977SOL     OW 8844   2.784   4.227   0.899
 1977SOL    HW1 8845   2.759   4.218   0.803
 1977SOL    HW2 8846   2.832   4.145   0.930
 1978SOL     OW 8847   3.296   4.912   0.041
 1978SOL    HW1 8848   3.328   4.836   0.098
 1978SOL    HW2 8849   3.204   4.939   0.071
 1979SOL     OW 8850   2.159   3.759   0.171
 1979SOL    HW1 8851   2.208   3.843   0.150
 1979SOL    HW2 8852   2.221   3.694   0.216
 1980SOL     OW 8853   2.797   3.960   0.480
 1980SOL    HW1 8854   2.749   4.001   0.402
 1980SOL    HW2 8855   2.896   3.958   0.461
 1981SOL     OW 8856   2.938   4.407   1.464
 1981SOL    HW1 8857   2.858   4.346   1.467
 1981SOL    HW2 8858   3.019   4.354   1.440
 1982SOL     OW 8859   3.089   5.294   0.793
 1982SOL    HW1 8860   3.110   5.368   0.728
 1982SOL    HW2 8861   3.157   5.294   0.866
 1983SOL     OW 8862   2.321   4.876   0.741
 1983SOL    HW1 8863   2.250   4.849   0.806
 1983SOL    HW2 8864   2.295   4.848   0.648
 1984SOL     OW 8865   2.894   4.273   0.016
 1984SOL    HW1 8866   2.853   4.355  -0.023
 1984SOL    HW2 8867   2.958   4.299   0.089
 1985SOL     OW 8868   2.423   3.946   1.147
 1985SOL    HW1 8869   2.461   3.862   1.184
 1985SOL    HW2 8870   2.335   3.965   1.191
 1986SOL     OW 8871   2.728   4.178   0.642
 1986SOL    HW1 8872   2.696   4.250   0.580
 1986SOL    HW2 8873   2.752   4.097   0.589
 1987SOL     OW 8874   2.879   3.763   0.753
 1987SOL    HW1 8875   2.807   3.768   0.684
 1987SOL    HW2 8876   2.855   3.694   0.822
 1988SOL     OW 8877   3.328   4.314   0.992
 1988SOL    HW1 8878   3.298   4.219   0.999
 1988SOL    HW2 8879   3.401   4.330   1.058
 1989SOL     OW 8880   3.719   4.557   0.377
 1989SOL    HW1 8881   3.761   4.493   0.441
 1989SOL    HW2 8882   3.681   4.506   0.299
 1990SOL     OW 8883   3.252   4.299   0.078
 1990SOL    HW1 8884   3.198   4.278   0.159
 1990SOL    HW2 8885   3.343   4.258   0.087
 1991SOL     OW 8886   2.777   3.813   1.402
 1991SOL    HW1 8887   2.802   3.793   1.307
 1991SOL    HW2 8888   2.849   3.869   1.444
 1992SOL     OW 8889   2.567   4.774   0.368
 1992SOL    HW1 8890   2.553   4.781   0.467
 1992SOL    HW2 8891   2.651   4.723   0.350
 1993SOL     OW 8892   2.272   4.537   1.251
 1993SOL    HW1 8893   2.358   4.549   1.301
 1993SOL    HW2 8894   2.230   4.450   1.278
 1994SOL     OW 8895   3.136   4.110   1.262
 1994SOL    HW1 8896   3.157   4.184   1.326
 1994SOL    HW2 8897   3.047   4.127   1.219
 1995SOL     OW 8898   2.229   4.824   0.501
 1995SOL    HW1 8899   2.222   4.907   0.445
 1995SOL    HW2 8900   2.233   4.744   0.441
 1996SOL     OW 8901   2.428   4.261   0.865
 1996SOL    HW1 8902   2.440   4.327   0.791
 1996SOL    HW2 8903   2.474   4.295   0.948
 1997SOL     OW 8904   3.444   4.363   0.472
 1997SOL    HW1 8905   3.413   4.424   0.545
 1997SOL    HW2 8906   3.494   4.415   0.403
 1998SOL     OW 8907   2.435   4.594   1.029
 1998SOL    HW1 8908   2.479   4.683   1.020
 1998SOL    HW2 8909   2.372   4.594   1.106
 1999SOL     OW 8910   3.222   4.586   1.045
 1999SOL    HW1 8911   3.147   4.586   0.979
 1999SOL    HW2 8912   3.259   4.494   1.054
 2000SOL     OW 8913   3.071   4.249   0.275
 2000SOL    HW1 8914   3.084   4.165   0.329
 2000SOL    HW2 8915   3.042   4.323   0.335
 2001SOL     OW 8916   2.169   3.937   1.231
 2001SOL    HW1 8917   2.146   3.974   1.321
 2001SOL    HW2 8918   2.139   3.842   1.225
 2002SOL     OW 8919   2.594   4.358   1.064
 2002SOL    HW1 8920   2.653   4.332   0.988
 2002SOL    HW2 8921   2.566   4.454   1.053
 2003SOL     OW 8922   3.590   4.659   1.854
 2003SOL    HW1 8923   3.544   4.652   1.765
 2003SOL    HW2 8924   3.528   4.703   1.920
 2004SOL     OW 8925   3.484   4.091   0.374
 2004SOL    HW1 8926   3.486   4.015   0.438
 2004SOL    HW2 8927   3.436   4.168   0.414
 2005SOL     OW 8928   2.885   4.490   0.966
 2005SOL    HW1 8929   2.900   4.511   1.062
 2005SOL    HW2 8930   2.855   4.395   0.957
 2006SOL     OW 8931   3.165   4.562   0.042
 2006SOL    HW1 8932   3.199   4.469   0.057
 2006SOL    HW2 8933   3.183   4.589  -0.053
 2007SOL     OW 8934   2.181   4.534   0.949
 2007SOL    HW1 8935   2.274   4.570   0.954
 2007SOL    HW2 8936   2.175   4.449   1.001
 2008SOL     OW 8937   3.022   3.931   1.477
 2008SOL    HW1 8938   3.022   3.995   1.554
 2008SOL    HW2 8939   3.050   3.979   1.394
 2009SOL     OW 8940   2.864   4.520   1.238
 2009SOL    HW1 8941   2.905   4.488   1.324
 2009SOL    HW2 8942   2.768   4.493   1.235
 2010SOL     OW 8943   2.677   4.296   0.325
 2010SOL    HW1 8944   2.684   4.207   0.279
 2010SOL    HW2 8945   2.583   4.330   0.317
 2011SOL     OW 8946   3.519   4.328   1.206
 2011SOL    HW1 8947   3.481   4.259   1.268
 2011SOL    HW2 8948   3.601   4.292   1.162
 2012SOL     OW 8949   2.335   4.224   0.191
 2012SOL    HW1 8950   2.396   4.304   0.195
 2012SOL    HW2 8951   2.240   4.255   0.198
 2013SOL     OW 8952   3.164   4.579   0.309
 2013SOL    HW1 8953   3.078   4.548   0.351
 2013SOL    HW2 8954   3.160   4.565   0.210
 2014SOL     OW 8955   1.945   4.982   1.022
 2014SOL    HW1 8956   1.940   4.981   1.122
 2014SOL    HW2 8957   1.862   4.941   0.984
 2015SOL     OW 8958   3.588   3.859   0.523
 2015SOL    HW1 8959   3.661   3.842   0.456
 2015SOL    HW2 8960   3.557   3.772   0.561
 2016SOL     OW 8961   3.142   4.651   0.672
 2016SOL    HW1 8962   3.202   4.570   0.674
 2016SOL    HW2 8963   3.182   4.720   0.612
 2017SOL     OW 8964   2.692   4.997   1.422
 2017SOL    HW1 8965   2.687   5.030   1.517
 2017SOL    HW2 8966   2.606   5.016   1.376
 2018SOL     OW 8967   2.125   4.050   0.720
 2018SOL    HW1 8968   2.046   4.101   0.686
 2018SOL    HW2 8969   2.116   4.035   0.818
 2019SOL     OW 8970   2.684   4.726   1.372
 2019SOL    HW1 8971   2.724   4.725   1.280
 2019SOL    HW2 8972   2.694   4.818   1.412
 2020SOL     OW 8973   2.778   4.634   0.291
 2020SOL    HW1 8974   2.841   4.672   0.223
 2020SOL    HW2 8975   2.818   4.551   0.330
 2021SOL     OW 8976   2.234   5.012   1.490
 2021SOL    HW1 8977   2.221   5.105   1.456
 2021SOL    HW2 8978   2.150   4.960   1.477
 2022SOL     OW 8979   2.901   4.822   0.696
 2022SOL    HW1 8980   2.831   4.775   0.750
 2022SOL    HW2 8981   2.960   4.754   0.653
 2023SOL     OW 8982   2.876   3.960   0.971
 2023SOL    HW1 8983   2.868   3.924   0.878
 2023SOL    HW2 8984   2.874   3.884   1.036
 2024SOL     OW 8985   2.534   3.927   1.489
 2024SOL    HW1 8986   2.624   3.911   1.449
 2024SOL    HW2 8987   2.542   3.932   1.588
 2025SOL     OW 8988   1.934   3.890   0.318
 2025SOL    HW1 8989   1.917   3.973   0.264
 2025SOL    HW2 8990   2.024   3.853   0.296
 2026SOL     OW 8991   2.475   4.566   1.431
 2026SOL    HW1 8992   2.531   4.647   1.414
 2026SOL    HW2 8993   2.534   4.486   1.434
 2027SOL     OW 8994   2.578   4.289   1.708
 2027SOL    HW1 8995   2.597   4.354   1.782
 2027SOL    HW2 8996   2.638   4.209   1.717
 2028SOL     OW 8997   3.312   4.944   1.633
 2028SOL    HW1 8998   3.303   4.934   1.732
 2028SOL    HW2 8999   3.408   4.937   1.607
 2029SOL     OW 9000   3.087   4.049   0.449
 2029SOL    HW1 9001   3.152   3.975   0.438
 2029SOL    HW2 9002   3.107   4.099   0.533
 2030SOL     OW 9003   2.456   4.469   0.652
 2030SOL    HW1 9004   2.506   4.554   0.633
 2030SOL    HW2 9005   2.368   4.471   0.604
 2031SOL     OW 9006   2.721   4.680   0.861
 2031SOL    HW1 9007   2.775   4.611   0.909
 2031SOL    HW2 9008   2.689   4.749   0.927
 2032SOL     OW 9009   2.945   4.708   0.087
 2032SOL    HW1 9010   2.922   4.761   0.005
 2032SOL    HW2 9011   3.026   4.652   0.068
 2033SOL     OW 9012   1.941   4.964   0.653
 2033SOL    HW1 9013   1.940   4.917   0.741
 2033SOL    HW2 9014   2.023   4.936   0.602
 2034SOL     OW 9015   3.286   3.938   1.112
 2034SOL    HW1 9016   3.338   3.873   1.167
 2034SOL    HW2 9017   3.237   4.001   1.173
 2035SOL     OW 9018   2.863   3.758   1.154
 2035SOL    HW1 9019   2.800   3.686   1.123
 2035SOL    HW2 9020   2.956   3.722   1.154
 2036SOL     OW 9021   2.632   5.054   0.301
 2036SOL    HW1 9022   2.586   4.967   0.318
 2036SOL    HW2 9023   2.723   5.051   0.342
 2037SOL     OW 9024   3.162   4.177   0.691
 2037SOL    HW1 9025   3.103   4.257   0.695
 2037SOL    HW2 9026   3.177   4.142   0.784
 2038SOL     OW 9027   3.455   3.945   0.882
 2038SOL    HW1 9028   3.371   3.944   0.936
 2038SOL    HW2 9029   3.457   4.028   0.826
 2039SOL     OW 9030   1.901   4.801   0.300
 2039SOL    HW1 9031   2.000   4.790   0.291
 2039SOL    HW2 9032   1.861   4.715   0.332
 2040SOL     OW 9033   1.881   4.092   2.509
 2040SOL    HW1 9034   1.799   4.135   2.548
 2040SOL    HW2 9035   1.853   4.019   2.446
 2041SOL     OW 9036   2.431   4.999   3.027
 2041SOL    HW1 9037   2.338   4.992   2.990
 2041SOL    HW2 9038   2.442   5.088   3.071
 2042SOL     OW 9039   3.417   5.235   2.565
 2042SOL    HW1 9040   3.360   5.219   2.646
 2042SOL    HW2 9041   3.358   5.245   2.485
 2043SOL     OW 9042   2.630   4.868   2.885
 2043SOL    HW1 9043   2.552   4.885   2.945
 2043SOL    HW2 9044   2.664   4.955   2.849
 2044SOL     OW 9045   2.712   4.522   3.685
 2044SOL    HW1 9046   2.708   4.598   3.750
 2044SOL    HW2 9047   2.734   4.558   3.594
 2045SOL     OW 9048   2.547   4.736   2.527
 2045SOL    HW1 9049   2.616   4.720   2.597
 2045SOL    HW2 9050   2.474   4.793   2.565
 2046SOL     OW 9051   2.197   5.159   2.923
 2046SOL    HW1 9052   2.119   5.128   2.870
 2046SOL    HW2 9053   2.255   5.217   2.866
 2047SOL     OW 9054   3.465   4.171   2.599
 2047SOL    HW1 9055   3.391   4.217   2.549
 2047SOL    HW2 9056   3.516   4.239   2.652
 2048SOL     OW 9057   2.102   4.815   2.748
 2048SOL    HW1 9058   2.116   4.731   2.800
 2048SOL    HW2 9059   2.047   4.879   2.803
 2049SOL     OW 9060   2.468   4.688   1.985
 2049SOL    HW1 9061   2.475   4.772   1.931
 2049SOL    HW2 9062   2.514   4.701   2.073
 2050SOL     OW 9063   3.456   3.838   3.342
 2050SOL    HW1 9064   3.438   3.905   3.270
 2050SOL    HW2 9065   3.453   3.884   3.431
 2051SOL     OW 9066   1.984   4.367   2.425
 2051SOL    HW1 9067   1.939   4.279   2.442
 2051SOL    HW2 9068   1.983   4.421   2.509
 2052SOL     OW 9069   3.551   4.646   2.474
 2052SOL    HW1 9070   3.646   4.617   2.482
 2052SOL    HW2 9071   3.543   4.711   2.399
 2053SOL     OW 9072   3.503   4.832   2.294
 2053SOL    HW1 9073   3.589   4.834   2.242
 2053SOL    HW2 9074   3.517   4.879   2.382
 2054SOL     OW 9075   1.975   4.461   3.459
 2054SOL    HW1 9076   2.063   4.448   3.504
 2054SOL    HW2 9077   1.962   4.558   3.437
 2055SOL     OW 9078   2.059   4.700   3.126
 2055SOL    HW1 9079   2.148   4.655   3.112
 2055SOL    HW2 9080   1.986   4.635   3.107
 2056SOL     OW 9081   2.179   3.975   3.663
 2056SOL    HW1 9082   2.250   4.046   3.669
 2056SOL    HW2 9083   2.091   4.014   3.691
 2057SOL     OW 9084   2.460   4.453   2.132
 2057SOL    HW1 9085   2.484   4.522   2.064
 2057SOL    HW2 9086   2.382   4.486   2.186
 2058SOL     OW 9087   2.669   4.329   3.327
 2058SOL    HW1 9088   2.622   4.326   3.416
 2058SOL    HW2 9089   2.618   4.274   3.261
 2059SOL     OW 9090   3.256   4.193   3.536
 2059SOL    HW1 9091   3.236   4.236   3.624
 2059SOL    HW2 9092   3.334   4.131   3.545
 2060SOL     OW 9093   2.835   4.614   3.434
 2060SOL    HW1 9094   2.881   4.530   3.405
 2060SOL    HW2 9095   2.779   4.648   3.359
 2061SOL     OW 9096   2.903   4.425   2.291
 2061SOL    HW1 9097   2.929   4.421   2.387
 2061SOL    HW2 9098   2.818   4.374   2.277
 2062SOL     OW 9099   1.938   4.535   2.651
 2062SOL    HW1 9100   2.037   4.523   2.660
 2062SOL    HW2 9101   1.914   4.630   2.672
 2063SOL     OW 9102   2.727   4.072   2.057
 2063SOL    HW1 9103   2.786   4.135   2.008
 2063SOL    HW2 9104   2.746   3.978   2.028
 2064SOL     OW 9105   3.224   4.868   2.407
 2064SOL    HW1 9106   3.307   4.839   2.359
 2064SOL    HW2 9107   3.175   4.935   2.351
 2065SOL     OW 9108   2.412   3.920   2.747
 2065SOL    HW1 9109   2.407   3.915   2.847
 2065SOL    HW2 9110   2.414   4.016   2.718
 2066SOL     OW 9111   3.657   4.790   2.735
 2066SOL    HW1 9112   3.595   4.775   2.659
 2066SOL    HW2 9113   3.605   4.801   2.820
 2067SOL     OW 9114   3.494   5.101   1.943
 2067SOL    HW1 9115   3.462   5.195   1.933
 2067SOL    HW2 9116   3.418   5.038   1.931
 2068SOL     OW 9117   2.244   4.424   2.342
 2068SOL    HW1 9118   2.289   4.334   2.339
 2068SOL    HW2 9119   2.150   4.413   2.375
 2069SOL     OW 9120   3.409   3.946   3.591
 2069SOL    HW1 9121   3.404   3.983   3.683
 2069SOL    HW2 9122   3.337   3.877   3.579
 2070SOL     OW 9123   2.643   3.988   3.611
 2070SOL    HW1 9124   2.710   3.927   3.654
 2070SOL    HW2 9125   2.570   4.007   3.676
 2071SOL     OW 9126   3.213   4.314   3.295
 2071SOL    HW1 9127   3.241   4.271   3.380
 2071SOL    HW2 9128   3.238   4.410   3.296
 2072SOL     OW 9129   2.401   3.788   2.374
 2072SOL    HW1 9130   2.320   3.789   2.432
 2072SOL    HW2 9131   2.404   3.871   2.319
 2073SOL     OW 9132   3.296   4.912   1.903
 2073SOL    HW1 9133   3.328   4.836   1.960
 2073SOL    HW2 9134   3.204   4.939   1.933
 2074SOL     OW 9135   2.797   3.960   2.342
 2074SOL    HW1 9136   2.749   4.001   2.264
 2074SOL    HW2 9137   2.896   3.958   2.323
 2075SOL     OW 9138   2.938   4.407   3.326
 2075SOL    HW1 9139   2.858   4.346   3.329
 2075SOL    HW2 9140   3.019   4.354   3.302
 2076SOL     OW 9141   2.321   4.876   2.603
 2076SOL    HW1 9142   2.250   4.849   2.668
 2076SOL    HW2 9143   2.295   4.848   2.510
 2077SOL     OW 9144   2.423   3.946   3.009
 2077SOL    HW1 9145   2.461   3.862   3.046
 2077SOL    HW2 9146   2.335   3.965   3.053
 2078SOL     OW 9147   2.728   4.178   2.504
 2078SOL    HW1 9148   2.696   4.250   2.442
 2078SOL    HW2 9149   2.752   4.097   2.451
 2079SOL     OW 9150   3.328   4.314   2.854
 2079SOL    HW1 9151   3.298   4.219   2.861
 2079SOL    HW2 9152   3.401   4.330   2.920
 2080SOL     OW 9153   3.719   4.557   2.239
 2080SOL    HW1 9154   3.761   4.493   2.303
 2080SOL    HW2 9155   3.681   4.506   2.161
 2081SOL     OW 9156   3.526   5.004   2.519
 2081SOL    HW1 9157   3.625   5.012   2.533
 2081SOL    HW2 9158   3.481   5.088   2.550
 2082SOL     OW 9159   2.389   3.980   2.190
 2082SOL    HW1 9160   2.416   3.921   2.115
 2082SOL    HW2 9161   2.389   4.075   2.159
 2083SOL     OW 9162   3.616   4.947   3.450
 2083SOL    HW1 9163   3.707   4.908   3.437
 2083SOL    HW2 9164   3.624   5.043   3.474
 2084SOL     OW 9165   2.777   3.813   3.264
 2084SOL    HW1 9166   2.802   3.793   3.169
 2084SOL    HW2 9167   2.849   3.869   3.306
 2085SOL     OW 9168   2.842   4.840   3.581
 2085SOL    HW1 9169   2.743   4.846   3.591
 2085SOL    HW2 9170   2.865   4.760   3.525
 2086SOL     OW 9171   2.567   4.774   2.230
 2086SOL    HW1 9172   2.553   4.781   2.329
 2086SOL    HW2 9173   2.651   4.723   2.212
 2087SOL     OW 9174   2.229   4.824   2.363
 2087SOL    HW1 9175   2.222   4.907   2.307
 2087SOL    HW2 9176   2.233   4.744   2.303
 2088SOL     OW 9177   2.428   4.261   2.727
 2088SOL    HW1 9178   2.440   4.327   2.653
 2088SOL    HW2 9179   2.474   4.295   2.810
 2089SOL     OW 9180   3.444   4.363   2.334
 2089SOL    HW1 9181   3.413   4.424   2.407
 2089SOL    HW2 9182   3.494   4.415   2.265
 2090SOL     OW 9183   2.264   4.475   3.460
 2090SOL    HW1 9184   2.332   4.530   3.413
 2090SOL    HW2 9185   2.304   4.387   3.487
 2091SOL     OW 9186   3.449   4.503   3.532
 2091SOL    HW1 9187   3.357   4.541   3.527
 2091SOL    HW2 9188   3.509   4.550   3.467
 2092SOL     OW 9189   2.875   3.829   3.632
 2092SOL    HW1 9190   2.881   3.914   3.580
 2092SOL    HW2 9191   2.907   3.753   3.575
 2093SOL     OW 9192   2.366   3.774   3.602
 2093SOL    HW1 9193   2.324   3.717   3.532
 2093SOL    HW2 9194   2.300   3.843   3.634
 2094SOL     OW 9195   2.435   4.594   2.891
 2094SOL    HW1 9196   2.479   4.683   2.882
 2094SOL    HW2 9197   2.372   4.594   2.968
 2095SOL     OW 9198   3.222   4.586   2.907
 2095SOL    HW1 9199   3.147   4.586   2.841
 2095SOL    HW2 9200   3.259   4.494   2.916
 2096SOL     OW 9201   2.594   4.358   2.926
 2096SOL    HW1 9202   2.653   4.332   2.850
 2096SOL    HW2 9203   2.566   4.454   2.915
 2097SOL     OW 9204   3.590   4.659   3.716
 2097SOL    HW1 9205   3.544   4.652   3.627
 2097SOL    HW2 9206   3.528   4.703   3.782
 2098SOL     OW 9207   2.885   4.490   2.828
 2098SOL    HW1 9208   2.900   4.511   2.924
 2098SOL    HW2 9209   2.855   4.395   2.819
 2099SOL     OW 9210   3.721   5.242   3.467
 2099SOL    HW1 9211   3.735   5.269   3.372
 2099SOL    HW2 9212   3.804   5.264   3.520
 2100SOL     OW 9213   3.402   3.998   1.987
 2100SOL    HW1 9214   3.341   3.923   2.010
 2100SOL    HW2 9215   3.424   4.050   2.070
 2101SOL     OW 9216   3.000   4.104   3.540
 2101SOL    HW1 9217   2.955   4.167   3.604
 2101SOL    HW2 9218   3.093   4.135   3.523
 2102SOL     OW 9219   1.870   5.050   2.062
 2102SOL    HW1 9220   1.777   5.071   2.031
 2102SOL    HW2 9221   1.880   4.951   2.075
 2103SOL     OW 9222   2.864   4.520   3.100
 2103SOL    HW1 9223   2.905   4.488   3.186
 2103SOL    HW2 9224   2.768   4.493   3.097
 2104SOL     OW 9225   3.231   4.674   3.522
 2104SOL    HW1 9226   3.270   4.763   3.542
 2104SOL    HW2 9227   3.241   4.654   3.425
 2105SOL     OW 9228   2.677   4.296   2.187
 2105SOL    HW1 9229   2.684   4.207   2.141
 2105SOL    HW2 9230   2.583   4.330   2.179
 2106SOL     OW 9231   3.519   4.328   3.068
 2106SOL    HW1 9232   3.481   4.259   3.130
 2106SOL    HW2 9233   3.601   4.292   3.024
 2107SOL     OW 9234   2.533   4.188   3.131
 2107SOL    HW1 9235   2.499   4.099   3.101
 2107SOL    HW2 9236   2.559   4.242   3.051
 2108SOL     OW 9237   3.209   4.783   3.096
 2108SOL    HW1 9238   3.233   4.720   3.022
 2108SOL    HW2 9239   3.119   4.823   3.078
 2109SOL     OW 9240   3.164   4.579   2.171
 2109SOL    HW1 9241   3.078   4.548   2.213
 2109SOL    HW2 9242   3.160   4.565   2.072
 2110SOL     OW 9243   1.945   4.982   2.884
 2110SOL    HW1 9244   1.940   4.981   2.984
 2110SOL    HW2 9245   1.862   4.941   2.846
 2111SOL     OW 9246   2.692   4.997   3.284
 2111SOL    HW1 9247   2.687   5.030   3.379
 2111SOL    HW2 9248   2.606   5.016   3.238
 2112SOL     OW 9249   3.703   3.899   2.825
 2112SOL    HW1 9250   3.742   3.814   2.789
 2112SOL    HW2 9251   3.605   3.901   2.806
 2113SOL     OW 9252   3.056   5.336   1.893
 2113SOL    HW1 9253   3.062   5.243   1.930
 2113SOL    HW2 9254   2.997   5.336   1.813
 2114SOL     OW 9255   2.684   4.726   3.234
 2114SOL    HW1 9256   2.724   4.725   3.142
 2114SOL    HW2 9257   2.694   4.818   3.274
 2115SOL     OW 9258   2.778   4.634   2.153
 2115SOL    HW1 9259   2.841   4.672   2.085
 2115SOL    HW2 9260   2.818   4.551   2.192
 2116SOL     OW 9261   3.476   5.016   3.151
 2116SOL    HW1 9262   3.536   5.019   3.231
 2116SOL    HW2 9263   3.401   5.080   3.164
 2117SOL     OW 9264   3.571   4.109   3.243
 2117SOL    HW1 9265   3.644   4.178   3.247
 2117SOL    HW2 9266   3.599   4.034   3.184
 2118SOL     OW 9267   2.534   3.927   3.351
 2118SOL    HW1 9268   2.624   3.911   3.311
 2118SOL    HW2 9269   2.542   3.932   3.450
 2119SOL     OW 9270   1.937   4.069   1.895
 2119SOL    HW1 9271   1.845   4.041   1.866
 2119SOL    HW2 9272   1.968   4.146   1.839
 2120SOL     OW 9273   3.302   4.580   3.260
 2120SOL    HW1 9274   3.245   4.632   3.197
 2120SOL    HW2 9275   3.398   4.592   3.236
 2121SOL     OW 9276   2.475   4.566   3.293
 2121SOL    HW1 9277   2.531   4.647   3.276
 2121SOL    HW2 9278   2.534   4.486   3.296
 2122SOL     OW 9279   2.578   4.289   3.570
 2122SOL    HW1 9280   2.597   4.354   3.644
 2122SOL    HW2 9281   2.638   4.209   3.579
 2123SOL     OW 9282   3.312   4.944   3.495
 2123SOL    HW1 9283   3.303   4.934   3.594
 2123SOL    HW2 9284   3.408   4.937   3.469
 2124SOL     OW 9285   3.536   4.607   3.116
 2124SOL    HW1 9286   3.509   4.518   3.079
 2124SOL    HW2 9287   3.537   4.675   3.043
 2125SOL     OW 9288   2.456   4.469   2.514
 2125SOL    HW1 9289   2.506   4.554   2.495
 2125SOL    HW2 9290   2.368   4.471   2.466
 2126SOL     OW 9291   3.592   4.658   3.379
 2126SOL    HW1 9292   3.630   4.749   3.394
 2126SOL    HW2 9293   3.584   4.641   3.280
 2127SOL     OW 9294   2.945   4.708   1.949
 2127SOL    HW1 9295   2.922   4.761   1.867
 2127SOL    HW2 9296   3.026   4.652   1.930
 2128SOL     OW 9297   1.941   4.964   2.515
 2128SOL    HW1 9298   1.940   4.917   2.603
 2128SOL    HW2 9299   2.023   4.936   2.464
 2129SOL     OW 9300   3.686   3.916   3.089
 2129SOL    HW1 9301   3.682   3.826   3.133
 2129SOL    HW2 9302   3.689   3.905   2.990
 2130SOL     OW 9303   2.290   4.148   2.382
 2130SOL    HW1 9304   2.320   4.076   2.320
 2130SOL    HW2 9305   2.251   4.108   2.465
 2131SOL     OW 9306   2.863   3.758   3.016
 2131SOL    HW1 9307   2.800   3.686   2.985
 2131SOL    HW2 9308   2.956   3.722   3.016
 2132SOL     OW 9309   2.632   5.054   2.163
 2132SOL    HW1 9310   2.586   4.967   2.180
 2132SOL    HW2 9311   2.723   5.051   2.204
 2133SOL     OW 9312   3.214   3.776   2.030
 2133SOL    HW1 9313   3.249   3.735   1.946
 2133SOL    HW2 9314   3.124   3.738   2.050
 2134SOL     OW 9315   3.455   3.945   2.744
 2134SOL    HW1 9316   3.371   3.944   2.798
 2134SOL    HW2 9317   3.457   4.028   2.688
 2135SOL     OW 9318   1.901   4.801   2.162
 2135SOL    HW1 9319   2.000   4.790   2.153
 2135SOL    HW2 9320   1.861   4.715   2.194
 2136SOL     OW 9321   2.087   3.999   4.720
 2136SOL    HW1 9322   2.122   3.982   4.812
 2136SOL    HW2 9323   1.999   3.954   4.708
 2137SOL     OW 9324   2.431   4.999   4.889
 2137SOL    HW1 9325   2.338   4.992   4.852
 2137SOL    HW2 9326   2.442   5.088   4.933
 2138SOL     OW 9327   3.417   5.235   4.427
 2138SOL    HW1 9328   3.360   5.219   4.508
 2138SOL    HW2 9329   3.358   5.245   4.347
 2139SOL     OW 9330   2.997   4.427   4.441
 2139SOL    HW1 9331   3.054   4.505   4.416
 2139SOL    HW2 9332   2.937   4.453   4.517
 2140SOL     OW 9333   2.630   4.868   4.747
 2140SOL    HW1 9334   2.552   4.885   4.807
 2140SOL    HW2 9335   2.664   4.955   4.711
 2141SOL     OW 9336   2.547   4.736   4.389
 2141SOL    HW1 9337   2.616   4.720   4.459
 2141SOL    HW2 9338   2.474   4.793   4.427
 2142SOL     OW 9339   3.465   4.171   4.461
 2142SOL    HW1 9340   3.391   4.217   4.411
 2142SOL    HW2 9341   3.516   4.239   4.514
 2143SOL     OW 9342   2.671   3.728   4.226
 2143SOL    HW1 9343   2.711   3.819   4.217
 2143SOL    HW2 9344   2.571   3.736   4.232
 2144SOL     OW 9345   3.328   5.141   4.677
 2144SOL    HW1 9346   3.269   5.147   4.757
 2144SOL    HW2 9347   3.313   5.053   4.631
 2145SOL     OW 9348   3.143   4.069   4.668
 2145SOL    HW1 9349   3.057   4.019   4.655
 2145SOL    HW2 9350   3.205   4.015   4.724
 2146SOL     OW 9351   2.853   4.134   4.966
 2146SOL    HW1 9352   2.776   4.168   5.020
 2146SOL    HW2 9353   2.819   4.083   4.887
 2147SOL     OW 9354   2.903   4.425   4.153
 2147SOL    HW1 9355   2.929   4.421   4.249
 2147SOL    HW2 9356   2.818   4.374   4.139
 2148SOL     OW 9357   1.938   4.535   4.513
 2148SOL    HW1 9358   2.037   4.523   4.522
 2148SOL    HW2 9359   1.914   4.630   4.534
 2149SOL     OW 9360   2.727   4.072   3.919
 2149SOL    HW1 9361   2.786   4.135   3.870
 2149SOL    HW2 9362   2.746   3.978   3.890
 2150SOL     OW 9363   3.224   4.868   4.269
 2150SOL    HW1 9364   3.307   4.839   4.221
 2150SOL    HW2 9365   3.175   4.935   4.213
 2151SOL     OW 9366   2.412   3.920   4.609
 2151SOL    HW1 9367   2.407   3.915   4.709
 2151SOL    HW2 9368   2.414   4.016   4.580
 2152SOL     OW 9369   3.320   4.459   4.452
 2152SOL    HW1 9370   3.315   4.394   4.527
 2152SOL    HW2 9371   3.400   4.518   4.465
 2153SOL     OW 9372   3.494   5.101   3.805
 2153SOL    HW1 9373   3.462   5.195   3.795
 2153SOL    HW2 9374   3.418   5.038   3.793
 2154SOL     OW 9375   3.262   3.831   4.150
 2154SOL    HW1 9376   3.238   3.794   4.060
 2154SOL    HW2 9377   3.361   3.847   4.154
 2155SOL     OW 9378   2.476   3.846   3.841
 2155SOL    HW1 9379   2.574   3.824   3.848
 2155SOL    HW2 9380   2.445   3.829   3.748
 2156SOL     OW 9381   2.665   5.126   4.648
 2156SOL    HW1 9382   2.755   5.140   4.606
 2156SOL    HW2 9383   2.594   5.128   4.577
 2157SOL     OW 9384   2.784   4.227   4.623
 2157SOL    HW1 9385   2.759   4.218   4.527
 2157SOL    HW2 9386   2.832   4.145   4.654
 2158SOL     OW 9387   2.401   3.788   4.236
 2158SOL    HW1 9388   2.320   3.789   4.294
 2158SOL    HW2 9389   2.404   3.871   4.181
 2159SOL     OW 9390   3.296   4.912   3.765
 2159SOL    HW1 9391   3.328   4.836   3.822
 2159SOL    HW2 9392   3.204   4.939   3.795
 2160SOL     OW 9393   2.159   3.759   3.895
 2160SOL    HW1 9394   2.208   3.843   3.874
 2160SOL    HW2 9395   2.221   3.694   3.940
 2161SOL     OW 9396   2.797   3.960   4.204
 2161SOL    HW1 9397   2.749   4.001   4.126
 2161SOL    HW2 9398   2.896   3.958   4.185
 2162SOL     OW 9399   3.089   5.294   4.517
 2162SOL    HW1 9400   3.110   5.368   4.452
 2162SOL    HW2 9401   3.157   5.294   4.590
 2163SOL     OW 9402   2.321   4.876   4.465
 2163SOL    HW1 9403   2.250   4.849   4.530
 2163SOL    HW2 9404   2.295   4.848   4.372
 2164SOL     OW 9405   2.894   4.273   3.740
 2164SOL    HW1 9406   2.853   4.355   3.701
 2164SOL    HW2 9407   2.958   4.299   3.813
 2165SOL     OW 9408   2.423   3.946   4.871
 2165SOL    HW1 9409   2.461   3.862   4.908
 2165SOL    HW2 9410   2.335   3.965   4.915
 2166SOL     OW 9411   2.728   4.178   4.366
 2166SOL    HW1 9412   2.696   4.250   4.304
 2166SOL    HW2 9413   2.752   4.097   4.313
 2167SOL     OW 9414   2.879   3.763   4.477
 2167SOL    HW1 9415   2.807   3.768   4.408
 2167SOL    HW2 9416   2.855   3.694   4.546
 2168SOL     OW 9417   3.291   4.897   4.591
 2168SOL    HW1 9418   3.236   4.813   4.584
 2168SOL    HW2 9419   3.317   4.926   4.499
 2169SOL     OW 9420   3.328   4.314   4.716
 2169SOL    HW1 9421   3.298   4.219   4.723
 2169SOL    HW2 9422   3.401   4.330   4.782
 2170SOL     OW 9423   3.252   4.299   3.802
 2170SOL    HW1 9424   3.198   4.278   3.883
 2170SOL    HW2 9425   3.343   4.258   3.811
 2171SOL     OW 9426   2.389   3.980   4.052
 2171SOL    HW1 9427   2.416   3.921   3.977
 2171SOL    HW2 9428   2.389   4.075   4.021
 2172SOL     OW 9429   2.272   4.537   4.975
 2172SOL    HW1 9430   2.358   4.549   5.025
 2172SOL    HW2 9431   2.230   4.450   5.002
 2173SOL     OW 9432   2.229   4.824   4.225
 2173SOL    HW1 9433   2.222   4.907   4.169
 2173SOL    HW2 9434   2.233   4.744   4.165
 2174SOL     OW 9435   2.428   4.261   4.589
 2174SOL    HW1 9436   2.440   4.327   4.515
 2174SOL    HW2 9437   2.474   4.295   4.672
 2175SOL     OW 9438   3.444   4.363   4.196
 2175SOL    HW1 9439   3.413   4.424   4.269
 2175SOL    HW2 9440   3.494   4.415   4.127
 2176SOL     OW 9441   2.435   4.594   4.753
 2176SOL    HW1 9442   2.479   4.683   4.744
 2176SOL    HW2 9443   2.372   4.594   4.830
 2177SOL     OW 9444   3.071   4.249   3.999
 2177SOL    HW1 9445   3.084   4.165   4.053
 2177SOL    HW2 9446   3.042   4.323   4.059
 2178SOL     OW 9447   2.169   3.937   4.955
 2178SOL    HW1 9448   2.146   3.974   5.045
 2178SOL    HW2 9449   2.139   3.842   4.949
 2179SOL     OW 9450   2.594   4.358   4.788
 2179SOL    HW1 9451   2.653   4.332   4.712
 2179SOL    HW2 9452   2.566   4.454   4.777
 2180SOL     OW 9453   2.169   3.787   4.342
 2180SOL    HW1 9454   2.158   3.881   4.375
 2180SOL    HW2 9455   2.164   3.724   4.419
 2181SOL     OW 9456   3.484   4.091   4.098
 2181SOL    HW1 9457   3.486   4.015   4.162
 2181SOL    HW2 9458   3.436   4.168   4.138
 2182SOL     OW 9459   2.885   4.490   4.690
 2182SOL    HW1 9460   2.900   4.511   4.786
 2182SOL    HW2 9461   2.855   4.395   4.681
 2183SOL     OW 9462   3.402   3.998   3.849
 2183SOL    HW1 9463   3.341   3.923   3.872
 2183SOL    HW2 9464   3.424   4.050   3.932
 2184SOL     OW 9465   3.165   4.562   3.766
 2184SOL    HW1 9466   3.199   4.469   3.781
 2184SOL    HW2 9467   3.183   4.589   3.671
 2185SOL     OW 9468   2.181   4.534   4.673
 2185SOL    HW1 9469   2.274   4.570   4.678
 2185SOL    HW2 9470   2.175   4.449   4.725
 2186SOL     OW 9471   2.201   4.233   4.730
 2186SOL    HW1 9472   2.149   4.150   4.713
 2186SOL    HW2 9473   2.278   4.238   4.666
 2187SOL     OW 9474   1.870   5.050   3.924
 2187SOL    HW1 9475   1.777   5.071   3.893
 2187SOL    HW2 9476   1.880   4.951   3.937
 2188SOL     OW 9477   2.864   4.520   4.962
 2188SOL    HW1 9478   2.905   4.488   5.048
 2188SOL    HW2 9479   2.768   4.493   4.959
 2189SOL     OW 9480   1.902   4.268   4.838
 2189SOL    HW1 9481   1.987   4.235   4.797
 2189SOL    HW2 9482   1.915   4.283   4.936
 2190SOL     OW 9483   2.677   4.296   4.049
 2190SOL    HW1 9484   2.684   4.207   4.003
 2190SOL    HW2 9485   2.583   4.330   4.041
 2191SOL     OW 9486   2.533   4.188   4.993
 2191SOL    HW1 9487   2.499   4.099   4.963
 2191SOL    HW2 9488   2.559   4.242   4.913
 2192SOL     OW 9489   3.209   4.783   4.958
 2192SOL    HW1 9490   3.233   4.720   4.884
 2192SOL    HW2 9491   3.119   4.823   4.940
 2193SOL     OW 9492   3.164   4.579   4.033
 2193SOL    HW1 9493   3.078   4.548   4.075
 2193SOL    HW2 9494   3.160   4.565   3.934
 2194SOL     OW 9495   3.588   3.859   4.247
 2194SOL    HW1 9496   3.661   3.842   4.180
 2194SOL    HW2 9497   3.557   3.772   4.285
 2195SOL     OW 9498   3.142   4.651   4.396
 2195SOL    HW1 9499   3.202   4.570   4.398
 2195SOL    HW2 9500   3.182   4.720   4.336
 2196SOL     OW 9501   2.692   4.997   5.146
 2196SOL    HW1 9502   2.687   5.030   5.241
 2196SOL    HW2 9503   2.606   5.016   5.100
 2197SOL     OW 9504   3.703   3.899   4.687
 2197SOL    HW1 9505   3.742   3.814   4.651
 2197SOL    HW2 9506   3.605   3.901   4.668
 2198SOL     OW 9507   2.125   4.050   4.444
 2198SOL    HW1 9508   2.046   4.101   4.410
 2198SOL    HW2 9509   2.116   4.035   4.542
 2199SOL     OW 9510   3.056   5.336   3.755
 2199SOL    HW1 9511   3.062   5.243   3.792
 2199SOL    HW2 9512   2.997   5.336   3.675
 2200SOL     OW 9513   2.684   4.726   5.096
 2200SOL    HW1 9514   2.724   4.725   5.004
 2200SOL    HW2 9515   2.694   4.818   5.136
 2201SOL     OW 9516   2.778   4.634   4.015
 2201SOL    HW1 9517   2.841   4.672   3.947
 2201SOL    HW2 9518   2.818   4.551   4.054
 2202SOL     OW 9519   2.901   4.822   4.420
 2202SOL    HW1 9520   2.831   4.775   4.474
 2202SOL    HW2 9521   2.960   4.754   4.377
 2203SOL     OW 9522   2.876   3.960   4.695
 2203SOL    HW1 9523   2.868   3.924   4.602
 2203SOL    HW2 9524   2.874   3.884   4.760
 2204SOL     OW 9525   1.934   3.890   4.042
 2204SOL    HW1 9526   1.917   3.973   3.988
 2204SOL    HW2 9527   2.024   3.853   4.020
 2205SOL     OW 9528   3.087   4.049   4.173
 2205SOL    HW1 9529   3.152   3.975   4.162
 2205SOL    HW2 9530   3.107   4.099   4.257
 2206SOL     OW 9531   2.456   4.469   4.376
 2206SOL    HW1 9532   2.506   4.554   4.357
 2206SOL    HW2 9533   2.368   4.471   4.328
 2207SOL     OW 9534   3.592   4.658   5.241
 2207SOL    HW1 9535   3.630   4.749   5.256
 2207SOL    HW2 9536   3.584   4.641   5.142
 2208SOL     OW 9537   2.721   4.680   4.585
 2208SOL    HW1 9538   2.775   4.611   4.633
 2208SOL    HW2 9539   2.689   4.749   4.651
 2209SOL     OW 9540   2.945   4.708   3.811
 2209SOL    HW1 9541   2.922   4.761   3.729
 2209SOL    HW2 9542   3.026   4.652   3.792
 2210SOL     OW 9543   1.941   4.964   4.377
 2210SOL    HW1 9544   1.940   4.917   4.465
 2210SOL    HW2 9545   2.023   4.936   4.326
 2211SOL     OW 9546   3.686   3.916   4.951
 2211SOL    HW1 9547   3.682   3.826   4.995
 2211SOL    HW2 9548   3.689   3.905   4.852
 2212SOL     OW 9549   2.290   4.148   4.244
 2212SOL    HW1 9550   2.320   4.076   4.182
 2212SOL    HW2 9551   2.251   4.108   4.327
 2213SOL     OW 9552   3.286   3.938   4.836
 2213SOL    HW1 9553   3.338   3.873   4.891
 2213SOL    HW2 9554   3.237   4.001   4.897
 2214SOL     OW 9555   2.863   3.758   4.878
 2214SOL    HW1 9556   2.800   3.686   4.847
 2214SOL    HW2 9557   2.956   3.722   4.878
 2215SOL     OW 9558   3.214   3.776   3.892
 2215SOL    HW1 9559   3.249   3.735   3.808
 2215SOL    HW2 9560   3.124   3.738   3.912
 2216SOL     OW 9561   3.162   4.177   4.415
 2216SOL    HW1 9562   3.103   4.257   4.419
 2216SOL    HW2 9563   3.177   4.142   4.508
 2217SOL     OW 9564   3.455   3.945   4.606
 2217SOL    HW1 9565   3.371   3.944   4.660
 2217SOL    HW2 9566   3.457   4.028   4.550
 2218SOL     OW 9567   1.901   4.801   4.024
 2218SOL    HW1 9568   2.000   4.790   4.015
 2218SOL    HW2 9569   1.861   4.715   4.056
 2219SOL     OW 9570   3.954   0.628   0.113
 2219SOL    HW1 9571   3.861   0.626   0.150
 2219SOL    HW2 9572   3.955   0.589   0.021
 2220SOL     OW 9573   3.949   0.275   0.996
 2220SOL    HW1 9574   3.984   0.258   1.088
 2220SOL    HW2 9575   3.861   0.230   0.984
 2221SOL     OW 9576   3.743   0.368   0.647
 2221SOL    HW1 9577   3.661   0.411   0.686
 2221SOL    HW2 9578   3.715   0.295   0.584
 2222SOL     OW 9579   4.574   0.798   1.823
 2222SOL    HW1 9580   4.570   0.874   1.888
 2222SOL    HW2 9581   4.596   0.834   1.732
 2223SOL     OW 9582   4.410   1.161   1.803
 2223SOL    HW1 9583   4.470   1.240   1.817
 2223SOL    HW2 9584   4.324   1.192   1.762
 2224SOL     OW 9585   3.955   1.713   0.483
 2224SOL    HW1 9586   3.989   1.790   0.537
 2224SOL    HW2 9587   3.999   1.713   0.393
 2225SOL     OW 9588   3.954   1.434   0.538
 2225SOL    HW1 9589   3.928   1.530   0.538
 2225SOL    HW2 9590   3.883   1.380   0.583
 2226SOL     OW 9591   3.964   1.091   0.886
 2226SOL    HW1 9592   3.978   1.007   0.938
 2226SOL    HW2 9593   3.909   1.155   0.941
 2227SOL     OW 9594   4.344   1.786   1.439
 2227SOL    HW1 9595   4.252   1.769   1.474
 2227SOL    HW2 9596   4.372   1.878   1.465
 2228SOL     OW 9597   3.846   0.643   0.563
 2228SOL    HW1 9598   3.801   0.555   0.580
 2228SOL    HW2 9599   3.845   0.697   0.647
 2229SOL     OW 9600   3.837   0.737   1.597
 2229SOL    HW1 9601   3.925   0.724   1.642
 2229SOL    HW2 9602   3.824   0.834   1.575
 2230SOL     OW 9603   5.017   1.228   1.423
 2230SOL    HW1 9604   5.054   1.155   1.365
 2230SOL    HW2 9605   5.069   1.233   1.508
 2231SOL     OW 9606   4.533   0.004   0.502
 2231SOL    HW1 9607   4.573   0.095   0.493
 2231SOL    HW2 9608   4.433   0.012   0.508
 2232SOL     OW 9609   3.921   0.976   1.264
 2232SOL    HW1 9610   4.010   0.931   1.250
 2232SOL    HW2 9611   3.848   0.911   1.245
 2233SOL     OW 9612   4.911   1.792   1.616
 2233SOL    HW1 9613   4.935   1.852   1.540
 2233SOL    HW2 9614   4.918   1.697   1.586
 2234SOL     OW 9615   4.322   0.729   0.270
 2234SOL    HW1 9616   4.346   0.798   0.202
 2234SOL    HW2 9617   4.244   0.762   0.324
 2235SOL     OW 9618   4.531   0.605   1.465
 2235SOL    HW1 9619   4.484   0.602   1.554
 2235SOL    HW2 9620   4.480   0.550   1.399
 2236SOL     OW 9621   4.697   0.890   1.572
 2236SOL    HW1 9622   4.743   0.806   1.543
 2236SOL    HW2 9623   4.641   0.924   1.497
 2237SOL     OW 9624   4.715   0.410   1.242
 2237SOL    HW1 9625   4.638   0.444   1.296
 2237SOL    HW2 9626   4.681   0.359   1.163
 2238SOL     OW 9627   4.765   0.701   0.429
 2238SOL    HW1 9628   4.791   0.697   0.525
 2238SOL    HW2 9629   4.680   0.650   0.415
 2239SOL     OW 9630   3.800   0.811   0.789
 2239SOL    HW1 9631   3.899   0.799   0.798
 2239SOL    HW2 9632   3.776   0.906   0.810
 2240SOL     OW 9633   4.589   0.348   0.195
 2240SOL    HW1 9634   4.648   0.411   0.146
 2240SOL    HW2 9635   4.608   0.254   0.166
 2241SOL     OW 9636   4.274   0.196   0.885
 2241SOL    HW1 9637   4.269   0.191   0.985
 2241SOL    HW2 9638   4.276   0.292   0.856
 2242SOL     OW 9639   4.732   1.456   0.477
 2242SOL    HW1 9640   4.686   1.528   0.425
 2242SOL    HW2 9641   4.728   1.476   0.575
 2243SOL     OW 9642   4.075   1.801   0.853
 2243SOL    HW1 9643   4.125   1.715   0.859
 2243SOL    HW2 9644   4.140   1.878   0.850
 2244SOL     OW 9645   4.951   1.550   1.506
 2244SOL    HW1 9646   4.957   1.473   1.570
 2244SOL    HW2 9647   4.899   1.524   1.426
 2245SOL     OW 9648   4.045   0.943   0.242
 2245SOL    HW1 9649   4.127   0.982   0.200
 2245SOL    HW2 9650   4.018   0.861   0.193
 2246SOL     OW 9651   4.835   1.776   0.237
 2246SOL    HW1 9652   4.775   1.714   0.287
 2246SOL    HW2 9653   4.866   1.732   0.152
 2247SOL     OW 9654   5.356   1.377   0.081
 2247SOL    HW1 9655   5.324   1.471   0.071
 2247SOL    HW2 9656   5.280   1.314   0.069
 2248SOL     OW 9657   4.188   1.743   0.323
 2248SOL    HW1 9658   4.221   1.782   0.409
 2248SOL    HW2 9659   4.264   1.736   0.258
 2249SOL     OW 9660   3.973   1.785   1.241
 2249SOL    HW1 9661   4.030   1.720   1.291
 2249SOL    HW2 9662   3.957   1.752   1.148
 2250SOL     OW 9663   4.664   1.698   0.904
 2250SOL    HW1 9664   4.744   1.641   0.925
 2250SOL    HW2 9665   4.615   1.658   0.827
 2251SOL     OW 9666   4.106   0.700   0.480
 2251SOL    HW1 9667   4.151   0.610   0.477
 2251SOL    HW2 9668   4.012   0.689   0.513
 2252SOL     OW 9669   4.505   0.264   1.749
 2252SOL    HW1 9670   4.572   0.203   1.792
 2252SOL    HW2 9671   4.432   0.283   1.814
 2253SOL     OW 9672   4.612   1.514   1.195
 2253SOL    HW1 9673   4.589   1.489   1.101
 2253SOL    HW2 9674   4.673   1.445   1.234
 2254SOL     OW 9675   4.646   0.503   0.899
 2254SOL    HW1 9676   4.621   0.494   0.803
 2254SOL    HW2 9677   4.694   0.421   0.930
 2255SOL     OW 9678   4.263   0.064   0.512
 2255SOL    HW1 9679   4.182   0.065   0.570
 2255SOL    HW2 9680   4.266   0.147   0.457
 2256SOL     OW 9681   4.021   0.035   0.171
 2256SOL    HW1 9682   4.070   0.119   0.150
 2256SOL    HW2 9683   4.083  -0.030   0.216
 2257SOL     OW 9684   4.659   0.236   0.480
 2257SOL    HW1 9685   4.611   0.277   0.402
 2257SOL    HW2 9686   4.758   0.234   0.461
 2258SOL     OW 9687   4.800   0.683   1.464
 2258SOL    HW1 9688   4.720   0.622   1.467
 2258SOL    HW2 9689   4.881   0.630   1.440
 2259SOL     OW 9690   4.951   1.570   0.793
 2259SOL    HW1 9691   4.972   1.644   0.728
 2259SOL    HW2 9692   5.019   1.570   0.866
 2260SOL     OW 9693   4.995   1.797   0.591
 2260SOL    HW1 9694   5.039   1.861   0.527
 2260SOL    HW2 9695   4.945   1.849   0.661
 2261SOL     OW 9696   4.756   0.549   0.016
 2261SOL    HW1 9697   4.715   0.631  -0.023
 2261SOL    HW2 9698   4.820   0.575   0.089
 2262SOL     OW 9699   3.802   0.556   1.386
 2262SOL    HW1 9700   3.894   0.555   1.345
 2262SOL    HW2 9701   3.796   0.630   1.453
 2263SOL     OW 9702   4.285   0.222   1.147
 2263SOL    HW1 9703   4.323   0.138   1.184
 2263SOL    HW2 9704   4.197   0.241   1.191
 2264SOL     OW 9705   4.590   0.454   0.642
 2264SOL    HW1 9706   4.558   0.526   0.580
 2264SOL    HW2 9707   4.614   0.373   0.589
 2265SOL     OW 9708   4.741   0.039   0.753
 2265SOL    HW1 9709   4.669   0.044   0.684
 2265SOL    HW2 9710   4.717  -0.030   0.822
 2266SOL     OW 9711   5.388   1.280   0.657
 2266SOL    HW1 9712   5.487   1.288   0.671
 2266SOL    HW2 9713   5.343   1.364   0.688
 2267SOL     OW 9714   4.251   0.256   0.328
 2267SOL    HW1 9715   4.278   0.197   0.253
 2267SOL    HW2 9716   4.251   0.351   0.297
 2268SOL     OW 9717   4.788   1.347   1.340
 2268SOL    HW1 9718   4.708   1.324   1.395
 2268SOL    HW2 9719   4.871   1.321   1.389
 2269SOL     OW 9720   4.835   1.195   1.100
 2269SOL    HW1 9721   4.795   1.239   1.181
 2269SOL    HW2 9722   4.794   1.232   1.017
 2270SOL     OW 9723   4.429   1.050   0.368
 2270SOL    HW1 9724   4.415   1.057   0.467
 2270SOL    HW2 9725   4.513   0.999   0.350
 2271SOL     OW 9726   4.134   0.813   1.251
 2271SOL    HW1 9727   4.220   0.825   1.301
 2271SOL    HW2 9728   4.092   0.726   1.278
 2272SOL     OW 9729   3.788   1.564   1.331
 2272SOL    HW1 9730   3.742   1.646   1.297
 2272SOL    HW2 9731   3.886   1.583   1.340
 2273SOL     OW 9732   4.290   0.537   0.865
 2273SOL    HW1 9733   4.302   0.603   0.791
 2273SOL    HW2 9734   4.336   0.571   0.948
 2274SOL     OW 9735   4.976   1.348   0.388
 2274SOL    HW1 9736   5.026   1.425   0.428
 2274SOL    HW2 9737   4.881   1.350   0.420
 2275SOL     OW 9738   4.078   1.510   1.329
 2275SOL    HW1 9739   4.057   1.466   1.242
 2275SOL    HW2 9740   4.175   1.536   1.332
 2276SOL     OW 9741   4.126   0.751   1.598
 2276SOL    HW1 9742   4.194   0.806   1.551
 2276SOL    HW2 9743   4.166   0.663   1.625
 2277SOL     OW 9744   4.737   0.105   1.770
 2277SOL    HW1 9745   4.743   0.190   1.718
 2277SOL    HW2 9746   4.769   0.029   1.713
 2278SOL     OW 9747   4.228   0.050   1.740
 2278SOL    HW1 9748   4.186  -0.007   1.670
 2278SOL    HW2 9749   4.162   0.119   1.772
 2279SOL     OW 9750   4.933   0.525   0.275
 2279SOL    HW1 9751   4.946   0.441   0.329
 2279SOL    HW2 9752   4.904   0.599   0.335
 2280SOL     OW 9753   3.761   1.310   1.282
 2280SOL    HW1 9754   3.814   1.261   1.350
 2280SOL    HW2 9755   3.783   1.408   1.287
 2281SOL     OW 9756   4.031   0.063   0.618
 2281SOL    HW1 9757   4.020   0.157   0.651
 2281SOL    HW2 9758   4.026   0.000   0.695
 2282SOL     OW 9759   5.346   0.367   0.374
 2282SOL    HW1 9760   5.348   0.291   0.438
 2282SOL    HW2 9761   5.298   0.444   0.414
 2283SOL     OW 9762   4.074   0.898   1.804
 2283SOL    HW1 9763   4.150   0.942   1.852
 2283SOL    HW2 9764   4.109   0.851   1.722
 2284SOL     OW 9765   5.027   0.838   0.042
 2284SOL    HW1 9766   5.061   0.745   0.057
 2284SOL    HW2 9767   5.045   0.865  -0.053
 2285SOL     OW 9768   4.063   0.509   1.006
 2285SOL    HW1 9769   4.011   0.426   0.989
 2285SOL    HW2 9770   4.140   0.514   0.942
 2286SOL     OW 9771   3.764   0.544   1.114
 2286SOL    HW1 9772   3.849   0.511   1.073
 2286SOL    HW2 9773   3.777   0.559   1.212
 2287SOL     OW 9774   4.539   0.572   0.325
 2287SOL    HW1 9775   4.546   0.483   0.279
 2287SOL    HW2 9776   4.445   0.606   0.317
 2288SOL     OW 9777   4.395   0.464   1.269
 2288SOL    HW1 9778   4.361   0.375   1.239
 2288SOL    HW2 9779   4.421   0.518   1.189
 2289SOL     OW 9780   4.654   1.678   1.465
 2289SOL    HW1 9781   4.630   1.660   1.370
 2289SOL    HW2 9782   4.684   1.772   1.475
 2290SOL     OW 9783   4.197   0.500   0.191
 2290SOL    HW1 9784   4.258   0.580   0.195
 2290SOL    HW2 9785   4.102   0.531   0.198
 2291SOL     OW 9786   3.883   1.137   1.466
 2291SOL    HW1 9787   3.905   1.076   1.542
 2291SOL    HW2 9788   3.893   1.088   1.380
 2292SOL     OW 9789   4.976   1.731   1.128
 2292SOL    HW1 9790   5.060   1.736   1.074
 2292SOL    HW2 9791   4.953   1.635   1.146
 2293SOL     OW 9792   3.807   1.258   1.022
 2293SOL    HW1 9793   3.802   1.257   1.122
 2293SOL    HW2 9794   3.724   1.217   0.984
 2294SOL     OW 9795   4.412   1.662   1.716
 2294SOL    HW1 9796   4.356   1.743   1.725
 2294SOL    HW2 9797   4.464   1.666   1.630
 2295SOL     OW 9798   5.112   1.573   0.477
 2295SOL    HW1 9799   5.179   1.585   0.403
 2295SOL    HW2 9800   5.072   1.662   0.500
 2296SOL     OW 9801   4.554   1.273   1.422
 2296SOL    HW1 9802   4.549   1.306   1.517
 2296SOL    HW2 9803   4.468   1.292   1.376
 2297SOL     OW 9804   4.396   1.616   0.154
 2297SOL    HW1 9805   4.405   1.626   0.055
 2297SOL    HW2 9806   4.356   1.527   0.175
 2298SOL     OW 9807   3.987   0.326   0.720
 2298SOL    HW1 9808   3.908   0.377   0.686
 2298SOL    HW2 9809   3.978   0.311   0.818
 2299SOL     OW 9810   4.546   1.002   1.372
 2299SOL    HW1 9811   4.586   1.001   1.280
 2299SOL    HW2 9812   4.556   1.094   1.412
 2300SOL     OW 9813   4.640   0.910   0.291
 2300SOL    HW1 9814   4.703   0.948   0.223
 2300SOL    HW2 9815   4.680   0.827   0.330
 2301SOL     OW 9816   4.096   1.288   1.490
 2301SOL    HW1 9817   4.083   1.381   1.456
 2301SOL    HW2 9818   4.012   1.236   1.477
 2302SOL     OW 9819   4.763   1.098   0.696
 2302SOL    HW1 9820   4.693   1.051   0.750
 2302SOL    HW2 9821   4.822   1.030   0.653
 2303SOL     OW 9822   4.738   0.236   0.971
 2303SOL    HW1 9823   4.730   0.200   0.878
 2303SOL    HW2 9824   4.736   0.160   1.036
 2304SOL     OW 9825   3.829   1.013   1.726
 2304SOL    HW1 9826   3.752   0.980   1.780
 2304SOL    HW2 9827   3.914   0.983   1.768
 2305SOL     OW 9828   4.396   0.203   1.489
 2305SOL    HW1 9829   4.486   0.187   1.449
 2305SOL    HW2 9830   4.404   0.208   1.588
 2306SOL     OW 9831   5.164   0.856   1.398
 2306SOL    HW1 9832   5.107   0.908   1.335
 2306SOL    HW2 9833   5.260   0.868   1.374
 2307SOL     OW 9834   3.796   0.166   0.318
 2307SOL    HW1 9835   3.779   0.249   0.264
 2307SOL    HW2 9836   3.886   0.129   0.296
 2308SOL     OW 9837   4.337   0.842   1.431
 2308SOL    HW1 9838   4.393   0.923   1.414
 2308SOL    HW2 9839   4.396   0.762   1.434
 2309SOL     OW 9840   4.440   0.565   1.708
 2309SOL    HW1 9841   4.459   0.630   1.782
 2309SOL    HW2 9842   4.500   0.485   1.717
 2310SOL     OW 9843   4.949   0.325   0.449
 2310SOL    HW1 9844   5.014   0.251   0.438
 2310SOL    HW2 9845   4.969   0.375   0.533
 2311SOL     OW 9846   4.318   0.745   0.652
 2311SOL    HW1 9847   4.368   0.830   0.633
 2311SOL    HW2 9848   4.230   0.747   0.604
 2312SOL     OW 9849   4.583   1.374   0.016
 2312SOL    HW1 9850   4.537   1.389   0.104
 2312SOL    HW2 9851   4.627   1.459  -0.014
 2313SOL     OW 9852   4.385   1.790   0.953
 2313SOL    HW1 9853   4.339   1.878   0.940
 2313SOL    HW2 9854   4.484   1.802   0.946
 2314SOL     OW 9855   4.807   0.984   0.087
 2314SOL    HW1 9856   4.784   1.037   0.005
 2314SOL    HW2 9857   4.888   0.928   0.068
 2315SOL     OW 9858   3.803   1.240   0.653
 2315SOL    HW1 9859   3.802   1.193   0.741
 2315SOL    HW2 9860   3.885   1.212   0.602
 2316SOL     OW 9861   4.396   1.391   1.624
 2316SOL    HW1 9862   4.318   1.341   1.662
 2316SOL    HW2 9863   4.393   1.486   1.655
 2317SOL     OW 9864   4.152   0.424   0.520
 2317SOL    HW1 9865   4.182   0.352   0.458
 2317SOL    HW2 9866   4.113   0.384   0.603
 2318SOL     OW 9867   4.041   0.547   1.280
 2318SOL    HW1 9868   4.079   0.488   1.352
 2318SOL    HW2 9869   4.081   0.521   1.192
 2319SOL     OW 9870   4.494   1.330   0.301
 2319SOL    HW1 9871   4.448   1.243   0.318
 2319SOL    HW2 9872   4.585   1.327   0.342
 2320SOL     OW 9873   4.342   1.567   1.284
 2320SOL    HW1 9874   4.337   1.649   1.341
 2320SOL    HW2 9875   4.431   1.564   1.239
 2321SOL     OW 9876   3.763   1.077   0.300
 2321SOL    HW1 9877   3.862   1.066   0.291
 2321SOL    HW2 9878   3.723   0.991   0.332
 2322SOL     OW 9879   4.599   1.646   0.337
 2322SOL    HW1 9880   4.522   1.611   0.283
 2322SOL    HW2 9881   4.567   1.717   0.399
 2323SOL     OW 9882   3.954   0.628   1.975
 2323SOL    HW1 9883   3.861   0.626   2.012
 2323SOL    HW2 9884   3.955   0.589   1.883
 2324SOL     OW 9885   3.949   0.275   2.858
 2324SOL    HW1 9886   3.984   0.258   2.950
 2324SOL    HW2 9887   3.861   0.230   2.846
 2325SOL     OW 9888   3.743   0.368   2.509
 2325SOL    HW1 9889   3.661   0.411   2.548
 2325SOL    HW2 9890   3.715   0.295   2.446
 2326SOL     OW 9891   4.293   1.275   3.027
 2326SOL    HW1 9892   4.200   1.268   2.990
 2326SOL    HW2 9893   4.304   1.364   3.071
 2327SOL     OW 9894   4.492   1.144   2.885
 2327SOL    HW1 9895   4.414   1.161   2.945
 2327SOL    HW2 9896   4.526   1.231   2.849
 2328SOL     OW 9897   4.574   0.798   3.685
 2328SOL    HW1 9898   4.570   0.874   3.750
 2328SOL    HW2 9899   4.596   0.834   3.594
 2329SOL     OW 9900   4.409   1.012   2.527
 2329SOL    HW1 9901   4.478   0.996   2.597
 2329SOL    HW2 9902   4.336   1.069   2.565
 2330SOL     OW 9903   4.410   1.161   3.665
 2330SOL    HW1 9904   4.470   1.240   3.679
 2330SOL    HW2 9905   4.324   1.192   3.624
 2331SOL     OW 9906   4.059   1.435   2.923
 2331SOL    HW1 9907   3.981   1.404   2.870
 2331SOL    HW2 9908   4.117   1.493   2.866
 2332SOL     OW 9909   4.162   0.392   3.361
 2332SOL    HW1 9910   4.244   0.336   3.370
 2332SOL    HW2 9911   4.081   0.334   3.365
 2333SOL     OW 9912   3.955   1.713   2.345
 2333SOL    HW1 9913   3.989   1.790   2.399
 2333SOL    HW2 9914   3.999   1.713   2.255
 2334SOL     OW 9915   4.851   1.341   3.552
 2334SOL    HW1 9916   4.898   1.341   3.640
 2334SOL    HW2 9917   4.803   1.254   3.541
 2335SOL     OW 9918   3.954   1.434   2.400
 2335SOL    HW1 9919   3.928   1.530   2.400
 2335SOL    HW2 9920   3.883   1.380   2.445
 2336SOL     OW 9921   3.964   1.091   2.748
 2336SOL    HW1 9922   3.978   1.007   2.800
 2336SOL    HW2 9923   3.909   1.155   2.803
 2337SOL     OW 9924   4.344   1.786   3.301
 2337SOL    HW1 9925   4.252   1.769   3.336
 2337SOL    HW2 9926   4.372   1.878   3.327
 2338SOL     OW 9927   4.330   0.964   1.985
 2338SOL    HW1 9928   4.337   1.048   1.931
 2338SOL    HW2 9929   4.376   0.977   2.073
 2339SOL     OW 9930   3.846   0.643   2.425
 2339SOL    HW1 9931   3.801   0.555   2.442
 2339SOL    HW2 9932   3.845   0.697   2.509
 2340SOL     OW 9933   3.837   0.737   3.459
 2340SOL    HW1 9934   3.925   0.724   3.504
 2340SOL    HW2 9935   3.824   0.834   3.437
 2341SOL     OW 9936   4.337   1.365   2.588
 2341SOL    HW1 9937   4.288   1.278   2.597
 2341SOL    HW2 9938   4.314   1.408   2.501
 2342SOL     OW 9939   5.017   1.228   3.285
 2342SOL    HW1 9940   5.054   1.155   3.227
 2342SOL    HW2 9941   5.069   1.233   3.370
 2343SOL     OW 9942   4.533   0.004   2.364
 2343SOL    HW1 9943   4.573   0.095   2.355
 2343SOL    HW2 9944   4.433   0.012   2.370
 2344SOL     OW 9945   3.921   0.976   3.126
 2344SOL    HW1 9946   4.010   0.931   3.112
 2344SOL    HW2 9947   3.848   0.911   3.107
 2345SOL     OW 9948   4.911   1.792   3.478
 2345SOL    HW1 9949   4.935   1.852   3.402
 2345SOL    HW2 9950   4.918   1.697   3.448
 2346SOL     OW 9951   4.041   0.251   3.663
 2346SOL    HW1 9952   4.112   0.322   3.669
 2346SOL    HW2 9953   3.953   0.290   3.691
 2347SOL     OW 9954   4.322   0.729   2.132
 2347SOL    HW1 9955   4.346   0.798   2.064
 2347SOL    HW2 9956   4.244   0.762   2.186
 2348SOL     OW 9957   5.005   0.345   2.806
 2348SOL    HW1 9958   4.919   0.295   2.793
 2348SOL    HW2 9959   5.067   0.291   2.862
 2349SOL     OW 9960   4.697   0.890   3.434
 2349SOL    HW1 9961   4.743   0.806   3.405
 2349SOL    HW2 9962   4.641   0.924   3.359
 2350SOL     OW 9963   4.589   0.348   2.057
 2350SOL    HW1 9964   4.648   0.411   2.008
 2350SOL    HW2 9965   4.608   0.254   2.028
 2351SOL     OW 9966   4.274   0.196   2.747
 2351SOL    HW1 9967   4.269   0.191   2.847
 2351SOL    HW2 9968   4.276   0.292   2.718
 2352SOL     OW 9969   4.732   1.456   2.339
 2352SOL    HW1 9970   4.686   1.528   2.287
 2352SOL    HW2 9971   4.728   1.476   2.437
 2353SOL     OW 9972   4.075   1.801   2.715
 2353SOL    HW1 9973   4.125   1.715   2.721
 2353SOL    HW2 9974   4.140   1.878   2.712
 2354SOL     OW 9975   4.951   1.550   3.368
 2354SOL    HW1 9976   4.957   1.473   3.432
 2354SOL    HW2 9977   4.899   1.524   3.288
 2355SOL     OW 9978   4.045   0.943   2.104
 2355SOL    HW1 9979   4.127   0.982   2.062
 2355SOL    HW2 9980   4.018   0.861   2.055
 2356SOL     OW 9981   4.185   1.266   3.589
 2356SOL    HW1 9982   4.135   1.267   3.503
 2356SOL    HW2 9983   4.122   1.248   3.665
 2357SOL     OW 9984   4.835   1.776   2.099
 2357SOL    HW1 9985   4.775   1.714   2.149
 2357SOL    HW2 9986   4.866   1.732   2.014
 2358SOL     OW 9987   3.926   0.285   3.360
 2358SOL    HW1 9988   3.846   0.345   3.347
 2358SOL    HW2 9989   3.916   0.236   3.446
 2359SOL     OW 9990   3.973   1.785   3.103
 2359SOL    HW1 9991   4.030   1.720   3.153
 2359SOL    HW2 9992   3.957   1.752   3.010
 2360SOL     OW 9993   4.106   0.700   2.342
 2360SOL    HW1 9994   4.151   0.610   2.339
 2360SOL    HW2 9995   4.012   0.689   2.375
 2361SOL     OW 9996   4.338   0.122   1.979
 2361SOL    HW1 9997   4.436   0.100   1.986
 2361SOL    HW2 9998   4.307   0.105   1.886
 2362SOL     OW 9999   4.612   1.514   3.057
 2362SOL    HW110000   4.589   1.489   2.963
 2362SOL    HW210001   4.673   1.445   3.096
 2363SOL     OW10002   4.263   0.064   2.374
 2363SOL    HW110003   4.182   0.065   2.432
 2363SOL    HW210004   4.266   0.147   2.319
 2364SOL     OW10005   4.021   0.035   2.033
 2364SOL    HW110006   4.070   0.119   2.012
 2364SOL    HW210007   4.083  -0.030   2.078
 2365SOL     OW10008   4.800   0.683   3.326
 2365SOL    HW110009   4.720   0.622   3.329
 2365SOL    HW210010   4.881   0.630   3.302
 2366SOL     OW10011   4.183   1.152   2.603
 2366SOL    HW110012   4.112   1.125   2.668
 2366SOL    HW210013   4.157   1.124   2.510
 2367SOL     OW10014   4.995   1.797   2.453
 2367SOL    HW110015   5.039   1.861   2.389
 2367SOL    HW210016   4.945   1.849   2.523
 2368SOL     OW10017   4.756   0.549   1.878
 2368SOL    HW110018   4.715   0.631   1.839
 2368SOL    HW210019   4.820   0.575   1.951
 2369SOL     OW10020   4.285   0.222   3.009
 2369SOL    HW110021   4.323   0.138   3.046
 2369SOL    HW210022   4.197   0.241   3.053
 2370SOL     OW10023   4.741   0.039   2.615
 2370SOL    HW110024   4.669   0.044   2.546
 2370SOL    HW210025   4.717  -0.030   2.684
 2371SOL     OW10026   4.251   0.256   2.190
 2371SOL    HW110027   4.278   0.197   2.115
 2371SOL    HW210028   4.251   0.351   2.159
 2372SOL     OW10029   4.788   1.347   3.202
 2372SOL    HW110030   4.708   1.324   3.257
 2372SOL    HW210031   4.871   1.321   3.251
 2373SOL     OW10032   4.835   1.195   2.962
 2373SOL    HW110033   4.795   1.239   3.043
 2373SOL    HW210034   4.794   1.232   2.879
 2374SOL     OW10035   4.639   0.089   3.264
 2374SOL    HW110036   4.664   0.069   3.169
 2374SOL    HW210037   4.711   0.145   3.306
 2375SOL     OW10038   4.704   1.116   3.581
 2375SOL    HW110039   4.605   1.122   3.591
 2375SOL    HW210040   4.727   1.036   3.525
 2376SOL     OW10041   4.429   1.050   2.230
 2376SOL    HW110042   4.415   1.057   2.329
 2376SOL    HW210043   4.513   0.999   2.212
 2377SOL     OW10044   3.788   1.564   3.193
 2377SOL    HW110045   3.742   1.646   3.159
 2377SOL    HW210046   3.886   1.583   3.202
 2378SOL     OW10047   4.091   1.100   2.363
 2378SOL    HW110048   4.084   1.183   2.307
 2378SOL    HW210049   4.095   1.020   2.303
 2379SOL     OW10050   4.078   1.510   3.191
 2379SOL    HW110051   4.057   1.466   3.104
 2379SOL    HW210052   4.175   1.536   3.194
 2380SOL     OW10053   4.297   0.870   2.891
 2380SOL    HW110054   4.341   0.959   2.882
 2380SOL    HW210055   4.234   0.870   2.968
 2381SOL     OW10056   5.084   0.862   2.907
 2381SOL    HW110057   5.009   0.862   2.841
 2381SOL    HW210058   5.121   0.770   2.916
 2382SOL     OW10059   4.933   0.525   2.137
 2382SOL    HW110060   4.946   0.441   2.191
 2382SOL    HW210061   4.904   0.599   2.197
 2383SOL     OW10062   4.031   0.213   3.093
 2383SOL    HW110063   4.008   0.250   3.183
 2383SOL    HW210064   4.001   0.118   3.087
 2384SOL     OW10065   3.761   1.310   3.144
 2384SOL    HW110066   3.814   1.261   3.212
 2384SOL    HW210067   3.783   1.408   3.149
 2385SOL     OW10068   4.031   0.063   2.480
 2385SOL    HW110069   4.020   0.157   2.513
 2385SOL    HW210070   4.026   0.000   2.557
 2386SOL     OW10071   4.704   1.573   3.562
 2386SOL    HW110072   4.684   1.617   3.474
 2386SOL    HW210073   4.743   1.482   3.546
 2387SOL     OW10074   4.074   0.898   3.666
 2387SOL    HW110075   4.150   0.942   3.714
 2387SOL    HW210076   4.109   0.851   3.584
 2388SOL     OW10077   5.027   0.838   1.904
 2388SOL    HW110078   5.061   0.745   1.919
 2388SOL    HW210079   5.045   0.865   1.809
 2389SOL     OW10080   4.792   1.333   2.711
 2389SOL    HW110081   4.799   1.249   2.656
 2389SOL    HW210082   4.854   1.402   2.675
 2390SOL     OW10083   4.043   0.810   2.811
 2390SOL    HW110084   4.136   0.846   2.816
 2390SOL    HW210085   4.037   0.725   2.863
 2391SOL     OW10086   4.862   0.380   3.540
 2391SOL    HW110087   4.817   0.443   3.604
 2391SOL    HW210088   4.955   0.411   3.523
 2392SOL     OW10089   4.228   1.568   2.772
 2392SOL    HW110090   4.294   1.642   2.781
 2392SOL    HW210091   4.272   1.489   2.730
 2393SOL     OW10092   3.764   0.544   2.976
 2393SOL    HW110093   3.849   0.511   2.935
 2393SOL    HW210094   3.777   0.559   3.074
 2394SOL     OW10095   4.539   0.572   2.187
 2394SOL    HW110096   4.546   0.483   2.141
 2394SOL    HW210097   4.445   0.606   2.179
 2395SOL     OW10098   4.654   1.678   3.327
 2395SOL    HW110099   4.630   1.660   3.232
 2395SOL    HW210100   4.684   1.772   3.337
 2396SOL     OW10101   4.197   0.500   2.053
 2396SOL    HW110102   4.258   0.580   2.057
 2396SOL    HW210103   4.102   0.531   2.060
 2397SOL     OW10104   5.071   1.059   3.096
 2397SOL    HW110105   5.095   0.996   3.022
 2397SOL    HW210106   4.981   1.099   3.078
 2398SOL     OW10107   4.412   1.662   3.578
 2398SOL    HW110108   4.356   1.743   3.587
 2398SOL    HW210109   4.464   1.666   3.492
 2399SOL     OW10110   4.554   1.273   3.284
 2399SOL    HW110111   4.549   1.306   3.379
 2399SOL    HW210112   4.468   1.292   3.238
 2400SOL     OW10113   3.987   0.326   2.582
 2400SOL    HW110114   3.908   0.377   2.548
 2400SOL    HW210115   3.978   0.311   2.680
 2401SOL     OW10116   4.546   1.002   3.234
 2401SOL    HW110117   4.586   1.001   3.142
 2401SOL    HW210118   4.556   1.094   3.274
 2402SOL     OW10119   4.738   0.236   2.833
 2402SOL    HW110120   4.730   0.200   2.740
 2402SOL    HW210121   4.736   0.160   2.898
 2403SOL     OW10122   4.314   1.487   2.353
 2403SOL    HW110123   4.356   1.429   2.283
 2403SOL    HW210124   4.270   1.566   2.309
 2404SOL     OW10125   3.979   1.348   2.152
 2404SOL    HW110126   3.883   1.349   2.125
 2404SOL    HW210127   3.991   1.401   2.236
 2405SOL     OW10128   3.829   1.013   3.588
 2405SOL    HW110129   3.752   0.980   3.642
 2405SOL    HW210130   3.914   0.983   3.630
 2406SOL     OW10131   3.796   0.166   2.180
 2406SOL    HW110132   3.779   0.249   2.126
 2406SOL    HW210133   3.886   0.129   2.158
 2407SOL     OW10134   4.337   0.842   3.293
 2407SOL    HW110135   4.393   0.923   3.276
 2407SOL    HW210136   4.396   0.762   3.296
 2408SOL     OW10137   4.318   0.745   2.514
 2408SOL    HW110138   4.368   0.830   2.495
 2408SOL    HW210139   4.230   0.747   2.466
 2409SOL     OW10140   4.583   1.374   1.878
 2409SOL    HW110141   4.537   1.389   1.966
 2409SOL    HW210142   4.627   1.459   1.848
 2410SOL     OW10143   4.385   1.790   2.815
 2410SOL    HW110144   4.339   1.878   2.802
 2410SOL    HW210145   4.484   1.802   2.808
 2411SOL     OW10146   4.583   0.956   2.723
 2411SOL    HW110147   4.637   0.887   2.771
 2411SOL    HW210148   4.551   1.025   2.789
 2412SOL     OW10149   4.807   0.984   1.949
 2412SOL    HW110150   4.784   1.037   1.867
 2412SOL    HW210151   4.888   0.928   1.930
 2413SOL     OW10152   3.803   1.240   2.515
 2413SOL    HW110153   3.802   1.193   2.603
 2413SOL    HW210154   3.885   1.212   2.464
 2414SOL     OW10155   4.396   1.391   3.486
 2414SOL    HW110156   4.318   1.341   3.524
 2414SOL    HW210157   4.393   1.486   3.517
 2415SOL     OW10158   4.725   0.034   3.016
 2415SOL    HW110159   4.662  -0.038   2.985
 2415SOL    HW210160   4.818  -0.002   3.016
 2416SOL     OW10161   4.494   1.330   2.163
 2416SOL    HW110162   4.448   1.243   2.180
 2416SOL    HW210163   4.585   1.327   2.204
 2417SOL     OW10164   4.342   1.567   3.146
 2417SOL    HW110165   4.337   1.649   3.203
 2417SOL    HW210166   4.431   1.564   3.101
 2418SOL     OW10167   3.763   1.077   2.162
 2418SOL    HW110168   3.862   1.066   2.153
 2418SOL    HW210169   3.723   0.991   2.194
 2419SOL     OW10170   4.599   1.646   2.199
 2419SOL    HW110171   4.522   1.611   2.145
 2419SOL    HW210172   4.567   1.717   2.261
 2420SOL     OW10173   3.954   0.628   3.837
 2420SOL    HW110174   3.861   0.626   3.874
 2420SOL    HW210175   3.955   0.589   3.745
 2421SOL     OW10176   3.949   0.275   4.720
 2421SOL    HW110177   3.984   0.258   4.812
 2421SOL    HW210178   3.861   0.230   4.708
 2422SOL     OW10179   3.743   0.368   4.371
 2422SOL    HW110180   3.661   0.411   4.410
 2422SOL    HW210181   3.715   0.295   4.308
 2423SOL     OW10182   4.859   0.703   4.441
 2423SOL    HW110183   4.916   0.781   4.416
 2423SOL    HW210184   4.799   0.729   4.517
 2424SOL     OW10185   4.409   1.012   4.389
 2424SOL    HW110186   4.478   0.996   4.459
 2424SOL    HW210187   4.336   1.069   4.427
 2425SOL     OW10188   3.954   1.434   4.262
 2425SOL    HW110189   3.928   1.530   4.262
 2425SOL    HW210190   3.883   1.380   4.307
 2426SOL     OW10191   4.344   1.786   5.163
 2426SOL    HW110192   4.252   1.769   5.198
 2426SOL    HW210193   4.372   1.878   5.189
 2427SOL     OW10194   4.330   0.964   3.847
 2427SOL    HW110195   4.337   1.048   3.793
 2427SOL    HW210196   4.376   0.977   3.935
 2428SOL     OW10197   3.846   0.643   4.287
 2428SOL    HW110198   3.801   0.555   4.304
 2428SOL    HW210199   3.845   0.697   4.371
 2429SOL     OW10200   3.751   1.596   3.841
 2429SOL    HW110201   3.732   1.500   3.862
 2429SOL    HW210202   3.718   1.654   3.916
 2430SOL     OW10203   4.337   1.365   4.450
 2430SOL    HW110204   4.288   1.278   4.459
 2430SOL    HW210205   4.314   1.408   4.363
 2431SOL     OW10206   4.533   0.004   4.226
 2431SOL    HW110207   4.573   0.095   4.217
 2431SOL    HW210208   4.433   0.012   4.232
 2432SOL     OW10209   5.005   0.345   4.668
 2432SOL    HW110210   4.919   0.295   4.655
 2432SOL    HW210211   5.067   0.291   4.724
 2433SOL     OW10212   3.800   0.811   4.513
 2433SOL    HW110213   3.899   0.799   4.522
 2433SOL    HW210214   3.776   0.906   4.534
 2434SOL     OW10215   4.274   0.196   4.609
 2434SOL    HW110216   4.269   0.191   4.709
 2434SOL    HW210217   4.276   0.292   4.580
 2435SOL     OW10218   4.732   1.456   4.201
 2435SOL    HW110219   4.686   1.528   4.149
 2435SOL    HW210220   4.728   1.476   4.299
 2436SOL     OW10221   4.075   1.801   4.577
 2436SOL    HW110222   4.125   1.715   4.583
 2436SOL    HW210223   4.140   1.878   4.574
 2437SOL     OW10224   4.045   0.943   3.966
 2437SOL    HW110225   4.127   0.982   3.924
 2437SOL    HW210226   4.018   0.861   3.917
 2438SOL     OW10227   4.835   1.776   3.961
 2438SOL    HW110228   4.775   1.714   4.011
 2438SOL    HW210229   4.866   1.732   3.876
 2439SOL     OW10230   4.188   1.743   4.047
 2439SOL    HW110231   4.221   1.782   4.133
 2439SOL    HW210232   4.264   1.736   3.982
 2440SOL     OW10233   4.106   0.700   4.204
 2440SOL    HW110234   4.151   0.610   4.201
 2440SOL    HW210235   4.012   0.689   4.237
 2441SOL     OW10236   4.338   0.122   3.841
 2441SOL    HW110237   4.436   0.100   3.848
 2441SOL    HW210238   4.307   0.105   3.748
 2442SOL     OW10239   4.527   1.402   4.648
 2442SOL    HW110240   4.617   1.416   4.606
 2442SOL    HW210241   4.456   1.404   4.577
 2443SOL     OW10242   4.263   0.064   4.236
 2443SOL    HW110243   4.182   0.065   4.294
 2443SOL    HW210244   4.266   0.147   4.181
 2444SOL     OW10245   4.021   0.035   3.895
 2444SOL    HW110246   4.070   0.119   3.874
 2444SOL    HW210247   4.083  -0.030   3.940
 2445SOL     OW10248   4.659   0.236   4.204
 2445SOL    HW110249   4.611   0.277   4.126
 2445SOL    HW210250   4.758   0.234   4.185
 2446SOL     OW10251   4.590   0.454   4.366
 2446SOL    HW110252   4.558   0.526   4.304
 2446SOL    HW210253   4.614   0.373   4.313
 2447SOL     OW10254   4.741   0.039   4.477
 2447SOL    HW110255   4.669   0.044   4.408
 2447SOL    HW210256   4.717  -0.030   4.546
 2448SOL     OW10257   5.388   1.280   4.381
 2448SOL    HW110258   5.487   1.288   4.395
 2448SOL    HW210259   5.343   1.364   4.412
 2449SOL     OW10260   5.316   1.629   5.349
 2449SOL    HW110261   5.343   1.663   5.259
 2449SOL    HW210262   5.395   1.591   5.395
 2450SOL     OW10263   4.835   1.195   4.824
 2450SOL    HW110264   4.795   1.239   4.905
 2450SOL    HW210265   4.794   1.232   4.741
 2451SOL     OW10266   4.429   1.050   4.092
 2451SOL    HW110267   4.415   1.057   4.191
 2451SOL    HW210268   4.513   0.999   4.074
 2452SOL     OW10269   4.091   1.100   4.225
 2452SOL    HW110270   4.084   1.183   4.169
 2452SOL    HW210271   4.095   1.020   4.165
 2453SOL     OW10272   4.290   0.537   4.589
 2453SOL    HW110273   4.302   0.603   4.515
 2453SOL    HW210274   4.336   0.571   4.672
 2454SOL     OW10275   4.976   1.348   4.112
 2454SOL    HW110276   5.026   1.425   4.152
 2454SOL    HW210277   4.881   1.350   4.144
 2455SOL     OW10278   5.084   0.862   4.769
 2455SOL    HW110279   5.009   0.862   4.703
 2455SOL    HW210280   5.121   0.770   4.778
 2456SOL     OW10281   4.031   0.213   4.955
 2456SOL    HW110282   4.008   0.250   5.045
 2456SOL    HW210283   4.001   0.118   4.949
 2457SOL     OW10284   4.456   0.634   4.788
 2457SOL    HW110285   4.515   0.608   4.712
 2457SOL    HW210286   4.428   0.730   4.777
 2458SOL     OW10287   4.031   0.063   4.342
 2458SOL    HW110288   4.020   0.157   4.375
 2458SOL    HW210289   4.026   0.000   4.419
 2459SOL     OW10290   5.346   0.367   4.098
 2459SOL    HW110291   5.348   0.291   4.162
 2459SOL    HW210292   5.298   0.444   4.138
 2460SOL     OW10293   4.747   0.766   4.690
 2460SOL    HW110294   4.762   0.787   4.786
 2460SOL    HW210295   4.717   0.671   4.681
 2461SOL     OW10296   5.027   0.838   3.766
 2461SOL    HW110297   5.061   0.745   3.781
 2461SOL    HW210298   5.045   0.865   3.671
 2462SOL     OW10299   4.792   1.333   4.573
 2462SOL    HW110300   4.799   1.249   4.518
 2462SOL    HW210301   4.854   1.402   4.537
 2463SOL     OW10302   4.043   0.810   4.673
 2463SOL    HW110303   4.136   0.846   4.678
 2463SOL    HW210304   4.037   0.725   4.725
 2464SOL     OW10305   4.063   0.509   4.730
 2464SOL    HW110306   4.011   0.426   4.713
 2464SOL    HW210307   4.140   0.514   4.666
 2465SOL     OW10308   3.812   1.801   4.651
 2465SOL    HW110309   3.770   1.715   4.624
 2465SOL    HW210310   3.906   1.804   4.617
 2466SOL     OW10311   4.228   1.568   4.634
 2466SOL    HW110312   4.294   1.642   4.643
 2466SOL    HW210313   4.272   1.489   4.592
 2467SOL     OW10314   4.726   0.796   4.962
 2467SOL    HW110315   4.767   0.764   5.048
 2467SOL    HW210316   4.630   0.769   4.959
 2468SOL     OW10317   3.764   0.544   4.838
 2468SOL    HW110318   3.849   0.511   4.797
 2468SOL    HW210319   3.777   0.559   4.936
 2469SOL     OW10320   4.395   0.464   4.993
 2469SOL    HW110321   4.361   0.375   4.963
 2469SOL    HW210322   4.421   0.518   4.913
 2470SOL     OW10323   4.654   1.678   5.189
 2470SOL    HW110324   4.630   1.660   5.094
 2470SOL    HW210325   4.684   1.772   5.199
 2471SOL     OW10326   5.071   1.059   4.958
 2471SOL    HW110327   5.095   0.996   4.884
 2471SOL    HW210328   4.981   1.099   4.940
 2472SOL     OW10329   5.112   1.573   4.201
 2472SOL    HW110330   5.179   1.585   4.127
 2472SOL    HW210331   5.072   1.662   4.224
 2473SOL     OW10332   5.004   0.927   4.396
 2473SOL    HW110333   5.064   0.846   4.398
 2473SOL    HW210334   5.044   0.996   4.336
 2474SOL     OW10335   3.987   0.326   4.444
 2474SOL    HW110336   3.908   0.377   4.410
 2474SOL    HW210337   3.978   0.311   4.542
 2475SOL     OW10338   4.918   1.612   3.755
 2475SOL    HW110339   4.924   1.519   3.792
 2475SOL    HW210340   4.859   1.612   3.675
 2476SOL     OW10341   4.546   1.002   5.096
 2476SOL    HW110342   4.586   1.001   5.004
 2476SOL    HW210343   4.556   1.094   5.136
 2477SOL     OW10344   4.763   1.098   4.420
 2477SOL    HW110345   4.693   1.051   4.474
 2477SOL    HW210346   4.822   1.030   4.377
 2478SOL     OW10347   4.314   1.487   4.215
 2478SOL    HW110348   4.356   1.429   4.145
 2478SOL    HW210349   4.270   1.566   4.171
 2479SOL     OW10350   4.583   1.374   3.740
 2479SOL    HW110351   4.537   1.389   3.828
 2479SOL    HW210352   4.627   1.459   3.710
 2480SOL     OW10353   4.583   0.956   4.585
 2480SOL    HW110354   4.637   0.887   4.633
 2480SOL    HW210355   4.551   1.025   4.651
 2481SOL     OW10356   4.807   0.984   3.811
 2481SOL    HW110357   4.784   1.037   3.729
 2481SOL    HW210358   4.888   0.928   3.792
 2482SOL     OW10359   3.803   1.240   4.377
 2482SOL    HW110360   3.802   1.193   4.465
 2482SOL    HW210361   3.885   1.212   4.326
 2483SOL     OW10362   4.152   0.424   4.244
 2483SOL    HW110363   4.182   0.352   4.182
 2483SOL    HW210364   4.113   0.384   4.327
 2484SOL     OW10365   4.536   1.586   4.411
 2484SOL    HW110366   4.568   1.596   4.317
 2484SOL    HW210367   4.457   1.524   4.413
 2485SOL     OW10368   4.494   1.330   4.025
 2485SOL    HW110369   4.448   1.243   4.042
 2485SOL    HW210370   4.585   1.327   4.066
 2486SOL     OW10371   3.763   1.077   4.024
 2486SOL    HW110372   3.862   1.066   4.015
 2486SOL    HW210373   3.723   0.991   4.056
 2487SOL     OW10374   4.599   1.646   4.061
 2487SOL    HW110375   4.522   1.611   4.007
 2487SOL    HW210376   4.567   1.717   4.123
 2488SOL     OW10377   3.949   2.137   0.996
 2488SOL    HW110378   3.984   2.120   1.088
 2488SOL    HW210379   3.861   2.092   0.984
 2489SOL     OW10380   3.743   2.230   0.647
 2489SOL    HW110381   3.661   2.273   0.686
 2489SOL    HW210382   3.715   2.157   0.584
 2490SOL     OW10383   4.293   3.137   1.165
 2490SOL    HW110384   4.200   3.130   1.128
 2490SOL    HW210385   4.304   3.226   1.209
 2491SOL     OW10386   4.859   2.565   0.717
 2491SOL    HW110387   4.916   2.643   0.692
 2491SOL    HW210388   4.799   2.591   0.793
 2492SOL     OW10389   4.492   3.006   1.023
 2492SOL    HW110390   4.414   3.023   1.083
 2492SOL    HW210391   4.526   3.093   0.987
 2493SOL     OW10392   4.574   2.660   1.823
 2493SOL    HW110393   4.570   2.736   1.888
 2493SOL    HW210394   4.596   2.696   1.732
 2494SOL     OW10395   4.409   2.874   0.665
 2494SOL    HW110396   4.478   2.858   0.735
 2494SOL    HW210397   4.336   2.931   0.703
 2495SOL     OW10398   4.410   3.023   1.803
 2495SOL    HW110399   4.470   3.102   1.817
 2495SOL    HW210400   4.324   3.054   1.762
 2496SOL     OW10401   4.059   3.297   1.061
 2496SOL    HW110402   3.981   3.266   1.008
 2496SOL    HW210403   4.117   3.355   1.004
 2497SOL     OW10404   4.162   2.254   1.499
 2497SOL    HW110405   4.244   2.198   1.508
 2497SOL    HW210406   4.081   2.196   1.503
 2498SOL     OW10407   3.955   3.575   0.483
 2498SOL    HW110408   3.989   3.652   0.537
 2498SOL    HW210409   3.999   3.575   0.393
 2499SOL     OW10410   4.851   3.203   1.690
 2499SOL    HW110411   4.898   3.203   1.778
 2499SOL    HW210412   4.803   3.116   1.679
 2500SOL     OW10413   3.954   3.296   0.538
 2500SOL    HW110414   3.928   3.392   0.538
 2500SOL    HW210415   3.883   3.242   0.583
 2501SOL     OW10416   3.964   2.953   0.886
 2501SOL    HW110417   3.978   2.869   0.938
 2501SOL    HW210418   3.909   3.017   0.941
 2502SOL     OW10419   4.330   2.826   0.123
 2502SOL    HW110420   4.337   2.910   0.069
 2502SOL    HW210421   4.376   2.839   0.211
 2503SOL     OW10422   3.846   2.505   0.563
 2503SOL    HW110423   3.801   2.417   0.580
 2503SOL    HW210424   3.845   2.559   0.647
 2504SOL     OW10425   3.751   3.458   0.117
 2504SOL    HW110426   3.732   3.362   0.138
 2504SOL    HW210427   3.718   3.516   0.192
 2505SOL     OW10428   4.337   3.227   0.726
 2505SOL    HW110429   4.288   3.140   0.735
 2505SOL    HW210430   4.314   3.270   0.639
 2506SOL     OW10431   5.017   3.090   1.423
 2506SOL    HW110432   5.054   3.017   1.365
 2506SOL    HW210433   5.069   3.095   1.508
 2507SOL     OW10434   4.533   1.866   0.502
 2507SOL    HW110435   4.573   1.957   0.493
 2507SOL    HW210436   4.433   1.874   0.508
 2508SOL     OW10437   4.911   3.654   1.616
 2508SOL    HW110438   4.935   3.714   1.540
 2508SOL    HW210439   4.918   3.559   1.586
 2509SOL     OW10440   4.322   2.591   0.270
 2509SOL    HW110441   4.346   2.660   0.202
 2509SOL    HW210442   4.244   2.624   0.324
 2510SOL     OW10443   5.005   2.207   0.944
 2510SOL    HW110444   4.919   2.157   0.931
 2510SOL    HW210445   5.067   2.153   1.000
 2511SOL     OW10446   4.531   2.467   1.465
 2511SOL    HW110447   4.484   2.464   1.554
 2511SOL    HW210448   4.480   2.412   1.399
 2512SOL     OW10449   4.697   2.752   1.572
 2512SOL    HW110450   4.743   2.668   1.543
 2512SOL    HW210451   4.641   2.786   1.497
 2513SOL     OW10452   4.715   2.272   1.242
 2513SOL    HW110453   4.638   2.306   1.296
 2513SOL    HW210454   4.681   2.221   1.163
 2514SOL     OW10455   4.765   2.563   0.429
 2514SOL    HW110456   4.791   2.559   0.525
 2514SOL    HW210457   4.680   2.512   0.415
 2515SOL     OW10458   3.800   2.673   0.789
 2515SOL    HW110459   3.899   2.661   0.798
 2515SOL    HW210460   3.776   2.768   0.810
 2516SOL     OW10461   4.274   2.058   0.885
 2516SOL    HW110462   4.269   2.053   0.985
 2516SOL    HW210463   4.276   2.154   0.856
 2517SOL     OW10464   4.732   3.318   0.477
 2517SOL    HW110465   4.686   3.390   0.425
 2517SOL    HW210466   4.728   3.338   0.575
 2518SOL     OW10467   4.075   3.663   0.853
 2518SOL    HW110468   4.125   3.577   0.859
 2518SOL    HW210469   4.140   3.740   0.850
 2519SOL     OW10470   4.045   2.805   0.242
 2519SOL    HW110471   4.127   2.844   0.200
 2519SOL    HW210472   4.018   2.723   0.193
 2520SOL     OW10473   4.835   3.638   0.237
 2520SOL    HW110474   4.775   3.576   0.287
 2520SOL    HW210475   4.866   3.594   0.152
 2521SOL     OW10476   4.188   3.605   0.323
 2521SOL    HW110477   4.221   3.644   0.409
 2521SOL    HW210478   4.264   3.598   0.258
 2522SOL     OW10479   3.973   3.647   1.241
 2522SOL    HW110480   4.030   3.582   1.291
 2522SOL    HW210481   3.957   3.614   1.148
 2523SOL     OW10482   4.664   3.560   0.904
 2523SOL    HW110483   4.744   3.503   0.925
 2523SOL    HW210484   4.615   3.520   0.827
 2524SOL     OW10485   4.106   2.562   0.480
 2524SOL    HW110486   4.151   2.472   0.477
 2524SOL    HW210487   4.012   2.551   0.513
 2525SOL     OW10488   4.505   2.126   1.749
 2525SOL    HW110489   4.572   2.065   1.792
 2525SOL    HW210490   4.432   2.145   1.814
 2526SOL     OW10491   4.527   3.264   0.924
 2526SOL    HW110492   4.617   3.278   0.882
 2526SOL    HW210493   4.456   3.266   0.853
 2527SOL     OW10494   4.646   2.365   0.899
 2527SOL    HW110495   4.621   2.356   0.803
 2527SOL    HW210496   4.694   2.283   0.930
 2528SOL     OW10497   4.263   1.926   0.512
 2528SOL    HW110498   4.182   1.927   0.570
 2528SOL    HW210499   4.266   2.009   0.457
 2529SOL     OW10500   4.021   1.897   0.171
 2529SOL    HW110501   4.070   1.981   0.150
 2529SOL    HW210502   4.083   1.832   0.216
 2530SOL     OW10503   4.659   2.098   0.480
 2530SOL    HW110504   4.611   2.139   0.402
 2530SOL    HW210505   4.758   2.096   0.461
 2531SOL     OW10506   4.800   2.545   1.464
 2531SOL    HW110507   4.720   2.484   1.467
 2531SOL    HW210508   4.881   2.492   1.440
 2532SOL     OW10509   4.951   3.432   0.793
 2532SOL    HW110510   4.972   3.506   0.728
 2532SOL    HW210511   5.019   3.432   0.866
 2533SOL     OW10512   4.183   3.014   0.741
 2533SOL    HW110513   4.112   2.987   0.806
 2533SOL    HW210514   4.157   2.986   0.648
 2534SOL     OW10515   4.995   3.659   0.591
 2534SOL    HW110516   5.039   3.723   0.527
 2534SOL    HW210517   4.945   3.711   0.661
 2535SOL     OW10518   4.756   2.411   0.016
 2535SOL    HW110519   4.715   2.493  -0.023
 2535SOL    HW210520   4.820   2.437   0.089
 2536SOL     OW10521   4.285   2.084   1.147
 2536SOL    HW110522   4.323   2.000   1.184
 2536SOL    HW210523   4.197   2.103   1.191
 2537SOL     OW10524   4.590   2.316   0.642
 2537SOL    HW110525   4.558   2.388   0.580
 2537SOL    HW210526   4.614   2.235   0.589
 2538SOL     OW10527   4.741   1.901   0.753
 2538SOL    HW110528   4.669   1.906   0.684
 2538SOL    HW210529   4.717   1.832   0.822
 2539SOL     OW10530   4.212   3.247   0.174
 2539SOL    HW110531   4.125   3.232   0.221
 2539SOL    HW210532   4.195   3.273   0.079
 2540SOL     OW10533   4.788   3.209   1.340
 2540SOL    HW110534   4.708   3.186   1.395
 2540SOL    HW210535   4.871   3.183   1.389
 2541SOL     OW10536   4.639   1.951   1.402
 2541SOL    HW110537   4.664   1.931   1.307
 2541SOL    HW210538   4.711   2.007   1.444
 2542SOL     OW10539   4.704   2.978   1.719
 2542SOL    HW110540   4.605   2.984   1.729
 2542SOL    HW210541   4.727   2.898   1.663
 2543SOL     OW10542   4.429   2.912   0.368
 2543SOL    HW110543   4.415   2.919   0.467
 2543SOL    HW210544   4.513   2.861   0.350
 2544SOL     OW10545   4.998   2.248   1.262
 2544SOL    HW110546   5.019   2.322   1.326
 2544SOL    HW210547   4.909   2.265   1.219
 2545SOL     OW10548   4.091   2.962   0.501
 2545SOL    HW110549   4.084   3.045   0.445
 2545SOL    HW210550   4.095   2.882   0.441
 2546SOL     OW10551   4.290   2.399   0.865
 2546SOL    HW110552   4.302   2.465   0.791
 2546SOL    HW210553   4.336   2.433   0.948
 2547SOL     OW10554   4.976   3.210   0.388
 2547SOL    HW110555   5.026   3.287   0.428
 2547SOL    HW210556   4.881   3.212   0.420
 2548SOL     OW10557   4.737   1.967   1.770
 2548SOL    HW110558   4.743   2.052   1.718
 2548SOL    HW210559   4.769   1.891   1.713
 2549SOL     OW10560   4.297   2.732   1.029
 2549SOL    HW110561   4.341   2.821   1.020
 2549SOL    HW210562   4.234   2.732   1.106
 2550SOL     OW10563   5.084   2.724   1.045
 2550SOL    HW110564   5.009   2.724   0.979
 2550SOL    HW210565   5.121   2.632   1.054
 2551SOL     OW10566   4.933   2.387   0.275
 2551SOL    HW110567   4.946   2.303   0.329
 2551SOL    HW210568   4.904   2.461   0.335
 2552SOL     OW10569   4.031   2.075   1.231
 2552SOL    HW110570   4.008   2.112   1.321
 2552SOL    HW210571   4.001   1.980   1.225
 2553SOL     OW10572   3.761   3.172   1.282
 2553SOL    HW110573   3.814   3.123   1.350
 2553SOL    HW210574   3.783   3.270   1.287
 2554SOL     OW10575   4.456   2.496   1.064
 2554SOL    HW110576   4.515   2.470   0.988
 2554SOL    HW210577   4.428   2.592   1.053
 2555SOL     OW10578   4.031   1.925   0.618
 2555SOL    HW110579   4.020   2.019   0.651
 2555SOL    HW210580   4.026   1.862   0.695
 2556SOL     OW10581   4.747   2.628   0.966
 2556SOL    HW110582   4.762   2.649   1.062
 2556SOL    HW210583   4.717   2.533   0.957
 2557SOL     OW10584   4.704   3.435   1.700
 2557SOL    HW110585   4.684   3.479   1.612
 2557SOL    HW210586   4.743   3.344   1.684
 2558SOL     OW10587   5.027   2.700   0.042
 2558SOL    HW110588   5.061   2.607   0.057
 2558SOL    HW210589   5.045   2.727  -0.053
 2559SOL     OW10590   4.862   2.242   1.678
 2559SOL    HW110591   4.817   2.305   1.742
 2559SOL    HW210592   4.955   2.273   1.661
 2560SOL     OW10593   4.884   2.069   1.477
 2560SOL    HW110594   4.884   2.133   1.554
 2560SOL    HW210595   4.912   2.117   1.394
 2561SOL     OW10596   4.228   3.430   0.910
 2561SOL    HW110597   4.294   3.504   0.919
 2561SOL    HW210598   4.272   3.351   0.868
 2562SOL     OW10599   4.726   2.658   1.238
 2562SOL    HW110600   4.767   2.626   1.324
 2562SOL    HW210601   4.630   2.631   1.235
 2563SOL     OW10602   3.913   2.382   1.722
 2563SOL    HW110603   3.972   2.342   1.652
 2563SOL    HW210604   3.855   2.453   1.681
 2564SOL     OW10605   4.539   2.434   0.325
 2564SOL    HW110606   4.546   2.345   0.279
 2564SOL    HW210607   4.445   2.468   0.317
 2565SOL     OW10608   3.976   3.426   1.744
 2565SOL    HW110609   3.946   3.483   1.820
 2565SOL    HW210610   3.969   3.329   1.770
 2566SOL     OW10611   4.395   2.326   1.269
 2566SOL    HW110612   4.361   2.237   1.239
 2566SOL    HW210613   4.421   2.380   1.189
 2567SOL     OW10614   4.654   3.540   1.465
 2567SOL    HW110615   4.630   3.522   1.370
 2567SOL    HW210616   4.684   3.634   1.475
 2568SOL     OW10617   3.883   2.999   1.466
 2568SOL    HW110618   3.905   2.938   1.542
 2568SOL    HW210619   3.893   2.950   1.380
 2569SOL     OW10620   5.071   2.921   1.234
 2569SOL    HW110621   5.095   2.858   1.160
 2569SOL    HW210622   4.981   2.961   1.216
 2570SOL     OW10623   3.807   3.120   1.022
 2570SOL    HW110624   3.802   3.119   1.122
 2570SOL    HW210625   3.724   3.079   0.984
 2571SOL     OW10626   5.112   3.435   0.477
 2571SOL    HW110627   5.179   3.447   0.403
 2571SOL    HW210628   5.072   3.524   0.500
 2572SOL     OW10629   3.854   3.656   1.851
 2572SOL    HW110630   3.813   3.582   1.904
 2572SOL    HW210631   3.918   3.707   1.909
 2573SOL     OW10632   4.554   3.135   1.422
 2573SOL    HW110633   4.549   3.168   1.517
 2573SOL    HW210634   4.468   3.154   1.376
 2574SOL     OW10635   4.396   3.478   0.154
 2574SOL    HW110636   4.405   3.488   0.055
 2574SOL    HW210637   4.356   3.389   0.175
 2575SOL     OW10638   3.987   2.188   0.720
 2575SOL    HW110639   3.908   2.239   0.686
 2575SOL    HW210640   3.978   2.173   0.818
 2576SOL     OW10641   4.546   2.864   1.372
 2576SOL    HW110642   4.586   2.863   1.280
 2576SOL    HW210643   4.556   2.956   1.412
 2577SOL     OW10644   4.640   2.772   0.291
 2577SOL    HW110645   4.703   2.810   0.223
 2577SOL    HW210646   4.680   2.689   0.330
 2578SOL     OW10647   4.096   3.150   1.490
 2578SOL    HW110648   4.083   3.243   1.456
 2578SOL    HW210649   4.012   3.098   1.477
 2579SOL     OW10650   4.738   2.098   0.971
 2579SOL    HW110651   4.730   2.062   0.878
 2579SOL    HW210652   4.736   2.022   1.036
 2580SOL     OW10653   4.314   3.349   0.491
 2580SOL    HW110654   4.356   3.291   0.421
 2580SOL    HW210655   4.270   3.428   0.447
 2581SOL     OW10656   3.979   3.210   0.290
 2581SOL    HW110657   3.883   3.211   0.263
 2581SOL    HW210658   3.991   3.263   0.374
 2582SOL     OW10659   4.396   2.065   1.489
 2582SOL    HW110660   4.486   2.049   1.449
 2582SOL    HW210661   4.404   2.070   1.588
 2583SOL     OW10662   5.164   2.718   1.398
 2583SOL    HW110663   5.107   2.770   1.335
 2583SOL    HW210664   5.260   2.730   1.374
 2584SOL     OW10665   3.796   2.028   0.318
 2584SOL    HW110666   3.779   2.111   0.264
 2584SOL    HW210667   3.886   1.991   0.296
 2585SOL     OW10668   4.337   2.704   1.431
 2585SOL    HW110669   4.393   2.785   1.414
 2585SOL    HW210670   4.396   2.624   1.434
 2586SOL     OW10671   4.440   2.427   1.708
 2586SOL    HW110672   4.459   2.492   1.782
 2586SOL    HW210673   4.500   2.347   1.717
 2587SOL     OW10674   4.114   3.603   1.560
 2587SOL    HW110675   4.023   3.644   1.558
 2587SOL    HW210676   4.107   3.509   1.592
 2588SOL     OW10677   4.949   2.187   0.449
 2588SOL    HW110678   5.014   2.113   0.438
 2588SOL    HW210679   4.969   2.237   0.533
 2589SOL     OW10680   4.318   2.607   0.652
 2589SOL    HW110681   4.368   2.692   0.633
 2589SOL    HW210682   4.230   2.609   0.604
 2590SOL     OW10683   4.583   3.236   0.016
 2590SOL    HW110684   4.537   3.251   0.104
 2590SOL    HW210685   4.627   3.321  -0.014
 2591SOL     OW10686   4.385   3.652   0.953
 2591SOL    HW110687   4.339   3.740   0.940
 2591SOL    HW210688   4.484   3.664   0.946
 2592SOL     OW10689   4.583   2.818   0.861
 2592SOL    HW110690   4.637   2.749   0.909
 2592SOL    HW210691   4.551   2.887   0.927
 2593SOL     OW10692   3.803   3.102   0.653
 2593SOL    HW110693   3.802   3.055   0.741
 2593SOL    HW210694   3.885   3.074   0.602
 2594SOL     OW10695   4.152   2.286   0.520
 2594SOL    HW110696   4.182   2.214   0.458
 2594SOL    HW210697   4.113   2.246   0.603
 2595SOL     OW10698   4.536   3.448   0.687
 2595SOL    HW110699   4.568   3.458   0.593
 2595SOL    HW210700   4.457   3.386   0.689
 2596SOL     OW10701   4.725   1.896   1.154
 2596SOL    HW110702   4.662   1.824   1.123
 2596SOL    HW210703   4.818   1.860   1.154
 2597SOL     OW10704   4.494   3.192   0.301
 2597SOL    HW110705   4.448   3.105   0.318
 2597SOL    HW210706   4.585   3.189   0.342
 2598SOL     OW10707   3.763   2.939   0.300
 2598SOL    HW110708   3.862   2.928   0.291
 2598SOL    HW210709   3.723   2.853   0.332
 2599SOL     OW10710   4.599   3.508   0.337
 2599SOL    HW110711   4.522   3.473   0.283
 2599SOL    HW210712   4.567   3.579   0.399
 2600SOL     OW10713   3.954   2.490   1.975
 2600SOL    HW110714   3.861   2.488   2.012
 2600SOL    HW210715   3.955   2.451   1.883
 2601SOL     OW10716   4.859   2.565   2.579
 2601SOL    HW110717   4.916   2.643   2.554
 2601SOL    HW210718   4.799   2.591   2.655
 2602SOL     OW10719   4.492   3.006   2.885
 2602SOL    HW110720   4.414   3.023   2.945
 2602SOL    HW210721   4.526   3.093   2.849
 2603SOL     OW10722   4.574   2.660   3.685
 2603SOL    HW110723   4.570   2.736   3.750
 2603SOL    HW210724   4.596   2.696   3.594
 2604SOL     OW10725   4.409   2.874   2.527
 2604SOL    HW110726   4.478   2.858   2.597
 2604SOL    HW210727   4.336   2.931   2.565
 2605SOL     OW10728   4.059   3.297   2.923
 2605SOL    HW110729   3.981   3.266   2.870
 2605SOL    HW210730   4.117   3.355   2.866
 2606SOL     OW10731   4.162   2.254   3.361
 2606SOL    HW110732   4.244   2.198   3.370
 2606SOL    HW210733   4.081   2.196   3.365
 2607SOL     OW10734   3.955   3.575   2.345
 2607SOL    HW110735   3.989   3.652   2.399
 2607SOL    HW210736   3.999   3.575   2.255
 2608SOL     OW10737   4.851   3.203   3.552
 2608SOL    HW110738   4.898   3.203   3.640
 2608SOL    HW210739   4.803   3.116   3.541
 2609SOL     OW10740   3.954   3.296   2.400
 2609SOL    HW110741   3.928   3.392   2.400
 2609SOL    HW210742   3.883   3.242   2.445
 2610SOL     OW10743   4.344   3.648   3.301
 2610SOL    HW110744   4.252   3.631   3.336
 2610SOL    HW210745   4.372   3.740   3.327
 2611SOL     OW10746   4.330   2.826   1.985
 2611SOL    HW110747   4.337   2.910   1.931
 2611SOL    HW210748   4.376   2.839   2.073
 2612SOL     OW10749   3.751   3.458   1.979
 2612SOL    HW110750   3.732   3.362   2.000
 2612SOL    HW210751   3.718   3.516   2.054
 2613SOL     OW10752   3.837   2.599   3.459
 2613SOL    HW110753   3.925   2.586   3.504
 2613SOL    HW210754   3.824   2.696   3.437
 2614SOL     OW10755   4.337   3.227   2.588
 2614SOL    HW110756   4.288   3.140   2.597
 2614SOL    HW210757   4.314   3.270   2.501
 2615SOL     OW10758   5.017   3.090   3.285
 2615SOL    HW110759   5.054   3.017   3.227
 2615SOL    HW210760   5.069   3.095   3.370
 2616SOL     OW10761   4.533   1.866   2.364
 2616SOL    HW110762   4.573   1.957   2.355
 2616SOL    HW210763   4.433   1.874   2.370
 2617SOL     OW10764   3.921   2.838   3.126
 2617SOL    HW110765   4.010   2.793   3.112
 2617SOL    HW210766   3.848   2.773   3.107
 2618SOL     OW10767   4.911   3.654   3.478
 2618SOL    HW110768   4.935   3.714   3.402
 2618SOL    HW210769   4.918   3.559   3.448
 2619SOL     OW10770   4.041   2.113   3.663
 2619SOL    HW110771   4.112   2.184   3.669
 2619SOL    HW210772   3.953   2.152   3.691
 2620SOL     OW10773   4.322   2.591   2.132
 2620SOL    HW110774   4.346   2.660   2.064
 2620SOL    HW210775   4.244   2.624   2.186
 2621SOL     OW10776   5.005   2.207   2.806
 2621SOL    HW110777   4.919   2.157   2.793
 2621SOL    HW210778   5.067   2.153   2.862
 2622SOL     OW10779   4.531   2.467   3.327
 2622SOL    HW110780   4.484   2.464   3.416
 2622SOL    HW210781   4.480   2.412   3.261
 2623SOL     OW10782   4.697   2.752   3.434
 2623SOL    HW110783   4.743   2.668   3.405
 2623SOL    HW210784   4.641   2.786   3.359
 2624SOL     OW10785   4.715   2.272   3.104
 2624SOL    HW110786   4.638   2.306   3.158
 2624SOL    HW210787   4.681   2.221   3.025
 2625SOL     OW10788   4.765   2.563   2.291
 2625SOL    HW110789   4.791   2.559   2.387
 2625SOL    HW210790   4.680   2.512   2.277
 2626SOL     OW10791   3.800   2.673   2.651
 2626SOL    HW110792   3.899   2.661   2.660
 2626SOL    HW210793   3.776   2.768   2.672
 2627SOL     OW10794   3.854   3.683   3.433
 2627SOL    HW110795   3.844   3.668   3.532
 2627SOL    HW210796   3.768   3.719   3.397
 2628SOL     OW10797   4.589   2.210   2.057
 2628SOL    HW110798   4.648   2.273   2.008
 2628SOL    HW210799   4.608   2.116   2.028
 2629SOL     OW10800   4.732   3.318   2.339
 2629SOL    HW110801   4.686   3.390   2.287
 2629SOL    HW210802   4.728   3.338   2.437
 2630SOL     OW10803   4.075   3.663   2.715
 2630SOL    HW110804   4.125   3.577   2.721
 2630SOL    HW210805   4.140   3.740   2.712
 2631SOL     OW10806   4.951   3.412   3.368
 2631SOL    HW110807   4.957   3.335   3.432
 2631SOL    HW210808   4.899   3.386   3.288
 2632SOL     OW10809   4.045   2.805   2.104
 2632SOL    HW110810   4.127   2.844   2.062
 2632SOL    HW210811   4.018   2.723   2.055
 2633SOL     OW10812   4.835   3.638   2.099
 2633SOL    HW110813   4.775   3.576   2.149
 2633SOL    HW210814   4.866   3.594   2.014
 2634SOL     OW10815   3.926   2.147   3.360
 2634SOL    HW110816   3.846   2.207   3.347
 2634SOL    HW210817   3.916   2.098   3.446
 2635SOL     OW10818   4.664   3.560   2.766
 2635SOL    HW110819   4.744   3.503   2.787
 2635SOL    HW210820   4.615   3.520   2.689
 2636SOL     OW10821   4.338   1.984   1.979
 2636SOL    HW110822   4.436   1.962   1.986
 2636SOL    HW210823   4.307   1.967   1.886
 2637SOL     OW10824   4.505   2.126   3.611
 2637SOL    HW110825   4.572   2.065   3.654
 2637SOL    HW210826   4.432   2.145   3.676
 2638SOL     OW10827   4.612   3.376   3.057
 2638SOL    HW110828   4.589   3.351   2.963
 2638SOL    HW210829   4.673   3.307   3.096
 2639SOL     OW10830   4.527   3.264   2.786
 2639SOL    HW110831   4.617   3.278   2.744
 2639SOL    HW210832   4.456   3.266   2.715
 2640SOL     OW10833   4.646   2.365   2.761
 2640SOL    HW110834   4.621   2.356   2.665
 2640SOL    HW210835   4.694   2.283   2.792
 2641SOL     OW10836   4.263   1.926   2.374
 2641SOL    HW110837   4.182   1.927   2.432
 2641SOL    HW210838   4.266   2.009   2.319
 2642SOL     OW10839   4.021   1.897   2.033
 2642SOL    HW110840   4.070   1.981   2.012
 2642SOL    HW210841   4.083   1.832   2.078
 2643SOL     OW10842   4.659   2.098   2.342
 2643SOL    HW110843   4.611   2.139   2.264
 2643SOL    HW210844   4.758   2.096   2.323
 2644SOL     OW10845   4.800   2.545   3.326
 2644SOL    HW110846   4.720   2.484   3.329
 2644SOL    HW210847   4.881   2.492   3.302
 2645SOL     OW10848   4.951   3.432   2.655
 2645SOL    HW110849   4.972   3.506   2.590
 2645SOL    HW210850   5.019   3.432   2.728
 2646SOL     OW10851   4.183   3.014   2.603
 2646SOL    HW110852   4.112   2.987   2.668
 2646SOL    HW210853   4.157   2.986   2.510
 2647SOL     OW10854   4.995   3.659   2.453
 2647SOL    HW110855   5.039   3.723   2.389
 2647SOL    HW210856   4.945   3.711   2.523
 2648SOL     OW10857   4.756   2.411   1.878
 2648SOL    HW110858   4.715   2.493   1.839
 2648SOL    HW210859   4.820   2.437   1.951
 2649SOL     OW10860   3.802   2.418   3.248
 2649SOL    HW110861   3.894   2.417   3.207
 2649SOL    HW210862   3.796   2.492   3.315
 2650SOL     OW10863   4.285   2.084   3.009
 2650SOL    HW110864   4.323   2.000   3.046
 2650SOL    HW210865   4.197   2.103   3.053
 2651SOL     OW10866   4.590   2.316   2.504
 2651SOL    HW110867   4.558   2.388   2.442
 2651SOL    HW210868   4.614   2.235   2.451
 2652SOL     OW10869   4.741   1.901   2.615
 2652SOL    HW110870   4.669   1.906   2.546
 2652SOL    HW210871   4.717   1.832   2.684
 2653SOL     OW10872   4.251   2.118   2.190
 2653SOL    HW110873   4.278   2.059   2.115
 2653SOL    HW210874   4.251   2.213   2.159
 2654SOL     OW10875   4.788   3.209   3.202
 2654SOL    HW110876   4.708   3.186   3.257
 2654SOL    HW210877   4.871   3.183   3.251
 2655SOL     OW10878   4.835   3.057   2.962
 2655SOL    HW110879   4.795   3.101   3.043
 2655SOL    HW210880   4.794   3.094   2.879
 2656SOL     OW10881   4.639   1.951   3.264
 2656SOL    HW110882   4.664   1.931   3.169
 2656SOL    HW210883   4.711   2.007   3.306
 2657SOL     OW10884   4.704   2.978   3.581
 2657SOL    HW110885   4.605   2.984   3.591
 2657SOL    HW210886   4.727   2.898   3.525
 2658SOL     OW10887   4.429   2.912   2.230
 2658SOL    HW110888   4.415   2.919   2.329
 2658SOL    HW210889   4.513   2.861   2.212
 2659SOL     OW10890   4.134   2.675   3.113
 2659SOL    HW110891   4.220   2.687   3.163
 2659SOL    HW210892   4.092   2.588   3.140
 2660SOL     OW10893   4.998   2.248   3.124
 2660SOL    HW110894   5.019   2.322   3.188
 2660SOL    HW210895   4.909   2.265   3.081
 2661SOL     OW10896   4.091   2.962   2.363
 2661SOL    HW110897   4.084   3.045   2.307
 2661SOL    HW210898   4.095   2.882   2.303
 2662SOL     OW10899   4.126   2.613   3.460
 2662SOL    HW110900   4.194   2.668   3.413
 2662SOL    HW210901   4.166   2.525   3.487
 2663SOL     OW10902   4.737   1.967   3.632
 2663SOL    HW110903   4.743   2.052   3.580
 2663SOL    HW210904   4.769   1.891   3.575
 2664SOL     OW10905   5.084   2.724   2.907
 2664SOL    HW110906   5.009   2.724   2.841
 2664SOL    HW210907   5.121   2.632   2.916
 2665SOL     OW10908   4.031   2.075   3.093
 2665SOL    HW110909   4.008   2.112   3.183
 2665SOL    HW210910   4.001   1.980   3.087
 2666SOL     OW10911   3.761   3.172   3.144
 2666SOL    HW110912   3.814   3.123   3.212
 2666SOL    HW210913   3.783   3.270   3.149
 2667SOL     OW10914   4.456   2.496   2.926
 2667SOL    HW110915   4.515   2.470   2.850
 2667SOL    HW210916   4.428   2.592   2.915
 2668SOL     OW10917   4.031   1.925   2.480
 2668SOL    HW110918   4.020   2.019   2.513
 2668SOL    HW210919   4.026   1.862   2.557
 2669SOL     OW10920   4.747   2.628   2.828
 2669SOL    HW110921   4.762   2.649   2.924
 2669SOL    HW210922   4.717   2.533   2.819
 2670SOL     OW10923   4.704   3.435   3.562
 2670SOL    HW110924   4.684   3.479   3.474
 2670SOL    HW210925   4.743   3.344   3.546
 2671SOL     OW10926   4.074   2.760   3.666
 2671SOL    HW110927   4.150   2.804   3.714
 2671SOL    HW210928   4.109   2.713   3.584
 2672SOL     OW10929   4.792   3.195   2.711
 2672SOL    HW110930   4.799   3.111   2.656
 2672SOL    HW210931   4.854   3.264   2.675
 2673SOL     OW10932   4.862   2.242   3.540
 2673SOL    HW110933   4.817   2.305   3.604
 2673SOL    HW210934   4.955   2.273   3.523
 2674SOL     OW10935   4.884   2.069   3.339
 2674SOL    HW110936   4.884   2.133   3.416
 2674SOL    HW210937   4.912   2.117   3.256
 2675SOL     OW10938   3.732   3.188   2.062
 2675SOL    HW110939   3.639   3.209   2.031
 2675SOL    HW210940   3.742   3.089   2.075
 2676SOL     OW10941   3.812   3.663   2.789
 2676SOL    HW110942   3.770   3.577   2.762
 2676SOL    HW210943   3.906   3.666   2.755
 2677SOL     OW10944   4.228   3.430   2.772
 2677SOL    HW110945   4.294   3.504   2.781
 2677SOL    HW210946   4.272   3.351   2.730
 2678SOL     OW10947   4.726   2.658   3.100
 2678SOL    HW110948   4.767   2.626   3.186
 2678SOL    HW210949   4.630   2.631   3.097
 2679SOL     OW10950   4.539   2.434   2.187
 2679SOL    HW110951   4.546   2.345   2.141
 2679SOL    HW210952   4.445   2.468   2.179
 2680SOL     OW10953   3.976   3.426   3.606
 2680SOL    HW110954   3.946   3.483   3.682
 2680SOL    HW210955   3.969   3.329   3.632
 2681SOL     OW10956   4.395   2.326   3.131
 2681SOL    HW110957   4.361   2.237   3.101
 2681SOL    HW210958   4.421   2.380   3.051
 2682SOL     OW10959   4.654   3.540   3.327
 2682SOL    HW110960   4.630   3.522   3.232
 2682SOL    HW210961   4.684   3.634   3.337
 2683SOL     OW10962   4.197   2.362   2.053
 2683SOL    HW110963   4.258   2.442   2.057
 2683SOL    HW210964   4.102   2.393   2.060
 2684SOL     OW10965   3.883   2.999   3.328
 2684SOL    HW110966   3.905   2.938   3.404
 2684SOL    HW210967   3.893   2.950   3.242
 2685SOL     OW10968   5.071   2.921   3.096
 2685SOL    HW110969   5.095   2.858   3.022
 2685SOL    HW210970   4.981   2.961   3.078
 2686SOL     OW10971   4.976   3.593   2.990
 2686SOL    HW110972   5.060   3.598   2.936
 2686SOL    HW210973   4.953   3.497   3.008
 2687SOL     OW10974   3.807   3.120   2.884
 2687SOL    HW110975   3.802   3.119   2.984
 2687SOL    HW210976   3.724   3.079   2.846
 2688SOL     OW10977   5.004   2.789   2.534
 2688SOL    HW110978   5.064   2.708   2.536
 2688SOL    HW210979   5.044   2.858   2.474
 2689SOL     OW10980   4.918   3.474   1.893
 2689SOL    HW110981   4.924   3.381   1.930
 2689SOL    HW210982   4.859   3.474   1.813
 2690SOL     OW10983   4.546   2.864   3.234
 2690SOL    HW110984   4.586   2.863   3.142
 2690SOL    HW210985   4.556   2.956   3.274
 2691SOL     OW10986   4.640   2.772   2.153
 2691SOL    HW110987   4.703   2.810   2.085
 2691SOL    HW210988   4.680   2.689   2.192
 2692SOL     OW10989   4.763   2.960   2.558
 2692SOL    HW110990   4.693   2.913   2.612
 2692SOL    HW210991   4.822   2.892   2.515
 2693SOL     OW10992   4.738   2.098   2.833
 2693SOL    HW110993   4.730   2.062   2.740
 2693SOL    HW210994   4.736   2.022   2.898
 2694SOL     OW10995   4.314   3.349   2.353
 2694SOL    HW110996   4.356   3.291   2.283
 2694SOL    HW210997   4.270   3.428   2.309
 2695SOL     OW10998   3.829   2.875   3.588
 2695SOL    HW110999   3.752   2.842   3.642
 2695SOL    HW211000   3.914   2.845   3.630
 2696SOL     OW11001   4.396   2.065   3.351
 2696SOL    HW111002   4.486   2.049   3.311
 2696SOL    HW211003   4.404   2.070   3.450
 2697SOL     OW11004   3.799   2.207   1.895
 2697SOL    HW111005   3.707   2.179   1.866
 2697SOL    HW211006   3.830   2.284   1.839
 2698SOL     OW11007   5.164   2.718   3.260
 2698SOL    HW111008   5.107   2.770   3.197
 2698SOL    HW211009   5.260   2.730   3.236
 2699SOL     OW11010   4.337   2.704   3.293
 2699SOL    HW111011   4.393   2.785   3.276
 2699SOL    HW211012   4.396   2.624   3.296
 2700SOL     OW11013   4.440   2.427   3.570
 2700SOL    HW111014   4.459   2.492   3.644
 2700SOL    HW211015   4.500   2.347   3.579
 2701SOL     OW11016   4.114   3.603   3.422
 2701SOL    HW111017   4.023   3.644   3.420
 2701SOL    HW211018   4.107   3.509   3.454
 2702SOL     OW11019   4.949   2.187   2.311
 2702SOL    HW111020   5.014   2.113   2.300
 2702SOL    HW211021   4.969   2.237   2.395
 2703SOL     OW11022   4.318   2.607   2.514
 2703SOL    HW111023   4.368   2.692   2.495
 2703SOL    HW211024   4.230   2.609   2.466
 2704SOL     OW11025   4.385   3.652   2.815
 2704SOL    HW111026   4.339   3.740   2.802
 2704SOL    HW211027   4.484   3.664   2.808
 2705SOL     OW11028   4.583   2.818   2.723
 2705SOL    HW111029   4.637   2.749   2.771
 2705SOL    HW211030   4.551   2.887   2.789
 2706SOL     OW11031   4.807   2.846   1.949
 2706SOL    HW111032   4.784   2.899   1.867
 2706SOL    HW211033   4.888   2.790   1.930
 2707SOL     OW11034   3.945   3.176   3.706
 2707SOL    HW111035   3.880   3.103   3.685
 2707SOL    HW211036   3.949   3.190   3.804
 2708SOL     OW11037   3.803   3.102   2.515
 2708SOL    HW111038   3.802   3.055   2.603
 2708SOL    HW211039   3.885   3.074   2.464
 2709SOL     OW11040   4.152   2.286   2.382
 2709SOL    HW111041   4.182   2.214   2.320
 2709SOL    HW211042   4.113   2.246   2.465
 2710SOL     OW11043   4.041   2.409   3.142
 2710SOL    HW111044   4.079   2.350   3.214
 2710SOL    HW211045   4.081   2.383   3.054
 2711SOL     OW11046   4.536   3.448   2.549
 2711SOL    HW111047   4.568   3.458   2.455
 2711SOL    HW211048   4.457   3.386   2.551
 2712SOL     OW11049   4.725   1.896   3.016
 2712SOL    HW111050   4.662   1.824   2.985
 2712SOL    HW211051   4.818   1.860   3.016
 2713SOL     OW11052   4.494   3.192   2.163
 2713SOL    HW111053   4.448   3.105   2.180
 2713SOL    HW211054   4.585   3.189   2.204
 2714SOL     OW11055   5.076   1.914   2.030
 2714SOL    HW111056   5.111   1.873   1.946
 2714SOL    HW211057   4.986   1.876   2.050
 2715SOL     OW11058   4.599   3.508   2.199
 2715SOL    HW111059   4.522   3.473   2.145
 2715SOL    HW211060   4.567   3.579   2.261
 2716SOL     OW11061   4.492   3.006   4.747
 2716SOL    HW111062   4.414   3.023   4.807
 2716SOL    HW211063   4.526   3.093   4.711
 2717SOL     OW11064   4.409   2.874   4.389
 2717SOL    HW111065   4.478   2.858   4.459
 2717SOL    HW211066   4.336   2.931   4.427
 2718SOL     OW11067   3.954   3.296   4.262
 2718SOL    HW111068   3.928   3.392   4.262
 2718SOL    HW211069   3.883   3.242   4.307
 2719SOL     OW11070   4.344   3.648   5.163
 2719SOL    HW111071   4.252   3.631   5.198
 2719SOL    HW211072   4.372   3.740   5.189
 2720SOL     OW11073   3.846   2.505   4.287
 2720SOL    HW111074   3.801   2.417   4.304
 2720SOL    HW211075   3.845   2.559   4.371
 2721SOL     OW11076   4.533   1.866   4.226
 2721SOL    HW111077   4.573   1.957   4.217
 2721SOL    HW211078   4.433   1.874   4.232
 2722SOL     OW11079   3.921   2.838   4.988
 2722SOL    HW111080   4.010   2.793   4.974
 2722SOL    HW211081   3.848   2.773   4.969
 2723SOL     OW11082   4.322   2.591   3.994
 2723SOL    HW111083   4.346   2.660   3.926
 2723SOL    HW211084   4.244   2.624   4.048
 2724SOL     OW11085   4.765   2.563   4.153
 2724SOL    HW111086   4.791   2.559   4.249
 2724SOL    HW211087   4.680   2.512   4.139
 2725SOL     OW11088   3.800   2.673   4.513
 2725SOL    HW111089   3.899   2.661   4.522
 2725SOL    HW211090   3.776   2.768   4.534
 2726SOL     OW11091   4.589   2.210   3.919
 2726SOL    HW111092   4.648   2.273   3.870
 2726SOL    HW211093   4.608   2.116   3.890
 2727SOL     OW11094   4.075   3.663   4.577
 2727SOL    HW111095   4.125   3.577   4.583
 2727SOL    HW211096   4.140   3.740   4.574
 2728SOL     OW11097   4.045   2.805   3.966
 2728SOL    HW111098   4.127   2.844   3.924
 2728SOL    HW211099   4.018   2.723   3.917
 2729SOL     OW11100   4.835   3.638   3.961
 2729SOL    HW111101   4.775   3.576   4.011
 2729SOL    HW211102   4.866   3.594   3.876
 2730SOL     OW11103   4.188   3.605   4.047
 2730SOL    HW111104   4.221   3.644   4.133
 2730SOL    HW211105   4.264   3.598   3.982
 2731SOL     OW11106   3.973   3.647   4.965
 2731SOL    HW111107   4.030   3.582   5.015
 2731SOL    HW211108   3.957   3.614   4.872
 2732SOL     OW11109   4.664   3.560   4.628
 2732SOL    HW111110   4.744   3.503   4.649
 2732SOL    HW211111   4.615   3.520   4.551
 2733SOL     OW11112   4.106   2.562   4.204
 2733SOL    HW111113   4.151   2.472   4.201
 2733SOL    HW211114   4.012   2.551   4.237
 2734SOL     OW11115   4.338   1.984   3.841
 2734SOL    HW111116   4.436   1.962   3.848
 2734SOL    HW211117   4.307   1.967   3.748
 2735SOL     OW11118   4.646   2.365   4.623
 2735SOL    HW111119   4.621   2.356   4.527
 2735SOL    HW211120   4.694   2.283   4.654
 2736SOL     OW11121   4.263   1.926   4.236
 2736SOL    HW111122   4.182   1.927   4.294
 2736SOL    HW211123   4.266   2.009   4.181
 2737SOL     OW11124   4.951   3.432   4.517
 2737SOL    HW111125   4.972   3.506   4.452
 2737SOL    HW211126   5.019   3.432   4.590
 2738SOL     OW11127   4.183   3.014   4.465
 2738SOL    HW111128   4.112   2.987   4.530
 2738SOL    HW211129   4.157   2.986   4.372
 2739SOL     OW11130   4.995   3.659   4.315
 2739SOL    HW111131   5.039   3.723   4.251
 2739SOL    HW211132   4.945   3.711   4.385
 2740SOL     OW11133   4.756   2.411   3.740
 2740SOL    HW111134   4.715   2.493   3.701
 2740SOL    HW211135   4.820   2.437   3.813
 2741SOL     OW11136   5.388   3.142   4.381
 2741SOL    HW111137   5.487   3.150   4.395
 2741SOL    HW211138   5.343   3.226   4.412
 2742SOL     OW11139   4.251   2.118   4.052
 2742SOL    HW111140   4.278   2.059   3.977
 2742SOL    HW211141   4.251   2.213   4.021
 2743SOL     OW11142   5.316   3.491   5.349
 2743SOL    HW111143   5.343   3.525   5.259
 2743SOL    HW211144   5.395   3.453   5.395
 2744SOL     OW11145   4.429   2.912   4.092
 2744SOL    HW111146   4.415   2.919   4.191
 2744SOL    HW211147   4.513   2.861   4.074
 2745SOL     OW11148   4.134   2.675   4.975
 2745SOL    HW111149   4.220   2.687   5.025
 2745SOL    HW211150   4.092   2.588   5.002
 2746SOL     OW11151   4.091   2.962   4.225
 2746SOL    HW111152   4.084   3.045   4.169
 2746SOL    HW211153   4.095   2.882   4.165
 2747SOL     OW11154   4.976   3.210   4.112
 2747SOL    HW111155   5.026   3.287   4.152
 2747SOL    HW211156   4.881   3.212   4.144
 2748SOL     OW11157   4.078   3.372   5.053
 2748SOL    HW111158   4.057   3.328   4.966
 2748SOL    HW211159   4.175   3.398   5.056
 2749SOL     OW11160   4.297   2.732   4.753
 2749SOL    HW111161   4.341   2.821   4.744
 2749SOL    HW211162   4.234   2.732   4.830
 2750SOL     OW11163   5.084   2.724   4.769
 2750SOL    HW111164   5.009   2.724   4.703
 2750SOL    HW211165   5.121   2.632   4.778
 2751SOL     OW11166   4.933   2.387   3.999
 2751SOL    HW111167   4.946   2.303   4.053
 2751SOL    HW211168   4.904   2.461   4.059
 2752SOL     OW11169   4.031   1.925   4.342
 2752SOL    HW111170   4.020   2.019   4.375
 2752SOL    HW211171   4.026   1.862   4.419
 2753SOL     OW11172   4.747   2.628   4.690
 2753SOL    HW111173   4.762   2.649   4.786
 2753SOL    HW211174   4.717   2.533   4.681
 2754SOL     OW11175   5.027   2.700   3.766
 2754SOL    HW111176   5.061   2.607   3.781
 2754SOL    HW211177   5.045   2.727   3.671
 2755SOL     OW11178   4.792   3.195   4.573
 2755SOL    HW111179   4.799   3.111   4.518
 2755SOL    HW211180   4.854   3.264   4.537
 2756SOL     OW11181   4.043   2.672   4.673
 2756SOL    HW111182   4.136   2.708   4.678
 2756SOL    HW211183   4.037   2.587   4.725
 2757SOL     OW11184   4.228   3.430   4.634
 2757SOL    HW111185   4.294   3.504   4.643
 2757SOL    HW211186   4.272   3.351   4.592
 2758SOL     OW11187   4.726   2.658   4.962
 2758SOL    HW111188   4.767   2.626   5.048
 2758SOL    HW211189   4.630   2.631   4.959
 2759SOL     OW11190   4.539   2.434   4.049
 2759SOL    HW111191   4.546   2.345   4.003
 2759SOL    HW211192   4.445   2.468   4.041
 2760SOL     OW11193   4.654   3.540   5.189
 2760SOL    HW111194   4.630   3.522   5.094
 2760SOL    HW211195   4.684   3.634   5.199
 2761SOL     OW11196   5.071   2.921   4.958
 2761SOL    HW111197   5.095   2.858   4.884
 2761SOL    HW211198   4.981   2.961   4.940
 2762SOL     OW11199   4.976   3.593   4.852
 2762SOL    HW111200   5.060   3.598   4.798
 2762SOL    HW211201   4.953   3.497   4.870
 2763SOL     OW11202   5.112   3.435   4.201
 2763SOL    HW111203   5.179   3.447   4.127
 2763SOL    HW211204   5.072   3.524   4.224
 2764SOL     OW11205   5.004   2.789   4.396
 2764SOL    HW111206   5.064   2.708   4.398
 2764SOL    HW211207   5.044   2.858   4.336
 2765SOL     OW11208   4.918   3.474   3.755
 2765SOL    HW111209   4.924   3.381   3.792
 2765SOL    HW211210   4.859   3.474   3.675
 2766SOL     OW11211   4.546   2.864   5.096
 2766SOL    HW111212   4.586   2.863   5.004
 2766SOL    HW211213   4.556   2.956   5.136
 2767SOL     OW11214   4.640   2.772   4.015
 2767SOL    HW111215   4.703   2.810   3.947
 2767SOL    HW211216   4.680   2.689   4.054
 2768SOL     OW11217   4.763   2.960   4.420
 2768SOL    HW111218   4.693   2.913   4.474
 2768SOL    HW211219   4.822   2.892   4.377
 2769SOL     OW11220   3.799   2.207   3.757
 2769SOL    HW111221   3.707   2.179   3.728
 2769SOL    HW211222   3.830   2.284   3.701
 2770SOL     OW11223   3.796   2.028   4.042
 2770SOL    HW111224   3.779   2.111   3.988
 2770SOL    HW211225   3.886   1.991   4.020
 2771SOL     OW11226   4.949   2.187   4.173
 2771SOL    HW111227   5.014   2.113   4.162
 2771SOL    HW211228   4.969   2.237   4.257
 2772SOL     OW11229   4.318   2.607   4.376
 2772SOL    HW111230   4.368   2.692   4.357
 2772SOL    HW211231   4.230   2.609   4.328
 2773SOL     OW11232   4.385   3.652   4.677
 2773SOL    HW111233   4.339   3.740   4.664
 2773SOL    HW211234   4.484   3.664   4.670
 2774SOL     OW11235   4.583   2.818   4.585
 2774SOL    HW111236   4.637   2.749   4.633
 2774SOL    HW211237   4.551   2.887   4.651
 2775SOL     OW11238   4.807   2.846   3.811
 2775SOL    HW111239   4.784   2.899   3.729
 2775SOL    HW211240   4.888   2.790   3.792
 2776SOL     OW11241   3.803   3.102   4.377
 2776SOL    HW111242   3.802   3.055   4.465
 2776SOL    HW211243   3.885   3.074   4.326
 2777SOL     OW11244   4.152   2.286   4.244
 2777SOL    HW111245   4.182   2.214   4.182
 2777SOL    HW211246   4.113   2.246   4.327
 2778SOL     OW11247   5.076   1.914   3.892
 2778SOL    HW111248   5.111   1.873   3.808
 2778SOL    HW211249   4.986   1.876   3.912
 2779SOL     OW11250   3.954   4.352   0.113
 2779SOL    HW111251   3.861   4.350   0.150
 2779SOL    HW211252   3.955   4.313   0.021
 2780SOL     OW11253   3.949   3.999   0.996
 2780SOL    HW111254   3.984   3.982   1.088
 2780SOL    HW211255   3.861   3.954   0.984
 2781SOL     OW11256   4.293   4.999   1.165
 2781SOL    HW111257   4.200   4.992   1.128
 2781SOL    HW211258   4.304   5.088   1.209
 2782SOL     OW11259   4.859   4.427   0.717
 2782SOL    HW111260   4.916   4.505   0.692
 2782SOL    HW211261   4.799   4.453   0.793
 2783SOL     OW11262   4.492   4.868   1.023
 2783SOL    HW111263   4.414   4.885   1.083
 2783SOL    HW211264   4.526   4.955   0.987
 2784SOL     OW11265   4.409   4.736   0.665
 2784SOL    HW111266   4.478   4.720   0.735
 2784SOL    HW211267   4.336   4.793   0.703
 2785SOL     OW11268   4.410   4.885   1.803
 2785SOL    HW111269   4.470   4.964   1.817
 2785SOL    HW211270   4.324   4.916   1.762
 2786SOL     OW11271   4.059   5.159   1.061
 2786SOL    HW111272   3.981   5.128   1.008
 2786SOL    HW211273   4.117   5.217   1.004
 2787SOL     OW11274   4.330   4.688   0.123
 2787SOL    HW111275   4.337   4.772   0.069
 2787SOL    HW211276   4.376   4.701   0.211
 2788SOL     OW11277   5.017   4.952   1.423
 2788SOL    HW111278   5.054   4.879   1.365
 2788SOL    HW211279   5.069   4.957   1.508
 2789SOL     OW11280   4.533   3.728   0.502
 2789SOL    HW111281   4.573   3.819   0.493
 2789SOL    HW211282   4.433   3.736   0.508
 2790SOL     OW11283   4.041   3.975   1.801
 2790SOL    HW111284   4.112   4.046   1.807
 2790SOL    HW211285   3.953   4.014   1.829
 2791SOL     OW11286   5.005   4.069   0.944
 2791SOL    HW111287   4.919   4.019   0.931
 2791SOL    HW211288   5.067   4.015   1.000
 2792SOL     OW11289   4.697   4.614   1.572
 2792SOL    HW111290   4.743   4.530   1.543
 2792SOL    HW211291   4.641   4.648   1.497
 2793SOL     OW11292   4.715   4.134   1.242
 2793SOL    HW111293   4.638   4.168   1.296
 2793SOL    HW211294   4.681   4.083   1.163
 2794SOL     OW11295   4.765   4.425   0.429
 2794SOL    HW111296   4.791   4.421   0.525
 2794SOL    HW211297   4.680   4.374   0.415
 2795SOL     OW11298   4.274   3.920   0.885
 2795SOL    HW111299   4.269   3.915   0.985
 2795SOL    HW211300   4.276   4.016   0.856
 2796SOL     OW11301   4.045   4.667   0.242
 2796SOL    HW111302   4.127   4.706   0.200
 2796SOL    HW211303   4.018   4.585   0.193
 2797SOL     OW11304   4.106   4.424   0.480
 2797SOL    HW111305   4.151   4.334   0.477
 2797SOL    HW211306   4.012   4.413   0.513
 2798SOL     OW11307   4.505   3.988   1.749
 2798SOL    HW111308   4.572   3.927   1.792
 2798SOL    HW211309   4.432   4.007   1.814
 2799SOL     OW11310   4.527   5.126   0.924
 2799SOL    HW111311   4.617   5.140   0.882
 2799SOL    HW211312   4.456   5.128   0.853
 2800SOL     OW11313   4.646   4.227   0.899
 2800SOL    HW111314   4.621   4.218   0.803
 2800SOL    HW211315   4.694   4.145   0.930
 2801SOL     OW11316   4.659   3.960   0.480
 2801SOL    HW111317   4.611   4.001   0.402
 2801SOL    HW211318   4.758   3.958   0.461
 2802SOL     OW11319   4.800   4.407   1.464
 2802SOL    HW111320   4.720   4.346   1.467
 2802SOL    HW211321   4.881   4.354   1.440
 2803SOL     OW11322   4.951   5.294   0.793
 2803SOL    HW111323   4.972   5.368   0.728
 2803SOL    HW211324   5.019   5.294   0.866
 2804SOL     OW11325   4.183   4.876   0.741
 2804SOL    HW111326   4.112   4.849   0.806
 2804SOL    HW211327   4.157   4.848   0.648
 2805SOL     OW11328   4.756   4.273   0.016
 2805SOL    HW111329   4.715   4.355  -0.023
 2805SOL    HW211330   4.820   4.299   0.089
 2806SOL     OW11331   3.802   4.280   1.386
 2806SOL    HW111332   3.894   4.279   1.345
 2806SOL    HW211333   3.796   4.354   1.453
 2807SOL     OW11334   4.285   3.946   1.147
 2807SOL    HW111335   4.323   3.862   1.184
 2807SOL    HW211336   4.197   3.965   1.191
 2808SOL     OW11337   4.590   4.178   0.642
 2808SOL    HW111338   4.558   4.250   0.580
 2808SOL    HW211339   4.614   4.097   0.589
 2809SOL     OW11340   4.741   3.763   0.753
 2809SOL    HW111341   4.669   3.768   0.684
 2809SOL    HW211342   4.717   3.694   0.822
 2810SOL     OW11343   4.704   4.840   1.719
 2810SOL    HW111344   4.605   4.846   1.729
 2810SOL    HW211345   4.727   4.760   1.663
 2811SOL     OW11346   4.134   4.537   1.251
 2811SOL    HW111347   4.220   4.549   1.301
 2811SOL    HW211348   4.092   4.450   1.278
 2812SOL     OW11349   4.998   4.110   1.262
 2812SOL    HW111350   5.019   4.184   1.326
 2812SOL    HW211351   4.909   4.127   1.219
 2813SOL     OW11352   4.091   4.824   0.501
 2813SOL    HW111353   4.084   4.907   0.445
 2813SOL    HW211354   4.095   4.744   0.441
 2814SOL     OW11355   4.976   5.072   0.388
 2814SOL    HW111356   5.026   5.149   0.428
 2814SOL    HW211357   4.881   5.074   0.420
 2815SOL     OW11358   4.737   3.829   1.770
 2815SOL    HW111359   4.743   3.914   1.718
 2815SOL    HW211360   4.769   3.753   1.713
 2816SOL     OW11361   4.228   3.774   1.740
 2816SOL    HW111362   4.186   3.717   1.670
 2816SOL    HW211363   4.162   3.843   1.772
 2817SOL     OW11364   5.084   4.586   1.045
 2817SOL    HW111365   5.009   4.586   0.979
 2817SOL    HW211366   5.121   4.494   1.054
 2818SOL     OW11367   4.933   4.249   0.275
 2818SOL    HW111368   4.946   4.165   0.329
 2818SOL    HW211369   4.904   4.323   0.335
 2819SOL     OW11370   4.031   3.937   1.231
 2819SOL    HW111371   4.008   3.974   1.321
 2819SOL    HW211372   4.001   3.842   1.225
 2820SOL     OW11373   4.456   4.358   1.064
 2820SOL    HW111374   4.515   4.332   0.988
 2820SOL    HW211375   4.428   4.454   1.053
 2821SOL     OW11376   5.346   4.091   0.374
 2821SOL    HW111377   5.348   4.015   0.438
 2821SOL    HW211378   5.298   4.168   0.414
 2822SOL     OW11379   4.747   4.490   0.966
 2822SOL    HW111380   4.762   4.511   1.062
 2822SOL    HW211381   4.717   4.395   0.957
 2823SOL     OW11382   4.726   4.520   1.238
 2823SOL    HW111383   4.767   4.488   1.324
 2823SOL    HW211384   4.630   4.493   1.235
 2824SOL     OW11385   3.764   4.268   1.114
 2824SOL    HW111386   3.849   4.235   1.073
 2824SOL    HW211387   3.777   4.283   1.212
 2825SOL     OW11388   3.913   4.244   1.722
 2825SOL    HW111389   3.972   4.204   1.652
 2825SOL    HW211390   3.855   4.315   1.681
 2826SOL     OW11391   4.539   4.296   0.325
 2826SOL    HW111392   4.546   4.207   0.279
 2826SOL    HW211393   4.445   4.330   0.317
 2827SOL     OW11394   4.395   4.188   1.269
 2827SOL    HW111395   4.361   4.099   1.239
 2827SOL    HW211396   4.421   4.242   1.189
 2828SOL     OW11397   5.071   4.783   1.234
 2828SOL    HW111398   5.095   4.720   1.160
 2828SOL    HW211399   4.981   4.823   1.216
 2829SOL     OW11400   4.627   3.810   0.133
 2829SOL    HW111401   4.678   3.811   0.047
 2829SOL    HW211402   4.683   3.768   0.204
 2830SOL     OW11403   5.004   4.651   0.672
 2830SOL    HW111404   5.064   4.570   0.674
 2830SOL    HW211405   5.044   4.720   0.612
 2831SOL     OW11406   4.546   4.726   1.372
 2831SOL    HW111407   4.586   4.725   1.280
 2831SOL    HW211408   4.556   4.818   1.412
 2832SOL     OW11409   4.763   4.822   0.696
 2832SOL    HW111410   4.693   4.775   0.750
 2832SOL    HW211411   4.822   4.754   0.653
 2833SOL     OW11412   4.738   3.960   0.971
 2833SOL    HW111413   4.730   3.924   0.878
 2833SOL    HW211414   4.736   3.884   1.036
 2834SOL     OW11415   5.164   4.580   1.398
 2834SOL    HW111416   5.107   4.632   1.335
 2834SOL    HW211417   5.260   4.592   1.374
 2835SOL     OW11418   3.796   3.890   0.318
 2835SOL    HW111419   3.779   3.973   0.264
 2835SOL    HW211420   3.886   3.853   0.296
 2836SOL     OW11421   5.174   4.944   1.633
 2836SOL    HW111422   5.165   4.934   1.732
 2836SOL    HW211423   5.270   4.937   1.607
 2837SOL     OW11424   4.949   4.049   0.449
 2837SOL    HW111425   5.014   3.975   0.438
 2837SOL    HW211426   4.969   4.099   0.533
 2838SOL     OW11427   4.318   4.469   0.652
 2838SOL    HW111428   4.368   4.554   0.633
 2838SOL    HW211429   4.230   4.471   0.604
 2839SOL     OW11430   4.583   4.680   0.861
 2839SOL    HW111431   4.637   4.611   0.909
 2839SOL    HW211432   4.551   4.749   0.927
 2840SOL     OW11433   4.807   4.708   0.087
 2840SOL    HW111434   4.784   4.761   0.005
 2840SOL    HW211435   4.888   4.652   0.068
 2841SOL     OW11436   3.803   4.964   0.653
 2841SOL    HW111437   3.802   4.917   0.741
 2841SOL    HW211438   3.885   4.936   0.602
 2842SOL     OW11439   4.041   4.271   1.280
 2842SOL    HW111440   4.079   4.212   1.352
 2842SOL    HW211441   4.081   4.245   1.192
 2843SOL     OW11442   4.725   3.758   1.154
 2843SOL    HW111443   4.662   3.686   1.123
 2843SOL    HW211444   4.818   3.722   1.154
 2844SOL     OW11445   4.494   5.054   0.301
 2844SOL    HW111446   4.448   4.967   0.318
 2844SOL    HW211447   4.585   5.051   0.342
 2845SOL     OW11448   3.949   3.999   2.858
 2845SOL    HW111449   3.984   3.982   2.950
 2845SOL    HW211450   3.861   3.954   2.846
 2846SOL     OW11451   3.743   4.092   2.509
 2846SOL    HW111452   3.661   4.135   2.548
 2846SOL    HW211453   3.715   4.019   2.446
 2847SOL     OW11454   4.293   4.999   3.027
 2847SOL    HW111455   4.200   4.992   2.990
 2847SOL    HW211456   4.304   5.088   3.071
 2848SOL     OW11457   4.859   4.427   2.579
 2848SOL    HW111458   4.916   4.505   2.554
 2848SOL    HW211459   4.799   4.453   2.655
 2849SOL     OW11460   4.492   4.868   2.885
 2849SOL    HW111461   4.414   4.885   2.945
 2849SOL    HW211462   4.526   4.955   2.849
 2850SOL     OW11463   4.574   4.522   3.685
 2850SOL    HW111464   4.570   4.598   3.750
 2850SOL    HW211465   4.596   4.558   3.594
 2851SOL     OW11466   4.409   4.736   2.527
 2851SOL    HW111467   4.478   4.720   2.597
 2851SOL    HW211468   4.336   4.793   2.565
 2852SOL     OW11469   4.410   4.885   3.665
 2852SOL    HW111470   4.470   4.964   3.679
 2852SOL    HW211471   4.324   4.916   3.624
 2853SOL     OW11472   4.059   5.159   2.923
 2853SOL    HW111473   3.981   5.128   2.870
 2853SOL    HW211474   4.117   5.217   2.866
 2854SOL     OW11475   3.964   4.815   2.748
 2854SOL    HW111476   3.978   4.731   2.800
 2854SOL    HW211477   3.909   4.879   2.803
 2855SOL     OW11478   3.846   4.367   2.425
 2855SOL    HW111479   3.801   4.279   2.442
 2855SOL    HW211480   3.845   4.421   2.509
 2856SOL     OW11481   3.837   4.461   3.459
 2856SOL    HW111482   3.925   4.448   3.504
 2856SOL    HW211483   3.824   4.558   3.437
 2857SOL     OW11484   5.017   4.952   3.285
 2857SOL    HW111485   5.054   4.879   3.227
 2857SOL    HW211486   5.069   4.957   3.370
 2858SOL     OW11487   3.921   4.700   3.126
 2858SOL    HW111488   4.010   4.655   3.112
 2858SOL    HW211489   3.848   4.635   3.107
 2859SOL     OW11490   5.005   4.069   2.806
 2859SOL    HW111491   4.919   4.019   2.793
 2859SOL    HW211492   5.067   4.015   2.862
 2860SOL     OW11493   4.531   4.329   3.327
 2860SOL    HW111494   4.484   4.326   3.416
 2860SOL    HW211495   4.480   4.274   3.261
 2861SOL     OW11496   4.697   4.614   3.434
 2861SOL    HW111497   4.743   4.530   3.405
 2861SOL    HW211498   4.641   4.648   3.359
 2862SOL     OW11499   4.765   4.425   2.291
 2862SOL    HW111500   4.791   4.421   2.387
 2862SOL    HW211501   4.680   4.374   2.277
 2863SOL     OW11502   3.800   4.535   2.651
 2863SOL    HW111503   3.899   4.523   2.660
 2863SOL    HW211504   3.776   4.630   2.672
 2864SOL     OW11505   4.589   4.072   2.057
 2864SOL    HW111506   4.648   4.135   2.008
 2864SOL    HW211507   4.608   3.978   2.028
 2865SOL     OW11508   4.274   3.920   2.747
 2865SOL    HW111509   4.269   3.915   2.847
 2865SOL    HW211510   4.276   4.016   2.718
 2866SOL     OW11511   4.045   4.667   2.104
 2866SOL    HW111512   4.127   4.706   2.062
 2866SOL    HW211513   4.018   4.585   2.055
 2867SOL     OW11514   4.106   4.424   2.342
 2867SOL    HW111515   4.151   4.334   2.339
 2867SOL    HW211516   4.012   4.413   2.375
 2868SOL     OW11517   4.505   3.988   3.611
 2868SOL    HW111518   4.572   3.927   3.654
 2868SOL    HW211519   4.432   4.007   3.676
 2869SOL     OW11520   4.527   5.126   2.786
 2869SOL    HW111521   4.617   5.140   2.744
 2869SOL    HW211522   4.456   5.128   2.715
 2870SOL     OW11523   4.646   4.227   2.761
 2870SOL    HW111524   4.621   4.218   2.665
 2870SOL    HW211525   4.694   4.145   2.792
 2871SOL     OW11526   4.021   3.759   2.033
 2871SOL    HW111527   4.070   3.843   2.012
 2871SOL    HW211528   4.083   3.694   2.078
 2872SOL     OW11529   4.659   3.960   2.342
 2872SOL    HW111530   4.611   4.001   2.264
 2872SOL    HW211531   4.758   3.958   2.323
 2873SOL     OW11532   4.800   4.407   3.326
 2873SOL    HW111533   4.720   4.346   3.329
 2873SOL    HW211534   4.881   4.354   3.302
 2874SOL     OW11535   4.183   4.876   2.603
 2874SOL    HW111536   4.112   4.849   2.668
 2874SOL    HW211537   4.157   4.848   2.510
 2875SOL     OW11538   3.802   4.280   3.248
 2875SOL    HW111539   3.894   4.279   3.207
 2875SOL    HW211540   3.796   4.354   3.315
 2876SOL     OW11541   4.285   3.946   3.009
 2876SOL    HW111542   4.323   3.862   3.046
 2876SOL    HW211543   4.197   3.965   3.053
 2877SOL     OW11544   4.590   4.178   2.504
 2877SOL    HW111545   4.558   4.250   2.442
 2877SOL    HW211546   4.614   4.097   2.451
 2878SOL     OW11547   4.741   3.763   2.615
 2878SOL    HW111548   4.669   3.768   2.546
 2878SOL    HW211549   4.717   3.694   2.684
 2879SOL     OW11550   4.251   3.980   2.190
 2879SOL    HW111551   4.278   3.921   2.115
 2879SOL    HW211552   4.251   4.075   2.159
 2880SOL     OW11553   4.429   4.774   2.230
 2880SOL    HW111554   4.415   4.781   2.329
 2880SOL    HW211555   4.513   4.723   2.212
 2881SOL     OW11556   4.134   4.537   3.113
 2881SOL    HW111557   4.220   4.549   3.163
 2881SOL    HW211558   4.092   4.450   3.140
 2882SOL     OW11559   4.998   4.110   3.124
 2882SOL    HW111560   5.019   4.184   3.188
 2882SOL    HW211561   4.909   4.127   3.081
 2883SOL     OW11562   4.091   4.824   2.363
 2883SOL    HW111563   4.084   4.907   2.307
 2883SOL    HW211564   4.095   4.744   2.303
 2884SOL     OW11565   4.290   4.261   2.727
 2884SOL    HW111566   4.302   4.327   2.653
 2884SOL    HW211567   4.336   4.295   2.810
 2885SOL     OW11568   4.126   4.475   3.460
 2885SOL    HW111569   4.194   4.530   3.413
 2885SOL    HW211570   4.166   4.387   3.487
 2886SOL     OW11571   4.228   3.774   3.602
 2886SOL    HW111572   4.186   3.717   3.532
 2886SOL    HW211573   4.162   3.843   3.634
 2887SOL     OW11574   4.297   4.594   2.891
 2887SOL    HW111575   4.341   4.683   2.882
 2887SOL    HW211576   4.234   4.594   2.968
 2888SOL     OW11577   5.084   4.586   2.907
 2888SOL    HW111578   5.009   4.586   2.841
 2888SOL    HW211579   5.121   4.494   2.916
 2889SOL     OW11580   4.031   3.937   3.093
 2889SOL    HW111581   4.008   3.974   3.183
 2889SOL    HW211582   4.001   3.842   3.087
 2890SOL     OW11583   4.456   4.358   2.926
 2890SOL    HW111584   4.515   4.332   2.850
 2890SOL    HW211585   4.428   4.454   2.915
 2891SOL     OW11586   4.031   3.787   2.480
 2891SOL    HW111587   4.020   3.881   2.513
 2891SOL    HW211588   4.026   3.724   2.557
 2892SOL     OW11589   4.747   4.490   2.828
 2892SOL    HW111590   4.762   4.511   2.924
 2892SOL    HW211591   4.717   4.395   2.819
 2893SOL     OW11592   4.074   4.622   3.666
 2893SOL    HW111593   4.150   4.666   3.714
 2893SOL    HW211594   4.109   4.575   3.584
 2894SOL     OW11595   5.027   4.562   1.904
 2894SOL    HW111596   5.061   4.469   1.919
 2894SOL    HW211597   5.045   4.589   1.809
 2895SOL     OW11598   4.043   4.534   2.811
 2895SOL    HW111599   4.136   4.570   2.816
 2895SOL    HW211600   4.037   4.449   2.863
 2896SOL     OW11601   4.063   4.233   2.868
 2896SOL    HW111602   4.011   4.150   2.851
 2896SOL    HW211603   4.140   4.238   2.804
 2897SOL     OW11604   3.732   5.050   2.062
 2897SOL    HW111605   3.639   5.071   2.031
 2897SOL    HW211606   3.742   4.951   2.075
 2898SOL     OW11607   4.726   4.520   3.100
 2898SOL    HW111608   4.767   4.488   3.186
 2898SOL    HW211609   4.630   4.493   3.097
 2899SOL     OW11610   3.764   4.268   2.976
 2899SOL    HW111611   3.849   4.235   2.935
 2899SOL    HW211612   3.777   4.283   3.074
 2900SOL     OW11613   4.539   4.296   2.187
 2900SOL    HW111614   4.546   4.207   2.141
 2900SOL    HW211615   4.445   4.330   2.179
 2901SOL     OW11616   4.395   4.188   3.131
 2901SOL    HW111617   4.361   4.099   3.101
 2901SOL    HW211618   4.421   4.242   3.051
 2902SOL     OW11619   3.883   4.861   3.328
 2902SOL    HW111620   3.905   4.800   3.404
 2902SOL    HW211621   3.893   4.812   3.242
 2903SOL     OW11622   5.071   4.783   3.096
 2903SOL    HW111623   5.095   4.720   3.022
 2903SOL    HW211624   4.981   4.823   3.078
 2904SOL     OW11625   3.807   4.982   2.884
 2904SOL    HW111626   3.802   4.981   2.984
 2904SOL    HW211627   3.724   4.941   2.846
 2905SOL     OW11628   5.004   4.651   2.534
 2905SOL    HW111629   5.064   4.570   2.536
 2905SOL    HW211630   5.044   4.720   2.474
 2906SOL     OW11631   4.554   4.997   3.284
 2906SOL    HW111632   4.549   5.030   3.379
 2906SOL    HW211633   4.468   5.016   3.238
 2907SOL     OW11634   3.987   4.050   2.582
 2907SOL    HW111635   3.908   4.101   2.548
 2907SOL    HW211636   3.978   4.035   2.680
 2908SOL     OW11637   4.918   5.336   1.893
 2908SOL    HW111638   4.924   5.243   1.930
 2908SOL    HW211639   4.859   5.336   1.813
 2909SOL     OW11640   4.546   4.726   3.234
 2909SOL    HW111641   4.586   4.725   3.142
 2909SOL    HW211642   4.556   4.818   3.274
 2910SOL     OW11643   4.640   4.634   2.153
 2910SOL    HW111644   4.703   4.672   2.085
 2910SOL    HW211645   4.680   4.551   2.192
 2911SOL     OW11646   4.096   5.012   3.352
 2911SOL    HW111647   4.083   5.105   3.318
 2911SOL    HW211648   4.012   4.960   3.339
 2912SOL     OW11649   4.763   4.822   2.558
 2912SOL    HW111650   4.693   4.775   2.612
 2912SOL    HW211651   4.822   4.754   2.515
 2913SOL     OW11652   4.738   3.960   2.833
 2913SOL    HW111653   4.730   3.924   2.740
 2913SOL    HW211654   4.736   3.884   2.898
 2914SOL     OW11655   3.829   4.737   3.588
 2914SOL    HW111656   3.752   4.704   3.642
 2914SOL    HW211657   3.914   4.707   3.630
 2915SOL     OW11658   3.799   4.069   1.895
 2915SOL    HW111659   3.707   4.041   1.866
 2915SOL    HW211660   3.830   4.146   1.839
 2916SOL     OW11661   5.164   4.580   3.260
 2916SOL    HW111662   5.107   4.632   3.197
 2916SOL    HW211663   5.260   4.592   3.236
 2917SOL     OW11664   3.796   3.890   2.180
 2917SOL    HW111665   3.779   3.973   2.126
 2917SOL    HW211666   3.886   3.853   2.158
 2918SOL     OW11667   4.337   4.566   3.293
 2918SOL    HW111668   4.393   4.647   3.276
 2918SOL    HW211669   4.396   4.486   3.296
 2919SOL     OW11670   5.174   4.944   3.495
 2919SOL    HW111671   5.165   4.934   3.594
 2919SOL    HW211672   5.270   4.937   3.469
 2920SOL     OW11673   4.949   4.049   2.311
 2920SOL    HW111674   5.014   3.975   2.300
 2920SOL    HW211675   4.969   4.099   2.395
 2921SOL     OW11676   4.318   4.469   2.514
 2921SOL    HW111677   4.368   4.554   2.495
 2921SOL    HW211678   4.230   4.471   2.466
 2922SOL     OW11679   4.583   4.680   2.723
 2922SOL    HW111680   4.637   4.611   2.771
 2922SOL    HW211681   4.551   4.749   2.789
 2923SOL     OW11682   4.807   4.708   1.949
 2923SOL    HW111683   4.784   4.761   1.867
 2923SOL    HW211684   4.888   4.652   1.930
 2924SOL     OW11685   3.803   4.964   2.515
 2924SOL    HW111686   3.802   4.917   2.603
 2924SOL    HW211687   3.885   4.936   2.464
 2925SOL     OW11688   4.152   4.148   2.382
 2925SOL    HW111689   4.182   4.076   2.320
 2925SOL    HW211690   4.113   4.108   2.465
 2926SOL     OW11691   4.041   4.271   3.142
 2926SOL    HW111692   4.079   4.212   3.214
 2926SOL    HW211693   4.081   4.245   3.054
 2927SOL     OW11694   4.725   3.758   3.016
 2927SOL    HW111695   4.662   3.686   2.985
 2927SOL    HW211696   4.818   3.722   3.016
 2928SOL     OW11697   4.494   5.054   2.163
 2928SOL    HW111698   4.448   4.967   2.180
 2928SOL    HW211699   4.585   5.051   2.204
 2929SOL     OW11700   5.076   3.776   2.030
 2929SOL    HW111701   5.111   3.735   1.946
 2929SOL    HW211702   4.986   3.738   2.050
 2930SOL     OW11703   3.763   4.801   2.162
 2930SOL    HW111704   3.862   4.790   2.153
 2930SOL    HW211705   3.723   4.715   2.194
 2931SOL     OW11706   3.954   4.352   3.837
 2931SOL    HW111707   3.861   4.350   3.874
 2931SOL    HW211708   3.955   4.313   3.745
 2932SOL     OW11709   4.492   4.868   4.747
 2932SOL    HW111710   4.414   4.885   4.807
 2932SOL    HW211711   4.526   4.955   4.711
 2933SOL     OW11712   4.059   5.159   4.785
 2933SOL    HW111713   3.981   5.128   4.732
 2933SOL    HW211714   4.117   5.217   4.728
 2934SOL     OW11715   3.964   4.815   4.610
 2934SOL    HW111716   3.978   4.731   4.662
 2934SOL    HW211717   3.909   4.879   4.665
 2935SOL     OW11718   5.005   4.069   4.668
 2935SOL    HW111719   4.919   4.019   4.655
 2935SOL    HW211720   5.067   4.015   4.724
 2936SOL     OW11721   4.715   4.134   4.966
 2936SOL    HW111722   4.638   4.168   5.020
 2936SOL    HW211723   4.681   4.083   4.887
 2937SOL     OW11724   4.765   4.425   4.153
 2937SOL    HW111725   4.791   4.421   4.249
 2937SOL    HW211726   4.680   4.374   4.139
 2938SOL     OW11727   4.589   4.072   3.919
 2938SOL    HW111728   4.648   4.135   3.870
 2938SOL    HW211729   4.608   3.978   3.890
 2939SOL     OW11730   4.274   3.920   4.609
 2939SOL    HW111731   4.269   3.915   4.709
 2939SOL    HW211732   4.276   4.016   4.580
 2940SOL     OW11733   4.338   3.846   3.841
 2940SOL    HW111734   4.436   3.824   3.848
 2940SOL    HW211735   4.307   3.829   3.748
 2941SOL     OW11736   4.527   5.126   4.648
 2941SOL    HW111737   4.617   5.140   4.606
 2941SOL    HW211738   4.456   5.128   4.577
 2942SOL     OW11739   4.646   4.227   4.623
 2942SOL    HW111740   4.621   4.218   4.527
 2942SOL    HW211741   4.694   4.145   4.654
 2943SOL     OW11742   4.659   3.960   4.204
 2943SOL    HW111743   4.611   4.001   4.126
 2943SOL    HW211744   4.758   3.958   4.185
 2944SOL     OW11745   4.951   5.294   4.517
 2944SOL    HW111746   4.972   5.368   4.452
 2944SOL    HW211747   5.019   5.294   4.590
 2945SOL     OW11748   4.285   3.946   4.871
 2945SOL    HW111749   4.323   3.862   4.908
 2945SOL    HW211750   4.197   3.965   4.915
 2946SOL     OW11751   4.741   3.763   4.477
 2946SOL    HW111752   4.669   3.768   4.408
 2946SOL    HW211753   4.717   3.694   4.546
 2947SOL     OW11754   4.251   3.980   4.052
 2947SOL    HW111755   4.278   3.921   3.977
 2947SOL    HW211756   4.251   4.075   4.021
 2948SOL     OW11757   4.429   4.774   4.092
 2948SOL    HW111758   4.415   4.781   4.191
 2948SOL    HW211759   4.513   4.723   4.074
 2949SOL     OW11760   4.134   4.537   4.975
 2949SOL    HW111761   4.220   4.549   5.025
 2949SOL    HW211762   4.092   4.450   5.002
 2950SOL     OW11763   4.091   4.824   4.225
 2950SOL    HW111764   4.084   4.907   4.169
 2950SOL    HW211765   4.095   4.744   4.165
 2951SOL     OW11766   4.976   5.072   4.112
 2951SOL    HW111767   5.026   5.149   4.152
 2951SOL    HW211768   4.881   5.074   4.144
 2952SOL     OW11769   4.933   4.249   3.999
 2952SOL    HW111770   4.946   4.165   4.053
 2952SOL    HW211771   4.904   4.323   4.059
 2953SOL     OW11772   4.456   4.358   4.788
 2953SOL    HW111773   4.515   4.332   4.712
 2953SOL    HW211774   4.428   4.454   4.777
 2954SOL     OW11775   4.031   3.787   4.342
 2954SOL    HW111776   4.020   3.881   4.375
 2954SOL    HW211777   4.026   3.724   4.419
 2955SOL     OW11778   5.346   4.091   4.098
 2955SOL    HW111779   5.348   4.015   4.162
 2955SOL    HW211780   5.298   4.168   4.138
 2956SOL     OW11781   4.747   4.490   4.690
 2956SOL    HW111782   4.762   4.511   4.786
 2956SOL    HW211783   4.717   4.395   4.681
 2957SOL     OW11784   5.027   4.562   3.766
 2957SOL    HW111785   5.061   4.469   3.781
 2957SOL    HW211786   5.045   4.589   3.671
 2958SOL     OW11787   4.884   3.931   5.201
 2958SOL    HW111788   4.884   3.995   5.278
 2958SOL    HW211789   4.912   3.979   5.118
 2959SOL     OW11790   4.726   4.520   4.962
 2959SOL    HW111791   4.767   4.488   5.048
 2959SOL    HW211792   4.630   4.493   4.959
 2960SOL     OW11793   3.764   4.268   4.838
 2960SOL    HW111794   3.849   4.235   4.797
 2960SOL    HW211795   3.777   4.283   4.936
 2961SOL     OW11796   4.197   4.224   3.915
 2961SOL    HW111797   4.258   4.304   3.919
 2961SOL    HW211798   4.102   4.255   3.922
 2962SOL     OW11799   3.987   4.050   4.444
 2962SOL    HW111800   3.908   4.101   4.410
 2962SOL    HW211801   3.978   4.035   4.542
 2963SOL     OW11802   4.546   4.726   5.096
 2963SOL    HW111803   4.586   4.725   5.004
 2963SOL    HW211804   4.556   4.818   5.136
 2964SOL     OW11805   4.640   4.634   4.015
 2964SOL    HW111806   4.703   4.672   3.947
 2964SOL    HW211807   4.680   4.551   4.054
 2965SOL     OW11808   4.738   3.960   4.695
 2965SOL    HW111809   4.730   3.924   4.602
 2965SOL    HW211810   4.736   3.884   4.760
 2966SOL     OW11811   4.949   4.049   4.173
 2966SOL    HW111812   5.014   3.975   4.162
 2966SOL    HW211813   4.969   4.099   4.257
 2967SOL     OW11814   4.583   4.680   4.585
 2967SOL    HW111815   4.637   4.611   4.633
 2967SOL    HW211816   4.551   4.749   4.651
 2968SOL     OW11817   4.152   4.148   4.244
 2968SOL    HW111818   4.182   4.076   4.182
 2968SOL    HW211819   4.113   4.108   4.327
 2969SOL     OW11820   4.725   3.758   4.878
 2969SOL    HW111821   4.662   3.686   4.847
 2969SOL    HW211822   4.818   3.722   4.878
 2970SOL     OW11823   4.494   5.054   4.025
 2970SOL    HW111824   4.448   4.967   4.042
 2970SOL    HW211825   4.585   5.051   4.066
 2971SOL     OW11826   5.076   3.776   3.892
 2971SOL    HW111827   5.111   3.735   3.808
 2971SOL    HW211828   4.986   3.738   3.912
   5.08970   5.08970   5.08970
