UNITED ATOM STRUCTURE FOR MOLECULE UNK
12299
    0X2IT   H18    1   3.092   2.352   2.583
    0X2IT    N4    2   3.026   2.419   2.548
    0X2IT   H17    3   3.059   2.484   2.478
    0X2IT   C14    4   2.895   2.380   2.546
    0X2IT    O5    5   2.849   2.285   2.607
    0X2IT    O4    6   2.822   2.466   2.469
    0X2IT   C13    7   2.680   2.441   2.463
    0X2IT   C10    8   2.607   2.502   2.584
    0X2IT    C9    9   2.457   2.484   2.578
    0X2IT    C4   10   2.394   2.607   2.582
    0X2IT    C5   11   2.245   2.625   2.577
    0X2IT    O1   12   2.197   2.739   2.585
    0X2IT    C6   13   2.166   2.505   2.564
    0X2IT   C12   14   2.015   2.516   2.558
    0X2IT    C7   15   2.229   2.382   2.561
    0X2IT    C8   16   2.381   2.365   2.567
    0X2IT    O2   17   2.427   2.250   2.559
    0X2IT    N3   18   2.164   2.265   2.551
    0X2IT   H15   19   2.064   2.258   2.544
    0X2IT   H16   20   2.221   2.180   2.548
    0X2IT    N2   21   2.482   2.709   2.599
    0X2IT    C3   22   2.473   2.846   2.546
    0X2IT    C2   23   2.599   2.856   2.461
    0X2IT    H2   24   2.639   2.954   2.435
    0X2IT    N1   25   2.611   2.744   2.365
    0X2IT   H14   26   2.674   2.771   2.289
    0X2IT    C1   27   2.688   2.741   2.491
    0X2IT    H1   28   2.796   2.748   2.490
    0X2IT   C11   29   2.622   2.658   2.600
    0X2IT    O3   30   2.691   2.695   2.718
    0X2IT   C15   31   2.628   2.664   2.843
    1X2IT   H18   32   3.617   1.479   3.543
    1X2IT    N4   33   3.717   1.467   3.542
    1X2IT   H17   34   3.756   1.409   3.469
    1X2IT   C14   35   3.791   1.570   3.592
    1X2IT    O5   36   3.748   1.661   3.661
    1X2IT    O4   37   3.922   1.555   3.558
    1X2IT   C13   38   4.014   1.653   3.610
    1X2IT   C10   39   4.057   1.620   3.753
    1X2IT    C9   40   4.159   1.717   3.809
    1X2IT    C4   41   4.274   1.650   3.846
    1X2IT    C5   42   4.395   1.717   3.904
    1X2IT    O1   43   4.493   1.649   3.938
    1X2IT    C6   44   4.389   1.861   3.918
    1X2IT   C12   45   4.508   1.935   3.975
    1X2IT    C7   46   4.274   1.928   3.881
    1X2IT    C8   47   4.150   1.858   3.823
    1X2IT    O2   48   4.054   1.928   3.790
    1X2IT    N3   49   4.258   2.060   3.892
    1X2IT   H15   50   4.329   2.122   3.927
    1X2IT   H16   51   4.168   2.100   3.861
    1X2IT    N2   52   4.262   1.516   3.831
    1X2IT    C3   53   4.367   1.419   3.795
    1X2IT    C2   54   4.312   1.358   3.666
    1X2IT    H2   55   4.348   1.262   3.632
    1X2IT    N1   56   4.274   1.462   3.567
    1X2IT   H14   57   4.272   1.420   3.474
    1X2IT    C1   58   4.170   1.398   3.650
    1X2IT    H1   59   4.095   1.334   3.605
    1X2IT   C11   60   4.130   1.481   3.771
    1X2IT    O3   61   4.057   1.391   3.852
    1X2IT   C15   62   4.039   1.426   3.990
    2X2IT   H18   63   1.605   0.350   3.111
    2X2IT    N4   64   1.633   0.431   3.059
    2X2IT   H17   65   1.733   0.446   3.046
    2X2IT   C14   66   1.547   0.474   2.962
    2X2IT    O5   67   1.430   0.441   2.953
    2X2IT    O4   68   1.609   0.563   2.880
    2X2IT   C13   69   1.528   0.622   2.777
    2X2IT   C10   70   1.447   0.742   2.830
    2X2IT    C9   71   1.366   0.811   2.723
    2X2IT    C4   72   1.402   0.944   2.714
    2X2IT    C5   73   1.341   1.041   2.617
    2X2IT    O1   74   1.376   1.160   2.619
    2X2IT    C6   75   1.241   0.989   2.527
    2X2IT   C12   76   1.176   1.081   2.427
    2X2IT    C7   77   1.205   0.856   2.537
    2X2IT    C8   78   1.267   0.758   2.637
    2X2IT    O2   79   1.230   0.640   2.633
    2X2IT    N3   80   1.112   0.798   2.459
    2X2IT   H15   81   1.062   0.847   2.387
    2X2IT   H16   82   1.094   0.698   2.474
    2X2IT    N2   83   1.493   0.979   2.809
    2X2IT    C3   84   1.601   1.078   2.798
    2X2IT    C2   85   1.725   0.993   2.822
    2X2IT    H2   86   1.818   1.041   2.853
    2X2IT    N1   87   1.730   0.874   2.734
    2X2IT   H14   88   1.826   0.841   2.728
    2X2IT    C1   89   1.685   0.860   2.874
    2X2IT    H1   90   1.743   0.805   2.946
    2X2IT   C11   91   1.533   0.860   2.889
    2X2IT    O3   92   1.512   0.880   3.028
    2X2IT   C15   93   1.382   0.923   3.068
    3X2IT   H18   94   1.222   1.003   3.717
    3X2IT    N4   95   1.274   1.066   3.659
    3X2IT   H17   96   1.375   1.061   3.664
    3X2IT   C14   97   1.215   1.101   3.541
    3X2IT    O5   98   1.097   1.086   3.514
    3X2IT    O4   99   1.307   1.160   3.459
    3X2IT   C13  100   1.258   1.210   3.333
    3X2IT   C10  101   1.195   1.349   3.347
    3X2IT    C9  102   1.148   1.407   3.216
    3X2IT    C4  103   1.211   1.528   3.192
    3X2IT    C5  104   1.187   1.612   3.070
    3X2IT    O1  105   1.245   1.721   3.058
    3X2IT    C6  106   1.096   1.559   2.972
    3X2IT   C12  107   1.068   1.638   2.845
    3X2IT    C7  108   1.032   1.438   2.996
    3X2IT    C8  109   1.057   1.354   3.122
    3X2IT    O2  110   0.998   1.245   3.131
    3X2IT    N3  111   0.945   1.382   2.912
    3X2IT   H15  112   0.919   1.422   2.823
    3X2IT   H16  113   0.905   1.291   2.939
    3X2IT    N2  114   1.289   1.566   3.296
    3X2IT    C3  115   1.415   1.642   3.291
    3X2IT    C2  116   1.514   1.545   3.354
    3X2IT    H2  117   1.608   1.582   3.395
    3X2IT    N1  118   1.510   1.411   3.290
    3X2IT   H14  119   1.598   1.362   3.309
    3X2IT    C1  120   1.440   1.434   3.418
    3X2IT    H1  121   1.473   1.385   3.509
    3X2IT   C11  122   1.291   1.461   3.402
    3X2IT    O3  123   1.251   1.512   3.527
    3X2IT   C15  124   1.127   1.583   3.533
    4X2IT   H18  125   1.204   4.934   3.865
    4X2IT    N4  126   1.286   4.947   3.809
    4X2IT   H17  127   1.374   4.918   3.849
    4X2IT   C14  128   1.270   4.939   3.674
    4X2IT    O5  129   1.163   4.946   3.615
    4X2IT    O4  130   1.391   4.928   3.612
    4X2IT   C13  131   1.390   4.926   3.468
    4X2IT   C10  132   1.384   5.068   3.410
    4X2IT    C9  133   1.389   5.070   3.259
    4X2IT    C4  134   1.497   5.145   3.216
    4X2IT    C5  135   1.531   5.167   3.071
    4X2IT    O1  136   1.628   5.240   3.042
    4X2IT    C6  137   1.447   5.102   2.974
    4X2IT   C12  138   1.477   5.120   2.827
    4X2IT    C7  139   1.339   5.028   3.017
    4X2IT    C8  140   1.304   5.007   3.165
    4X2IT    O2  141   1.207   4.934   3.192
    4X2IT    N3  142   1.254   4.965   2.934
    4X2IT   H15  143   1.263   4.967   2.834
    4X2IT   H16  144   1.178   4.911   2.977
    4X2IT    N2  145   1.563   5.204   3.319
    4X2IT    C3  146   1.707   5.232   3.330
    4X2IT    C2  147   1.747   5.152   3.453
    4X2IT    H2  148   1.838   5.177   3.507
    4X2IT    N1  149   1.703   5.010   3.444
    4X2IT   H14  150   1.760   4.953   3.508
    4X2IT    C1  151   1.624   5.106   3.524
    4X2IT    H1  152   1.618   5.097   3.631
    4X2IT   C11  153   1.504   5.162   3.449
    4X2IT    O3  154   1.463   5.273   3.527
    4X2IT   C15  155   1.378   5.369   3.464
    5X2IT   H18  156  -0.031   1.970   2.306
    5X2IT    N4  157   0.021   1.909   2.245
    5X2IT   H17  158   0.056   1.823   2.284
    5X2IT   C14  159  -0.014   1.913   2.112
    5X2IT    O5  160  -0.080   2.001   2.060
    5X2IT    O4  161   0.041   1.807   2.047
    5X2IT   C13  162   0.019   1.801   1.904
    5X2IT   C10  163   0.120   1.889   1.828
    5X2IT    C9  164   0.105   1.880   1.678
    5X2IT    C4  165   0.222   1.837   1.620
    5X2IT    C5  166   0.241   1.817   1.473
    5X2IT    O1  167   0.351   1.782   1.429
    5X2IT    C6  168   0.126   1.842   1.389
    5X2IT   C12  169   0.137   1.824   1.239
    5X2IT    C7  170   0.008   1.887   1.447
    5X2IT    C8  171  -0.009   1.907   1.598
    5X2IT    O2  172  -0.120   1.943   1.639
    5X2IT    N3  173  -0.103   1.914   1.378
    5X2IT   H15  174  -0.110   1.904   1.278
    5X2IT   H16  175  -0.185   1.945   1.431
    5X2IT    N2  176   0.322   1.822   1.712
    5X2IT    C3  177   0.431   1.724   1.711
    5X2IT    C2  178   0.408   1.649   1.841
    5X2IT    H2  179   0.490   1.592   1.886
    5X2IT    N1  180   0.269   1.599   1.853
    5X2IT   H14  181   0.266   1.523   1.921
    5X2IT    C1  182   0.309   1.723   1.924
    5X2IT    H1  183   0.313   1.726   2.032
    5X2IT   C11  184   0.271   1.850   1.849
    5X2IT    O3  185   0.346   1.951   1.914
    5X2IT   C15  186   0.363   2.075   1.843
    6X2IT   H18  187   3.668   3.152   0.261
    6X2IT    N4  188   3.670   3.062   0.304
    6X2IT   H17  189   3.744   2.999   0.276
    6X2IT   C14  190   3.621   3.053   0.431
    6X2IT    O5  191   3.551   3.137   0.485
    6X2IT    O4  192   3.658   2.935   0.488
    6X2IT   C13  193   3.608   2.909   0.621
    6X2IT   C10  194   3.465   2.852   0.616
    6X2IT    C9  195   3.411   2.817   0.753
    6X2IT    C4  196   3.377   2.683   0.759
    6X2IT    C5  197   3.321   2.616   0.881
    6X2IT    O1  198   3.289   2.496   0.875
    6X2IT    C6  199   3.307   2.698   0.999
    6X2IT   C12  200   3.251   2.636   1.125
    6X2IT    C7  201   3.340   2.832   0.993
    6X2IT    C8  202   3.396   2.899   0.868
    6X2IT    O2  203   3.427   3.019   0.875
    6X2IT    N3  204   3.328   2.916   1.097
    6X2IT   H15  205   3.295   2.888   1.187
    6X2IT   H16  206   3.358   3.013   1.082
    6X2IT    N2  207   3.392   2.622   0.638
    6X2IT    C3  208   3.431   2.482   0.613
    6X2IT    C2  209   3.559   2.499   0.531
    6X2IT    H2  210   3.594   2.417   0.469
    6X2IT    N1  211   3.656   2.588   0.598
    6X2IT   H14  212   3.750   2.569   0.561
    6X2IT    C1  213   3.572   2.640   0.489
    6X2IT    H1  214   3.616   2.670   0.395
    6X2IT   C11  215   3.450   2.716   0.538
    6X2IT    O3  216   3.368   2.727   0.423
    6X2IT   C15  217   3.230   2.759   0.445
    7X2IT   H18  218   1.616   5.038   1.240
    7X2IT    N4  219   1.630   5.000   1.331
    7X2IT   H17  220   1.665   5.062   1.403
    7X2IT   C14  221   1.546   4.898   1.367
    7X2IT    O5  222   1.477   4.833   1.290
    7X2IT    O4  223   1.554   4.876   1.502
    7X2IT   C13  224   1.475   4.766   1.553
    7X2IT   C10  225   1.549   4.632   1.537
    7X2IT    C9  226   1.473   4.515   1.596
    7X2IT    C4  227   1.550   4.452   1.691
    7X2IT    C5  228   1.504   4.333   1.770
    7X2IT    O1  229   1.581   4.280   1.851
    7X2IT    C6  230   1.370   4.286   1.744
    7X2IT   C12  231   1.317   4.166   1.820
    7X2IT    C7  232   1.293   4.349   1.648
    7X2IT    C8  233   1.342   4.470   1.568
    7X2IT    O2  234   1.263   4.521   1.487
    7X2IT    N3  235   1.168   4.311   1.615
    7X2IT   H15  236   1.121   4.235   1.659
    7X2IT   H16  237   1.120   4.366   1.543
    7X2IT    N2  238   1.674   4.505   1.700
    7X2IT    C3  239   1.759   4.517   1.820
    7X2IT    C2  240   1.780   4.668   1.830
    7X2IT    H2  241   1.864   4.707   1.887
    7X2IT    N1  242   1.652   4.742   1.826
    7X2IT   H14  243   1.665   4.835   1.867
    7X2IT    C1  244   1.734   4.732   1.704
    7X2IT    H1  245   1.782   4.820   1.662
    7X2IT   C11  246   1.688   4.622   1.609
    7X2IT    O3  247   1.796   4.607   1.519
    7X2IT   C15  248   1.801   4.486   1.442
    8X2IT   H18  249   4.539   1.375   0.923
    8X2IT    N4  250   4.452   1.375   0.873
    8X2IT   H17  251   4.372   1.414   0.921
    8X2IT   C14  252   4.459   1.385   0.737
    8X2IT    O5  253   4.559   1.366   0.670
    8X2IT    O4  254   4.336   1.416   0.686
    8X2IT   C13  255   4.327   1.423   0.542
    8X2IT   C10  256   4.308   1.284   0.480
    8X2IT    C9  257   4.292   1.288   0.329
    8X2IT    C4  258   4.172   1.230   0.293
    8X2IT    C5  259   4.123   1.218   0.151
    8X2IT    O1  260   4.016   1.161   0.128
    8X2IT    C6  261   4.209   1.275   0.050
    8X2IT   C12  262   4.166   1.267  -0.096
    8X2IT    C7  263   4.329   1.332   0.086
    8X2IT    C8  264   4.377   1.343   0.231
    8X2IT    O2  265   4.485   1.400   0.252
    8X2IT    N3  266   4.416   1.386  -0.002
    8X2IT   H15  267   4.399   1.389  -0.101
    8X2IT   H16  268   4.501   1.427   0.036
    8X2IT    N2  269   4.106   1.178   0.400
    8X2IT    C3  270   3.961   1.169   0.421
    8X2IT    C2  271   3.942   1.249   0.549
    8X2IT    H2  272   3.852   1.235   0.609
    8X2IT    N1  273   4.004   1.383   0.541
    8X2IT   H14  274   3.961   1.445   0.610
    8X2IT    C1  275   4.074   1.275   0.611
    8X2IT    H1  276   4.089   1.279   0.718
    8X2IT   C11  277   4.180   1.206   0.526
    8X2IT    O3  278   4.210   1.087   0.597
    8X2IT   C15  279   4.277   0.983   0.525
    9X2IT   H18  280   2.935   4.786   1.216
    9X2IT    N4  281   2.848   4.810   1.173
    9X2IT   H17  282   2.764   4.793   1.228
    9X2IT   C14  283   2.849   4.913   1.084
    9X2IT    O5  284   2.949   4.959   1.032
    9X2IT    O4  285   2.722   4.954   1.058
    9X2IT   C13  286   2.708   5.059   0.959
    9X2IT   C10  287   2.709   5.002   0.816
    9X2IT    C9  288   2.687   5.108   0.710
    9X2IT    C4  289   2.576   5.077   0.634
    9X2IT    C5  290   2.526   5.162   0.520
    9X2IT    O1  291   2.428   5.124   0.455
    9X2IT    C6  292   2.599   5.284   0.494
    9X2IT   C12  293   2.554   5.374   0.382
    9X2IT    C7  294   2.710   5.314   0.570
    9X2IT    C8  295   2.761   5.226   0.685
    9X2IT    O2  296   2.859   5.266   0.750
    9X2IT    N3  297   2.785   5.424   0.552
    9X2IT   H15  298   2.765   5.494   0.483
    9X2IT   H16  299   2.865   5.437   0.616
    9X2IT    N2  300   2.522   4.957   0.668
    9X2IT    C3  301   2.381   4.917   0.665
    9X2IT    C2  302   2.354   4.882   0.810
    9X2IT    H2  303   2.269   4.818   0.836
    9X2IT    N1  304   2.394   4.990   0.903
    9X2IT   H14  305   2.345   4.980   0.992
    9X2IT    C1  306   2.482   4.874   0.884
    9X2IT    H1  307   2.500   4.804   0.965
    9X2IT   C11  308   2.595   4.898   0.784
    9X2IT    O3  309   2.644   4.769   0.756
    9X2IT   C15  310   2.724   4.754   0.637
   10X2IT   H18  311   1.108   3.226   3.140
   10X2IT    N4  312   1.065   3.157   3.081
   10X2IT   H17  313   0.981   3.113   3.117
   10X2IT   C14  314   1.079   3.174   2.946
   10X2IT    O5  315   1.161   3.247   2.893
   10X2IT    O4  316   0.991   3.093   2.880
   10X2IT   C13  317   1.000   3.095   2.736
   10X2IT   C10  318   1.111   3.002   2.684
   10X2IT    C9  319   1.118   2.996   2.533
   10X2IT    C4  320   1.101   2.866   2.490
   10X2IT    C5  321   1.102   2.825   2.345
   10X2IT    O1  322   1.091   2.705   2.316
   10X2IT    C6  323   1.119   2.931   2.249
   10X2IT   C12  324   1.121   2.896   2.101
   10X2IT    C7  325   1.136   3.061   2.292
   10X2IT    C8  326   1.136   3.101   2.440
   10X2IT    O2  327   1.148   3.221   2.468
   10X2IT    N3  328   1.154   3.165   2.210
   10X2IT   H15  329   1.155   3.157   2.110
   10X2IT   H16  330   1.165   3.257   2.253
   10X2IT    N2  331   1.092   2.778   2.593
   10X2IT    C3  332   1.013   2.654   2.599
   10X2IT    C2  333   0.920   2.681   2.717
   10X2IT    H2  334   0.872   2.597   2.768
   10X2IT    N1  335   0.848   2.809   2.703
   10X2IT   H14  336   0.764   2.807   2.762
   10X2IT    C1  337   0.967   2.801   2.790
   10X2IT    H1  338   0.957   2.812   2.898
   10X2IT   C11  339   1.094   2.850   2.724
   10X2IT    O3  340   1.198   2.803   2.808
   10X2IT   C15  341   1.330   2.800   2.753
   11X2IT   H18  342   3.951   4.490   3.685
   11X2IT    N4  343   4.032   4.431   3.685
   11X2IT   H17  344   4.041   4.364   3.610
   11X2IT   C14  345   4.146   4.485   3.739
   11X2IT    O5  346   4.149   4.584   3.811
   11X2IT    O4  347   4.254   4.410   3.706
   11X2IT   C13  348   4.381   4.451   3.762
   11X2IT   C10  349   4.399   4.397   3.905
   11X2IT    C9  350   4.533   4.433   3.965
   11X2IT    C4  351   4.601   4.318   4.001
   11X2IT    C5  352   4.738   4.318   4.062
   11X2IT    O1  353   4.790   4.210   4.095
   11X2IT    C6  354   4.801   4.446   4.081
   11X2IT   C12  355   4.939   4.453   4.142
   11X2IT    C7  356   4.732   4.561   4.046
   11X2IT    C8  357   4.593   4.560   3.984
   11X2IT    O2  358   4.542   4.669   3.952
   11X2IT    N3  359   4.782   4.685   4.061
   11X2IT   H15  360   4.873   4.704   4.098
   11X2IT   H16  361   4.723   4.763   4.030
   11X2IT    N2  362   4.527   4.206   3.981
   11X2IT    C3  363   4.573   4.072   3.943
   11X2IT    C2  364   4.500   4.048   3.812
   11X2IT    H2  365   4.486   3.947   3.775
   11X2IT    N1  366   4.519   4.160   3.716
   11X2IT   H14  367   4.499   4.127   3.621
   11X2IT    C1  368   4.394   4.152   3.795
   11X2IT    H1  369   4.299   4.132   3.747
   11X2IT   C11  370   4.396   4.240   3.919
   11X2IT    O3  371   4.287   4.194   3.996
   11X2IT   C15  372   4.284   4.230   4.134
   12X2IT   H18  373   4.878   1.581   2.488
   12X2IT    N4  374   4.785   1.573   2.526
   12X2IT   H17  375   4.743   1.658   2.562
   12X2IT   C14  376   4.705   1.477   2.472
   12X2IT    O5  377   4.744   1.384   2.403
   12X2IT    O4  378   4.576   1.497   2.510
   12X2IT   C13  379   4.480   1.398   2.466
   12X2IT   C10  380   4.479   1.276   2.559
   12X2IT    C9  381   4.375   1.173   2.519
   12X2IT    C4  382   4.288   1.151   2.624
   12X2IT    C5  383   4.172   1.055   2.618
   12X2IT    O1  384   4.101   1.039   2.719
   12X2IT    C6  385   4.152   0.986   2.493
   12X2IT   C12  386   4.037   0.889   2.480
   12X2IT    C7  387   4.240   1.008   2.389
   12X2IT    C8  388   4.358   1.105   2.396
   12X2IT    O2  389   4.428   1.120   2.295
   12X2IT    N3  390   4.230   0.947   2.270
   12X2IT   H15  391   4.157   0.881   2.247
   12X2IT   H16  392   4.300   0.971   2.199
   12X2IT    N2  393   4.323   1.220   2.736
   12X2IT    C3  394   4.235   1.278   2.838
   12X2IT    C2  395   4.270   1.426   2.831
   12X2IT    H2  396   4.247   1.491   2.916
   12X2IT    N1  397   4.262   1.479   2.693
   12X2IT   H14  398   4.251   1.581   2.697
   12X2IT    C1  399   4.393   1.444   2.751
   12X2IT    H1  400   4.467   1.520   2.771
   12X2IT   C11  401   4.442   1.306   2.709
   12X2IT    O3  402   4.548   1.278   2.798
   12X2IT   C15  403   4.590   1.142   2.810
   13X2IT   H18  404   2.854   4.332   4.485
   13X2IT    N4  405   2.830   4.253   4.541
   13X2IT   H17  406   2.876   4.166   4.520
   13X2IT   C14  407   2.794   4.280   4.671
   13X2IT    O5  408   2.762   4.389   4.713
   13X2IT    O4  409   2.794   4.165   4.744
   13X2IT   C13  410   2.751   4.176   4.881
   13X2IT   C10  411   2.598   4.172   4.892
   13X2IT    C9  412   2.549   4.177   5.035
   13X2IT    C4  413   2.472   4.065   5.063
   13X2IT    C5  414   2.409   4.039   5.197
   13X2IT    O1  415   2.339   3.938   5.212
   13X2IT    C6  416   2.434   4.135   5.301
   13X2IT   C12  417   2.374   4.114   5.438
   13X2IT    C7  418   2.510   4.247   5.272
   13X2IT    C8  419   2.574   4.274   5.136
   13X2IT    O2  420   2.644   4.375   5.123
   13X2IT    N3  421   2.538   4.344   5.362
   13X2IT   H15  422   2.506   4.341   5.457
   13X2IT   H16  423   2.596   4.421   5.330
   13X2IT    N2  424   2.454   3.987   4.954
   13X2IT    C3  425   2.441   3.840   4.949
   13X2IT    C2  426   2.559   3.800   4.861
   13X2IT    H2  427   2.558   3.703   4.811
   13X2IT    N1  428   2.687   3.858   4.908
   13X2IT   H14  429   2.765   3.803   4.870
   13X2IT    C1  430   2.615   3.921   4.796
   13X2IT    H1  431   2.657   3.921   4.696
   13X2IT   C11  432   2.530   4.041   4.838
   13X2IT    O3  433   2.446   4.064   4.726
   13X2IT   C15  434   2.329   4.144   4.748
   14X2IT   H18  435   5.021   0.076   2.511
   14X2IT    N4  436   5.005   0.081   2.412
   14X2IT   H17  437   5.086   0.094   2.353
   14X2IT   C14  438   4.898   0.010   2.364
   14X2IT    O5  439   4.807  -0.034   2.432
   14X2IT    O4  440   4.906   0.001   2.228
   14X2IT   C13  441   4.796  -0.066   2.162
   14X2IT   C10  442   4.678   0.030   2.139
   14X2IT    C9  443   4.563  -0.033   2.065
   14X2IT    C4  444   4.537   0.037   1.949
   14X2IT    C5  445   4.429  -0.000   1.851
   14X2IT    O1  446   4.410   0.071   1.751
   14X2IT    C6  447   4.353  -0.119   1.881
   14X2IT   C12  448   4.243  -0.163   1.786
   14X2IT    C7  449   4.379  -0.189   1.998
   14X2IT    C8  450   4.488  -0.149   2.097
   14X2IT    O2  451   4.506  -0.222   2.196
   14X2IT    N3  452   4.312  -0.299   2.035
   14X2IT   H15  453   4.238  -0.340   1.981
   14X2IT   H16  454   4.341  -0.343   2.123
   14X2IT    N2  455   4.614   0.148   1.937
   14X2IT    C3  456   4.667   0.210   1.814
   14X2IT    C2  457   4.817   0.203   1.837
   14X2IT    H2  458   4.883   0.269   1.781
   14X2IT    N1  459   4.863   0.067   1.873
   14X2IT   H14  460   4.963   0.059   1.853
   14X2IT    C1  461   4.844   0.168   1.979
   14X2IT    H1  462   4.929   0.207   2.034
   14X2IT   C11  463   4.711   0.156   2.050
   14X2IT    O3  464   4.699   0.278   2.121
   14X2IT   C15  465   4.568   0.315   2.168
   15X2IT   H18  466   2.476   3.306   4.137
   15X2IT    N4  467   2.392   3.321   4.190
   15X2IT   H17  468   2.352   3.241   4.237
   15X2IT   C14  469   2.375   3.445   4.243
   15X2IT    O5  470   2.438   3.545   4.211
   15X2IT    O4  471   2.275   3.443   4.336
   15X2IT   C13  472   2.241   3.570   4.396
   15X2IT   C10  473   2.146   3.651   4.307
   15X2IT    C9  474   2.102   3.782   4.370
   15X2IT    C4  475   1.965   3.786   4.381
   15X2IT    C5  476   1.889   3.902   4.440
   15X2IT    O1  477   1.765   3.899   4.442
   15X2IT    C6  478   1.968   4.012   4.490
   15X2IT   C12  479   1.898   4.131   4.551
   15X2IT    C7  480   2.106   4.007   4.478
   15X2IT    C8  481   2.182   3.889   4.417
   15X2IT    O2  482   2.306   3.894   4.415
   15X2IT    N3  483   2.188   4.105   4.520
   15X2IT   H15  484   2.155   4.189   4.564
   15X2IT   H16  485   2.288   4.091   4.508
   15X2IT    N2  486   1.905   3.678   4.325
   15X2IT    C3  487   1.782   3.610   4.368
   15X2IT    C2  488   1.831   3.469   4.398
   15X2IT    H2  489   1.760   3.387   4.401
   15X2IT    N1  490   1.946   3.469   4.491
   15X2IT   H14  491   1.954   3.377   4.536
   15X2IT    C1  492   1.968   3.452   4.346
   15X2IT    H1  493   2.005   3.359   4.306
   15X2IT   C11  494   2.008   3.582   4.275
   15X2IT    O3  495   1.991   3.552   4.138
   15X2IT   C15  496   1.983   3.664   4.048
   16X2IT   H18  497   0.322   2.114   4.222
   16X2IT    N4  498   0.342   2.195   4.165
   16X2IT   H17  499   0.393   2.270   4.208
   16X2IT   C14  500   0.358   2.172   4.031
   16X2IT    O5  501   0.323   2.071   3.972
   16X2IT    O4  502   0.415   2.281   3.971
   16X2IT   C13  503   0.431   2.274   3.828
   16X2IT   C10  504   0.302   2.312   3.754
   16X2IT    C9  505   0.317   2.312   3.604
   16X2IT    C4  506   0.286   2.437   3.553
   16X2IT    C5  507   0.292   2.472   3.407
   16X2IT    O1  508   0.258   2.585   3.370
   16X2IT    C6  509   0.336   2.368   3.318
   16X2IT   C12  510   0.344   2.396   3.169
   16X2IT    C7  511   0.366   2.243   3.369
   16X2IT    C8  512   0.359   2.208   3.518
   16X2IT    O2  513   0.393   2.094   3.553
   16X2IT    N3  514   0.406   2.139   3.293
   16X2IT   H15  515   0.418   2.145   3.194
   16X2IT   H16  516   0.428   2.052   3.342
   16X2IT    N2  517   0.242   2.522   3.650
   16X2IT    C3  518   0.261   2.668   3.657
   16X2IT    C2  519   0.336   2.684   3.789
   16X2IT    H2  520   0.336   2.780   3.839
   16X2IT    N1  521   0.456   2.597   3.795
   16X2IT   H14  522   0.521   2.634   3.865
   16X2IT    C1  523   0.332   2.556   3.864
   16X2IT    H1  524   0.327   2.551   3.972
   16X2IT   C11  525   0.248   2.457   3.784
   16X2IT    O3  526   0.122   2.458   3.849
   16X2IT   C15  527   0.011   2.405   3.776
   17X2IT   H18  528   3.064   0.505   1.689
   17X2IT    N4  529   3.164   0.504   1.683
   17X2IT   H17  530   3.215   0.535   1.764
   17X2IT   C14  531   3.219   0.409   1.601
   17X2IT    O5  532   3.159   0.346   1.516
   17X2IT    O4  533   3.353   0.399   1.626
   17X2IT   C13  534   3.427   0.307   1.543
   17X2IT   C10  535   3.466   0.372   1.409
   17X2IT    C9  536   3.549   0.281   1.321
   17X2IT    C4  537   3.670   0.341   1.292
   17X2IT    C5  538   3.777   0.277   1.208
   17X2IT    O1  539   3.881   0.340   1.183
   17X2IT    C6  540   3.749   0.144   1.158
   17X2IT   C12  541   3.853   0.074   1.073
   17X2IT    C7  542   3.628   0.085   1.187
   17X2IT    C8  543   3.520   0.151   1.273
   17X2IT    O2  544   3.416   0.087   1.296
   17X2IT    N3  545   3.592  -0.037   1.144
   17X2IT   H15  546   3.652  -0.096   1.089
   17X2IT   H16  547   3.500  -0.072   1.173
   17X2IT    N2  548   3.678   0.467   1.342
   17X2IT    C3  549   3.798   0.537   1.391
   17X2IT    C2  550   3.760   0.567   1.536
   17X2IT    H2  551   3.812   0.646   1.590
   17X2IT    N1  552   3.714   0.446   1.608
   17X2IT   H14  553   3.723   0.462   1.709
   17X2IT    C1  554   3.615   0.542   1.555
   17X2IT    H1  555   3.553   0.601   1.621
   17X2IT   C11  556   3.556   0.500   1.420
   17X2IT    O3  557   3.493   0.617   1.373
   17X2IT   C15  558   3.462   0.622   1.233
   18X2IT   H18  559   1.945   3.346   3.288
   18X2IT    N4  560   1.854   3.385   3.303
   18X2IT   H17  561   1.779   3.351   3.245
   18X2IT   C14  562   1.827   3.427   3.430
   18X2IT    O5  563   1.910   3.446   3.517
   18X2IT    O4  564   1.692   3.448   3.444
   18X2IT   C13  565   1.649   3.499   3.572
   18X2IT   C10  566   1.664   3.652   3.580
   18X2IT    C9  567   1.613   3.710   3.710
   18X2IT    C4  568   1.515   3.803   3.685
   18X2IT    C5  569   1.442   3.879   3.792
   18X2IT    O1  570   1.358   3.964   3.760
   18X2IT    C6  571   1.478   3.848   3.928
   18X2IT   C12  572   1.409   3.921   4.042
   18X2IT    C7  573   1.577   3.756   3.953
   18X2IT    C8  574   1.651   3.679   3.843
   18X2IT    O2  575   1.735   3.595   3.877
   18X2IT    N3  576   1.619   3.721   4.076
   18X2IT   H15  577   1.580   3.760   4.160
   18X2IT   H16  578   1.692   3.650   4.083
   18X2IT    N2  579   1.497   3.824   3.552
   18X2IT    C3  580   1.372   3.857   3.482
   18X2IT    C2  581   1.357   3.741   3.385
   18X2IT    H2  582   1.293   3.751   3.297
   18X2IT    N1  583   1.366   3.610   3.454
   18X2IT   H14  584   1.322   3.538   3.396
   18X2IT    C1  585   1.483   3.663   3.381
   18X2IT    H1  586   1.520   3.615   3.292
   18X2IT   C11  587   1.583   3.733   3.472
   18X2IT    O3  588   1.667   3.804   3.383
   18X2IT   C15  589   1.747   3.910   3.438
   19X2IT   H18  590   3.842   1.189   4.790
   19X2IT    N4  591   3.786   1.265   4.755
   19X2IT   H17  592   3.798   1.355   4.799
   19X2IT   C14  593   3.751   1.259   4.623
   19X2IT    O5  594   3.758   1.160   4.553
   19X2IT    O4  595   3.703   1.381   4.582
   19X2IT   C13  596   3.656   1.388   4.446
   19X2IT   C10  597   3.511   1.337   4.434
   19X2IT    C9  598   3.456   1.349   4.294
   19X2IT    C4  599   3.341   1.427   4.294
   19X2IT    C5  600   3.261   1.460   4.171
   19X2IT    O1  601   3.158   1.527   4.182
   19X2IT    C6  602   3.312   1.408   4.046
   19X2IT   C12  603   3.236   1.438   3.918
   19X2IT    C7  604   3.425   1.330   4.046
   19X2IT    C8  605   3.505   1.296   4.172
   19X2IT    O2  606   3.609   1.229   4.159
   19X2IT    N3  607   3.479   1.276   3.935
   19X2IT   H15  608   3.440   1.290   3.843
   19X2IT   H16  609   3.564   1.221   3.946
   19X2IT    N2  610   3.305   1.463   4.420
   19X2IT    C3  611   3.239   1.588   4.463
   19X2IT    C2  612   3.341   1.646   4.560
   19X2IT    H2  613   3.309   1.720   4.633
   19X2IT    N1  614   3.477   1.654   4.501
   19X2IT   H14  615   3.532   1.723   4.553
   19X2IT    C1  616   3.443   1.543   4.592
   19X2IT    H1  617   3.490   1.535   4.690
   19X2IT   C11  618   3.405   1.415   4.520
   19X2IT    O3  619   3.345   1.335   4.620
   19X2IT   C15  620   3.264   1.225   4.576
   20X2IT   H18  621   0.908   0.271   2.480
   20X2IT    N4  622   0.847   0.340   2.521
   20X2IT   H17  623   0.773   0.376   2.463
   20X2IT   C14  624   0.829   0.332   2.656
   20X2IT    O5  625   0.899   0.269   2.733
   20X2IT    O4  626   0.723   0.410   2.693
   20X2IT   C13  627   0.696   0.417   2.835
   20X2IT   C10  628   0.785   0.522   2.904
   20X2IT    C9  629   0.754   0.537   3.051
   20X2IT    C4  630   0.720   0.668   3.080
   20X2IT    C5  631   0.683   0.717   3.217
   20X2IT    O1  632   0.658   0.837   3.233
   20X2IT    C6  633   0.681   0.619   3.322
   20X2IT   C12  634   0.644   0.662   3.463
   20X2IT    C7  635   0.716   0.488   3.294
   20X2IT    C8  636   0.755   0.439   3.154
   20X2IT    O2  637   0.780   0.319   3.139
   20X2IT    N3  638   0.719   0.390   3.386
   20X2IT   H15  639   0.695   0.404   3.482
   20X2IT   H16  640   0.745   0.297   3.353
   20X2IT    N2  641   0.732   0.748   2.971
   20X2IT    C3  642   0.650   0.866   2.936
   20X2IT    C2  643   0.590   0.826   2.802
   20X2IT    H2  644   0.552   0.902   2.735
   20X2IT    N1  645   0.524   0.693   2.808
   20X2IT   H14  646   0.458   0.685   2.730
   20X2IT    C1  647   0.660   0.705   2.751
   20X2IT    H1  648   0.678   0.687   2.646
   20X2IT   C11  649   0.770   0.669   2.851
   20X2IT    O3  650   0.888   0.718   2.790
   20X2IT   C15  651   1.003   0.735   2.875
   21X2IT   H18  652   4.506   2.615   2.428
   21X2IT    N4  653   4.470   2.687   2.368
   21X2IT   H17  654   4.446   2.775   2.410
   21X2IT   C14  655   4.512   2.685   2.238
   21X2IT    O5  656   4.567   2.591   2.183
   21X2IT    O4  657   4.480   2.803   2.177
   21X2IT   C13  658   4.513   2.813   2.037
   21X2IT   C10  659   4.405   2.748   1.948
   21X2IT    C9  660   4.433   2.763   1.800
   21X2IT    C4  661   4.328   2.828   1.739
   21X2IT    C5  662   4.324   2.860   1.592
   21X2IT    O1  663   4.224   2.916   1.544
   21X2IT    C6  664   4.439   2.821   1.514
   21X2IT   C12  665   4.441   2.850   1.365
   21X2IT    C7  666   4.543   2.754   1.576
   21X2IT    C8  667   4.546   2.722   1.726
   21X2IT    O2  668   4.646   2.666   1.771
   21X2IT    N3  669   4.653   2.712   1.512
   21X2IT   H15  670   4.669   2.727   1.414
   21X2IT   H16  671   4.725   2.665   1.568
   21X2IT    N2  672   4.226   2.854   1.824
   21X2IT    C3  673   4.134   2.969   1.824
   21X2IT    C2  674   4.160   3.032   1.960
   21X2IT    H2  675   4.085   3.098   2.004
   21X2IT    N1  676   4.304   3.057   1.984
   21X2IT   H14  677   4.314   3.128   2.057
   21X2IT    C1  678   4.239   2.938   2.043
   21X2IT    H1  679   4.227   2.929   2.150
   21X2IT   C11  680   4.261   2.811   1.962
   21X2IT    O3  681   4.166   2.720   2.015
   21X2IT   C15  682   4.135   2.605   1.936
   22X2IT   H18  683   3.100   4.861   3.592
   22X2IT    N4  684   3.000   4.859   3.605
   22X2IT   H17  685   2.954   4.948   3.622
   22X2IT   C14  686   2.932   4.761   3.539
   22X2IT    O5  687   2.982   4.661   3.490
   22X2IT    O4  688   2.798   4.788   3.539
   22X2IT   C13  689   2.713   4.689   3.479
   22X2IT   C10  690   2.680   4.575   3.577
   22X2IT    C9  691   2.585   4.473   3.519
   22X2IT    C4  692   2.472   4.463   3.598
   22X2IT    C5  693   2.357   4.370   3.569
   22X2IT    O1  694   2.262   4.365   3.648
   22X2IT    C6  695   2.367   4.292   3.449
   22X2IT   C12  696   2.255   4.197   3.413
   22X2IT    C7  697   2.481   4.301   3.370
   22X2IT    C8  698   2.597   4.395   3.401
   22X2IT    O2  699   2.692   4.399   3.321
   22X2IT    N3  700   2.499   4.230   3.257
   22X2IT   H15  701   2.432   4.166   3.221
   22X2IT   H16  702   2.587   4.247   3.206
   22X2IT    N2  703   2.481   4.540   3.710
   22X2IT    C3  704   2.372   4.609   3.781
   22X2IT    C2  705   2.415   4.755   3.772
   22X2IT    H2  706   2.374   4.827   3.842
   22X2IT    N1  707   2.446   4.796   3.633
   22X2IT   H14  708   2.441   4.898   3.626
   22X2IT    C1  709   2.556   4.762   3.726
   22X2IT    H1  710   2.626   4.837   3.760
   22X2IT   C11  711   2.607   4.619   3.709
   22X2IT    O3  712   2.685   4.596   3.825
   22X2IT   C15  713   2.714   4.460   3.858
   23X2IT   H18  714   0.708   1.214   3.900
   23X2IT    N4  715   0.657   1.297   3.924
   23X2IT   H17  716   0.706   1.385   3.919
   23X2IT   C14  717   0.523   1.295   3.897
   23X2IT    O5  718   0.457   1.195   3.874
   23X2IT    O4  719   0.471   1.421   3.904
   23X2IT   C13  720   0.329   1.433   3.885
   23X2IT   C10  721   0.252   1.404   4.015
   23X2IT    C9  722   0.102   1.423   4.000
   23X2IT    C4  723   0.057   1.516   4.091
   23X2IT    C5  724  -0.087   1.559   4.103
   23X2IT    O1  725  -0.119   1.641   4.190
   23X2IT    C6  726  -0.179   1.499   4.010
   23X2IT   C12  727  -0.326   1.537   4.017
   23X2IT    C7  728  -0.134   1.404   3.920
   23X2IT    C8  729   0.012   1.361   3.910
   23X2IT    O2  730   0.043   1.279   3.822
   23X2IT    N3  731  -0.213   1.342   3.832
   23X2IT   H15  732  -0.312   1.359   3.823
   23X2IT   H16  733  -0.168   1.275   3.768
   23X2IT    N2  734   0.156   1.559   4.174
   23X2IT    C3  735   0.172   1.693   4.234
   23X2IT    C2  736   0.307   1.737   4.178
   23X2IT    H2  737   0.363   1.816   4.229
   23X2IT    N1  738   0.314   1.724   4.031
   23X2IT   H14  739   0.388   1.785   3.995
   23X2IT    C1  740   0.375   1.620   4.117
   23X2IT    H1  741   0.482   1.607   4.119
   23X2IT   C11  742   0.286   1.499   4.136
   23X2IT    O3  743   0.346   1.430   4.245
   23X2IT   C15  744   0.265   1.332   4.312
   24X2IT   H18  745  -0.103   2.331   0.347
   24X2IT    N4  746  -0.055   2.263   0.403
   24X2IT   H17  747  -0.008   2.296   0.486
   24X2IT   C14  748  -0.105   2.136   0.400
   24X2IT    O5  749  -0.184   2.093   0.317
   24X2IT    O4  750  -0.051   2.062   0.501
   24X2IT   C13  751  -0.090   1.923   0.507
   24X2IT   C10  752  -0.006   1.837   0.411
   24X2IT    C9  753  -0.040   1.690   0.419
   24X2IT    C4  754   0.073   1.617   0.452
   24X2IT    C5  755   0.074   1.468   0.469
   24X2IT    O1  756   0.181   1.410   0.495
   24X2IT    C6  757  -0.052   1.400   0.452
   24X2IT   C12  758  -0.057   1.249   0.468
   24X2IT    C7  759  -0.164   1.473   0.418
   24X2IT    C8  760  -0.164   1.625   0.400
   24X2IT    O2  761  -0.272   1.680   0.374
   24X2IT    N3  762  -0.285   1.418   0.398
   24X2IT   H15  763  -0.304   1.320   0.407
   24X2IT   H16  764  -0.362   1.482   0.375
   24X2IT    N2  765   0.184   1.695   0.460
   24X2IT    C3  766   0.300   1.679   0.549
   24X2IT    C2  767   0.299   1.809   0.627
   24X2IT    H2  768   0.389   1.843   0.677
   24X2IT    N1  769   0.167   1.837   0.688
   24X2IT   H14  770   0.178   1.903   0.765
   24X2IT    C1  771   0.205   1.905   0.562
   24X2IT    H1  772   0.222   2.012   0.560
   24X2IT   C11  773   0.149   1.838   0.438
   24X2IT    O3  774   0.223   1.895   0.332
   24X2IT   C15  775   0.221   1.826   0.206
   25X2IT   H18  776   1.398   4.924   0.605
   25X2IT    N4  777   1.426   4.831   0.581
   25X2IT   H17  778   1.404   4.758   0.648
   25X2IT   C14  779   1.428   4.801   0.448
   25X2IT    O5  780   1.427   4.883   0.357
   25X2IT    O4  781   1.436   4.666   0.431
   25X2IT   C13  782   1.446   4.619   0.295
   25X2IT   C10  783   1.591   4.625   0.244
   25X2IT    C9  784   1.607   4.570   0.104
   25X2IT    C4  785   1.697   4.466   0.103
   25X2IT    C5  786   1.735   4.389  -0.020
   25X2IT    O1  787   1.820   4.299  -0.012
   25X2IT    C6  788   1.669   4.427  -0.143
   25X2IT   C12  789   1.703   4.353  -0.271
   25X2IT    C7  790   1.580   4.532  -0.142
   25X2IT    C8  791   1.542   4.610  -0.016
   25X2IT    O2  792   1.457   4.700  -0.026
   25X2IT    N3  793   1.515   4.576  -0.252
   25X2IT   H15  794   1.526   4.534  -0.342
   25X2IT   H16  795   1.450   4.653  -0.239
   25X2IT    N2  796   1.753   4.446   0.225
   25X2IT    C3  797   1.797   4.319   0.285
   25X2IT    C2  798   1.711   4.311   0.410
   25X2IT    H2  799   1.742   4.247   0.493
   25X2IT    N1  800   1.568   4.330   0.381
   25X2IT   H14  801   1.512   4.290   0.458
   25X2IT    C1  802   1.647   4.443   0.434
   25X2IT    H1  803   1.628   4.483   0.533
   25X2IT   C11  804   1.694   4.538   0.326
   25X2IT    O3  805   1.793   4.617   0.390
   25X2IT   C15  806   1.884   4.690   0.306
   26X2IT   H18  807   0.356   1.313   1.254
   26X2IT    N4  808   0.443   1.321   1.204
   26X2IT   H17  809   0.528   1.303   1.256
   26X2IT   C14  810   0.439   1.292   1.071
   26X2IT    O5  811   0.338   1.285   1.003
   26X2IT    O4  812   0.566   1.276   1.023
   26X2IT   C13  813   0.578   1.251   0.881
   26X2IT   C10  814   0.574   1.382   0.801
   26X2IT    C9  815   0.593   1.361   0.652
   26X2IT    C4  816   0.702   1.433   0.607
   26X2IT    C5  817   0.749   1.434   0.465
   26X2IT    O1  818   0.846   1.504   0.433
   26X2IT    C6  819   0.676   1.351   0.372
   26X2IT   C12  820   0.718   1.346   0.227
   26X2IT    C7  821   0.566   1.279   0.417
   26X2IT    C8  822   0.518   1.280   0.562
   26X2IT    O2  823   0.421   1.209   0.592
   26X2IT    N3  824   0.491   1.201   0.338
   26X2IT   H15  825   0.509   1.187   0.240
   26X2IT   H16  826   0.413   1.152   0.382
   26X2IT    N2  827   0.756   1.509   0.705
   26X2IT    C3  828   0.898   1.545   0.724
   26X2IT    C2  829   0.928   1.487   0.861
   26X2IT    H2  830   1.014   1.524   0.918
   26X2IT    N1  831   0.890   1.344   0.871
   26X2IT   H14  832   0.942   1.300   0.948
   26X2IT    C1  833   0.801   1.448   0.927
   26X2IT    H1  834   0.786   1.455   1.034
   26X2IT   C11  835   0.687   1.486   0.835
   26X2IT    O3  836   0.637   1.606   0.890
   26X2IT   C15  837   0.554   1.688   0.806
   27X2IT   H18  838   1.979   2.733   2.078
   27X2IT    N4  839   2.054   2.707   2.017
   27X2IT   H17  840   2.128   2.651   2.057
   27X2IT   C14  841   2.022   2.692   1.885
   27X2IT    O5  842   1.921   2.734   1.832
   27X2IT    O4  843   2.124   2.628   1.820
   27X2IT   C13  844   2.107   2.611   1.678
   27X2IT   C10  845   2.150   2.737   1.601
   27X2IT    C9  846   2.141   2.720   1.451
   27X2IT    C4  847   2.264   2.742   1.392
   27X2IT    C5  848   2.290   2.733   1.245
   27X2IT    O1  849   2.403   2.759   1.201
   27X2IT    C6  850   2.178   2.696   1.162
   27X2IT   C12  851   2.197   2.685   1.012
   27X2IT    C7  852   2.055   2.675   1.220
   27X2IT    C8  853   2.029   2.685   1.371
   27X2IT    O2  854   1.915   2.660   1.412
   27X2IT    N3  855   1.944   2.642   1.151
   27X2IT   H15  856   1.943   2.629   1.051
   27X2IT   H16  857   1.858   2.627   1.205
   27X2IT    N2  858   2.357   2.781   1.483
   27X2IT    C3  859   2.502   2.752   1.483
   27X2IT    C2  860   2.520   2.676   1.614
   27X2IT    H2  861   2.619   2.670   1.659
   27X2IT    N1  862   2.425   2.563   1.627
   27X2IT   H14  863   2.462   2.496   1.695
   27X2IT    C1  864   2.397   2.690   1.696
   27X2IT    H1  865   2.399   2.696   1.804
   27X2IT   C11  866   2.300   2.780   1.621
   27X2IT    O3  867   2.313   2.906   1.685
   27X2IT   C15  868   2.264   3.020   1.613
   28X2IT   H18  869   2.053   3.045   5.157
   28X2IT    N4  870   2.121   3.068   5.087
   28X2IT   H17  871   2.201   3.123   5.116
   28X2IT   C14  872   2.135   2.980   4.984
   28X2IT    O5  873   2.056   2.892   4.955
   28X2IT    O4  874   2.249   3.007   4.914
   28X2IT   C13  875   2.274   2.926   4.798
   28X2IT   C10  876   2.197   2.978   4.675
   28X2IT    C9  877   2.226   2.899   4.549
   28X2IT    C4  878   2.276   2.982   4.451
   28X2IT    C5  879   2.316   2.936   4.314
   28X2IT    O1  880   2.357   3.018   4.231
   28X2IT    C6  881   2.303   2.795   4.287
   28X2IT   C12  882   2.342   2.741   4.151
   28X2IT    C7  883   2.252   2.712   4.385
   28X2IT    C8  884   2.211   2.761   4.524
   28X2IT    O2  885   2.170   2.676   4.606
   28X2IT    N3  886   2.234   2.580   4.369
   28X2IT   H15  887   2.257   2.531   4.285
   28X2IT   H16  888   2.197   2.527   4.449
   28X2IT    N2  889   2.278   3.112   4.490
   28X2IT    C3  890   2.375   3.217   4.453
   28X2IT    C2  891   2.432   3.257   4.589
   28X2IT    H2  892   2.481   3.354   4.600
   28X2IT    N1  893   2.480   3.141   4.666
   28X2IT   H14  894   2.547   3.172   4.737
   28X2IT    C1  895   2.348   3.200   4.697
   28X2IT    H1  896   2.330   3.250   4.791
   28X2IT   C11  897   2.233   3.125   4.632
   28X2IT    O3  898   2.123   3.214   4.644
   28X2IT   C15  899   2.010   3.191   4.559
   29X2IT   H18  900   0.012   4.672   4.789
   29X2IT    N4  901   0.062   4.589   4.763
   29X2IT   H17  902   0.061   4.512   4.828
   29X2IT   C14  903   0.069   4.562   4.629
   29X2IT    O5  904   0.046   4.641   4.540
   29X2IT    O4  905   0.112   4.433   4.610
   29X2IT   C13  906   0.131   4.393   4.472
   29X2IT   C10  907   0.268   4.436   4.419
   29X2IT    C9  908   0.295   4.389   4.278
   29X2IT    C4  909   0.410   4.312   4.275
   29X2IT    C5  910   0.464   4.249   4.150
   29X2IT    O1  911   0.570   4.184   4.155
   29X2IT    C6  912   0.388   4.269   4.029
   29X2IT   C12  913   0.437   4.208   3.899
   29X2IT    C7  914   0.274   4.348   4.032
   29X2IT    C8  915   0.220   4.412   4.160
   29X2IT    O2  916   0.115   4.477   4.152
   29X2IT    N3  917   0.199   4.374   3.925
   29X2IT   H15  918   0.219   4.338   3.833
   29X2IT   H16  919   0.116   4.432   3.939
   29X2IT    N2  920   0.471   4.306   4.395
   29X2IT    C3  921   0.548   4.194   4.453
   29X2IT    C2  922   0.469   4.163   4.579
   29X2IT    H2  923   0.517   4.108   4.661
   29X2IT    N1  924   0.325   4.144   4.553
   29X2IT   H14  925   0.283   4.091   4.630
   29X2IT    C1  926   0.373   4.273   4.606
   29X2IT    H1  927   0.346   4.305   4.706
   29X2IT   C11  928   0.392   4.379   4.498
   29X2IT    O3  929   0.468   4.479   4.562
   29X2IT   C15  930   0.535   4.574   4.478
   30X2IT   H18  931   1.590   3.459   0.619
   30X2IT    N4  932   1.550   3.414   0.539
   30X2IT   H17  933   1.594   3.430   0.449
   30X2IT   C14  934   1.488   3.294   0.562
   30X2IT    O5  935   1.454   3.252   0.671
   30X2IT    O4  936   1.466   3.230   0.443
   30X2IT   C13  937   1.395   3.104   0.451
   30X2IT   C10  938   1.242   3.126   0.457
   30X2IT    C9  939   1.164   2.997   0.459
   30X2IT    C4  940   1.076   2.993   0.352
   30X2IT    C5  941   0.984   2.878   0.323
   30X2IT    O1  942   0.906   2.885   0.227
   30X2IT    C6  943   0.992   2.766   0.413
   30X2IT   C12  944   0.902   2.646   0.390
   30X2IT    C7  945   1.079   2.770   0.521
   30X2IT    C8  946   1.172   2.888   0.549
   30X2IT    O2  947   1.249   2.879   0.646
   30X2IT    N3  948   1.092   2.671   0.610
   30X2IT   H15  949   1.040   2.585   0.605
   30X2IT   H16  950   1.160   2.684   0.685
   30X2IT    N2  951   1.078   3.109   0.280
   30X2IT    C3  952   1.058   3.125   0.135
   30X2IT    C2  953   1.189   3.189   0.092
   30X2IT    H2  954   1.194   3.244  -0.002
   30X2IT    N1  955   1.307   3.112   0.138
   30X2IT   H14  956   1.387   3.135   0.079
   30X2IT    C1  957   1.265   3.233   0.211
   30X2IT    H1  958   1.327   3.321   0.213
   30X2IT   C11  959   1.180   3.202   0.334
   30X2IT    O3  960   1.124   3.328   0.369
   30X2IT   C15  961   1.010   3.326   0.456
   31X2IT   H18  962   0.982   3.948   0.565
   31X2IT    N4  963   0.969   4.001   0.649
   31X2IT   H17  964   0.896   4.071   0.649
   31X2IT   C14  965   1.002   3.939   0.767
   31X2IT    O5  966   1.069   3.837   0.776
   31X2IT    O4  967   0.952   4.010   0.872
   31X2IT   C13  968   0.984   3.959   1.003
   31X2IT   C10  969   1.123   4.006   1.049
   31X2IT    C9  970   1.158   3.961   1.189
   31X2IT    C4  971   1.185   4.070   1.270
   31X2IT    C5  972   1.222   4.060   1.415
   31X2IT    O1  973   1.249   4.163   1.478
   31X2IT    C6  974   1.226   3.928   1.472
   31X2IT   C12  975   1.262   3.911   1.618
   31X2IT    C7  976   1.200   3.818   1.391
   31X2IT    C8  977   1.163   3.830   1.243
   31X2IT    O2  978   1.137   3.725   1.181
   31X2IT    N3  979   1.203   3.691   1.434
   31X2IT   H15  980   1.223   3.666   1.529
   31X2IT   H16  981   1.180   3.618   1.366
   31X2IT    N2  982   1.182   4.186   1.200
   31X2IT    C3  983   1.140   4.319   1.248
   31X2IT    C2  984   1.024   4.352   1.154
   31X2IT    H2  985   0.993   4.455   1.141
   31X2IT    N1  986   0.923   4.244   1.150
   31X2IT   H14  987   0.834   4.281   1.117
   31X2IT    C1  988   1.023   4.255   1.041
   31X2IT    H1  989   0.993   4.282   0.941
   31X2IT   C11  990   1.142   4.162   1.059
   31X2IT    O3  991   1.238   4.212   0.967
   31X2IT   C15  992   1.374   4.170   0.986
   32X2IT   H18  993   1.412   4.555   4.578
   32X2IT    N4  994   1.344   4.591   4.513
   32X2IT   H17  995   1.282   4.663   4.545
   32X2IT   C14  996   1.380   4.588   4.381
   32X2IT    O5  997   1.472   4.523   4.334
   32X2IT    O4  998   1.295   4.666   4.308
   32X2IT   C13  999   1.317   4.668   4.165
   32X2IT   C10 1000   1.250   4.548   4.096
   32X2IT    C9 1001   1.265   4.550   3.946
   32X2IT    C4 1002   1.141   4.548   3.886
   32X2IT    C5 1003   1.119   4.550   3.737
   32X2IT    O1 1004   1.004   4.544   3.692
   32X2IT    C6 1005   1.238   4.557   3.655
   32X2IT   C12 1006   1.224   4.560   3.505
   32X2IT    C7 1007   1.362   4.558   3.715
   32X2IT    C8 1008   1.383   4.555   3.867
   32X2IT    O2 1009   1.499   4.561   3.910
   32X2IT    N3 1010   1.478   4.563   3.648
   32X2IT   H15 1011   1.483   4.567   3.547
   32X2IT   H16 1012   1.564   4.565   3.703
   32X2IT    N2 1013   1.040   4.536   3.977
   32X2IT    C3 1014   0.905   4.593   3.969
   32X2IT    C2 1015   0.900   4.681   4.094
   32X2IT    H2 1016   0.804   4.711   4.135
   32X2IT    N1 1017   1.015   4.774   4.101
   32X2IT   H14 1018   0.992   4.852   4.162
   32X2IT    C1 1019   1.016   4.650   4.181
   32X2IT    H1 1020   1.012   4.653   4.289
   32X2IT   C11 1021   1.094   4.537   4.115
   32X2IT    O3 1022   1.055   4.422   4.188
   32X2IT   C15 1023   1.081   4.294   4.127
   33X2IT   H18 1024   1.259   3.727   4.118
   33X2IT    N4 1025   1.242   3.751   4.214
   33X2IT   H17 1026   1.149   3.735   4.250
   33X2IT   C14 1027   1.349   3.740   4.299
   33X2IT    O5 1028   1.465   3.731   4.265
   33X2IT    O4 1029   1.306   3.744   4.429
   33X2IT   C13 1030   1.408   3.740   4.530
   33X2IT   C10 1031   1.468   3.880   4.555
   33X2IT    C9 1032   1.571   3.881   4.665
   33X2IT    C4 1033   1.534   3.970   4.765
   33X2IT    C5 1034   1.614   3.994   4.889
   33X2IT    O1 1035   1.574   4.079   4.971
   33X2IT    C6 1036   1.735   3.918   4.905
   33X2IT   C12 1037   1.820   3.937   5.028
   33X2IT    C7 1038   1.773   3.830   4.805
   33X2IT    C8 1039   1.691   3.806   4.678
   33X2IT    O2 1040   1.732   3.721   4.597
   33X2IT    N3 1041   1.885   3.755   4.809
   33X2IT   H15 1042   1.949   3.757   4.886
   33X2IT   H16 1043   1.902   3.693   4.730
   33X2IT    N2 1044   1.420   4.037   4.733
   33X2IT    C3 1045   1.315   4.085   4.824
   33X2IT    C2 1046   1.192   4.011   4.772
   33X2IT    H2 1047   1.093   4.049   4.795
   33X2IT    N1 1048   1.214   3.866   4.760
   33X2IT   H14 1049   1.124   3.817   4.759
   33X2IT    C1 1050   1.223   3.951   4.640
   33X2IT    H1 1051   1.150   3.942   4.560
   33X2IT   C11 1052   1.366   3.989   4.603
   33X2IT    O3 1053   1.350   4.095   4.510
   33X2IT   C15 1054   1.464   4.178   4.486
   34X2IT   H18 1055   4.472   3.799   3.322
   34X2IT    N4 1056   4.493   3.710   3.283
   34X2IT   H17 1057   4.573   3.660   3.321
   34X2IT   C14 1058   4.388   3.638   3.233
   34X2IT    O5 1059   4.278   3.683   3.209
   34X2IT    O4 1060   4.426   3.509   3.212
   34X2IT   C13 1061   4.326   3.422   3.153
   34X2IT   C10 1062   4.322   3.437   3.000
   34X2IT    C9 1063   4.223   3.343   2.934
   34X2IT    C4 1064   4.288   3.263   2.842
   34X2IT    C5 1065   4.219   3.158   2.760
   34X2IT    O1 1066   4.285   3.093   2.677
   34X2IT    C6 1067   4.078   3.140   2.783
   34X2IT   C12 1068   4.003   3.035   2.703
   34X2IT    C7 1069   4.013   3.221   2.874
   34X2IT    C8 1070   4.084   3.328   2.957
   34X2IT    O2 1071   4.017   3.392   3.039
   34X2IT    N3 1072   3.882   3.213   2.900
   34X2IT   H15 1073   3.820   3.147   2.856
   34X2IT   H16 1074   3.844   3.277   2.971
   34X2IT    N2 1075   4.419   3.295   2.829
   34X2IT    C3 1076   4.532   3.206   2.800
   34X2IT    C2 1077   4.621   3.225   2.923
   34X2IT    H2 1078   4.726   3.198   2.918
   34X2IT    N1 1079   4.546   3.206   3.049
   34X2IT   H14 1080   4.612   3.184   3.125
   34X2IT    C1 1081   4.573   3.342   3.000
   34X2IT    H1 1082   4.640   3.408   3.054
   34X2IT   C11 1083   4.456   3.403   2.925
   34X2IT    O3 1084   4.512   3.515   2.859
   34X2IT   C15 1085   4.437   3.572   2.750
   35X2IT   H18 1086   2.232   2.678   0.001
   35X2IT    N4 1087   2.251   2.612   0.075
   35X2IT   H17 1088   2.246   2.646   0.170
   35X2IT   C14 1089   2.218   2.482   0.049
   35X2IT    O5 1090   2.194   2.436  -0.061
   35X2IT    O4 1091   2.219   2.410   0.166
   35X2IT   C13 1092   2.192   2.269   0.153
   35X2IT   C10 1093   2.319   2.191   0.114
   35X2IT    C9 1094   2.297   2.041   0.107
   35X2IT    C4 1095   2.383   1.976   0.194
   35X2IT    C5 1096   2.386   1.827   0.212
   35X2IT    O1 1097   2.469   1.777   0.290
   35X2IT    C6 1098   2.291   1.751   0.135
   35X2IT   C12 1099   2.289   1.600   0.149
   35X2IT    C7 1100   2.206   1.816   0.048
   35X2IT    C8 1101   2.204   1.968   0.030
   35X2IT    O2 1102   2.121   2.016  -0.049
   35X2IT    N3 1103   2.116   1.753  -0.029
   35X2IT   H15 1104   2.102   1.654  -0.028
   35X2IT   H16 1105   2.057   1.812  -0.089
   35X2IT    N2 1106   2.468   2.062   0.255
   35X2IT    C3 1107   2.524   2.052   0.391
   35X2IT    C2 1108   2.474   2.181   0.455
   35X2IT    H2 1109   2.525   2.220   0.544
   35X2IT    N1 1110   2.328   2.198   0.441
   35X2IT   H14 1111   2.294   2.263   0.512
   35X2IT    C1 1112   2.420   2.271   0.351
   35X2IT    H1 1113   2.428   2.379   0.355
   35X2IT   C11 1114   2.439   2.203   0.216
   35X2IT    O3 1115   2.552   2.267   0.161
   35X2IT   C15 1116   2.619   2.201   0.052
   36X2IT   H18 1117   4.510   3.604   1.643
   36X2IT    N4 1118   4.470   3.649   1.722
   36X2IT   H17 1119   4.370   3.663   1.723
   36X2IT   C14 1120   4.535   3.632   1.842
   36X2IT    O5 1121   4.649   3.590   1.854
   36X2IT    O4 1122   4.455   3.672   1.945
   36X2IT   C13 1123   4.513   3.665   2.077
   36X2IT   C10 1124   4.599   3.790   2.107
   36X2IT    C9 1125   4.656   3.790   2.247
   36X2IT    C4 1126   4.615   3.903   2.315
   36X2IT    C5 1127   4.654   3.934   2.457
   36X2IT    O1 1128   4.615   4.039   2.509
   36X2IT    C6 1129   4.735   3.836   2.524
   36X2IT   C12 1130   4.777   3.860   2.667
   36X2IT    C7 1131   4.777   3.723   2.455
   36X2IT    C8 1132   4.738   3.693   2.310
   36X2IT    O2 1133   4.777   3.587   2.260
   36X2IT    N3 1134   4.854   3.627   2.509
   36X2IT   H15 1135   4.888   3.630   2.604
   36X2IT   H16 1136   4.878   3.547   2.449
   36X2IT    N2 1137   4.543   3.987   2.236
   36X2IT    C3 1138   4.432   4.075   2.275
   36X2IT    C2 1139   4.318   4.023   2.190
   36X2IT    H2 1140   4.231   4.086   2.170
   36X2IT    N1 1141   4.299   3.877   2.203
   36X2IT   H14 1142   4.205   3.851   2.174
   36X2IT    C1 1143   4.371   3.931   2.086
   36X2IT    H1 1144   4.329   3.923   1.986
   36X2IT   C11 1145   4.523   3.927   2.101
   36X2IT    O3 1146   4.570   4.012   1.998
   36X2IT   C15 1147   4.704   4.060   2.009
   37X2IT   H18 1148   2.842   3.986   2.221
   37X2IT    N4 1149   2.848   3.998   2.121
   37X2IT   H17 1150   2.929   3.959   2.075
   37X2IT   C14 1151   2.729   4.005   2.054
   37X2IT    O5 1152   2.620   4.025   2.106
   37X2IT    O4 1153   2.750   3.990   1.920
   37X2IT   C13 1154   2.634   4.001   1.836
   37X2IT   C10 1155   2.601   4.148   1.805
   37X2IT    C9 1156   2.484   4.164   1.711
   37X2IT    C4 1157   2.522   4.234   1.598
   37X2IT    C5 1158   2.430   4.267   1.484
   37X2IT    O1 1159   2.472   4.334   1.389
   37X2IT    C6 1160   2.294   4.218   1.495
   37X2IT   C12 1161   2.196   4.247   1.384
   37X2IT    C7 1162   2.256   4.149   1.608
   37X2IT    C8 1163   2.351   4.117   1.724
   37X2IT    O2 1164   2.307   4.050   1.819
   37X2IT    N3 1165   2.132   4.101   1.628
   37X2IT   H15 1166   2.058   4.111   1.561
   37X2IT   H16 1167   2.115   4.049   1.715
   37X2IT    N2 1168   2.650   4.277   1.606
   37X2IT    C3 1169   2.747   4.293   1.496
   37X2IT    C2 1170   2.859   4.199   1.538
   37X2IT    H2 1171   2.959   4.212   1.496
   37X2IT    N1 1172   2.809   4.063   1.569
   37X2IT   H14 1173   2.887   3.996   1.562
   37X2IT    C1 1174   2.838   4.157   1.679
   37X2IT    H1 1175   2.920   4.138   1.748
   37X2IT   C11 1176   2.715   4.228   1.731
   37X2IT    O3 1177   2.767   4.334   1.809
   37X2IT   C15 1178   2.678   4.442   1.840
   38X2IT   H18 1179   3.752   1.826   3.502
   38X2IT    N4 1180   3.806   1.900   3.544
   38X2IT   H17 1181   3.901   1.911   3.512
   38X2IT   C14 1182   3.736   2.009   3.587
   38X2IT    O5 1183   3.616   2.014   3.604
   38X2IT    O4 1184   3.822   2.112   3.613
   38X2IT   C13 1185   3.763   2.233   3.666
   38X2IT   C10 1186   3.743   2.224   3.818
   38X2IT    C9 1187   3.688   2.351   3.878
   38X2IT    C4 1188   3.774   2.399   3.975
   38X2IT    C5 1189   3.749   2.524   4.054
   38X2IT    O1 1190   3.830   2.558   4.142
   38X2IT    C6 1191   3.629   2.598   4.022
   38X2IT   C12 1192   3.599   2.726   4.098
   38X2IT    C7 1193   3.543   2.549   3.926
   38X2IT    C8 1194   3.569   2.421   3.847
   38X2IT    O2 1195   3.487   2.389   3.759
   38X2IT    N3 1196   3.429   2.610   3.891
   38X2IT   H15 1197   3.397   2.696   3.931
   38X2IT   H16 1198   3.373   2.566   3.817
   38X2IT    N2 1199   3.879   2.315   3.997
   38X2IT    C3 1200   4.016   2.351   4.034
   38X2IT    C2 1201   4.097   2.296   3.918
   38X2IT    H2 1202   4.204   2.276   3.930
   38X2IT    N1 1203   4.046   2.341   3.787
   38X2IT   H14 1204   4.119   2.332   3.716
   38X2IT    C1 1205   4.011   2.207   3.836
   38X2IT    H1 1206   4.048   2.118   3.786
   38X2IT   C11 1207   3.874   2.200   3.902
   38X2IT    O3 1208   3.875   2.076   3.970
   38X2IT   C15 1209   3.777   2.057   4.073
   39X2IT   H18 1210   3.675   5.126   2.280
   39X2IT    N4 1211   3.606   5.097   2.346
   39X2IT   H17 1212   3.632   5.099   2.444
   39X2IT   C14 1213   3.476   5.119   2.312
   39X2IT    O5 1214   3.436   5.145   2.200
   39X2IT    O4 1215   3.395   5.104   2.421
   39X2IT   C13 1216   3.254   5.118   2.399
   39X2IT   C10 1217   3.192   4.987   2.347
   39X2IT    C9 1218   3.042   4.995   2.328
   39X2IT    C4 1219   2.979   4.899   2.405
   39X2IT    C5 1220   2.830   4.880   2.410
   39X2IT    O1 1221   2.782   4.788   2.478
   39X2IT    C6 1222   2.751   4.972   2.332
   39X2IT   C12 1223   2.600   4.959   2.333
   39X2IT    C7 1224   2.814   5.068   2.255
   39X2IT    C8 1225   2.966   5.085   2.250
   39X2IT    O2 1226   3.011   5.178   2.181
   39X2IT    N3 1227   2.749   5.157   2.178
   39X2IT   H15 1228   2.648   5.161   2.172
   39X2IT   H16 1229   2.806   5.224   2.127
   39X2IT    N2 1230   3.068   4.817   2.468
   39X2IT    C3 1231   3.053   4.752   2.599
   39X2IT    C2 1232   3.171   4.810   2.677
   39X2IT    H2 1233   3.208   4.758   2.765
   39X2IT    N1 1234   3.174   4.958   2.671
   39X2IT   H14 1235   3.230   4.993   2.750
   39X2IT    C1 1236   3.263   4.879   2.583
   39X2IT    H1 1237   3.370   4.881   2.596
   39X2IT   C11 1238   3.207   4.862   2.442
   39X2IT    O3 1239   3.287   4.759   2.386
   39X2IT   C15 1240   3.236   4.694   2.269
   40X2IT   H18 1241  -0.237   0.649   1.081
   40X2IT    N4 1242  -0.177   0.661   1.002
   40X2IT   H17 1243  -0.144   0.755   0.983
   40X2IT   C14 1244  -0.099   0.555   0.968
   40X2IT    O5 1245  -0.114   0.441   1.006
   40X2IT    O4 1246  -0.002   0.595   0.880
   40X2IT   C13 1247   0.085   0.492   0.829
   40X2IT   C10 1248   0.021   0.417   0.711
   40X2IT    C9 1249   0.112   0.312   0.651
   40X2IT    C4 1250   0.133   0.339   0.517
   40X2IT    C5 1251   0.219   0.254   0.427
   40X2IT    O1 1252   0.229   0.283   0.307
   40X2IT    C6 1253   0.285   0.142   0.489
   40X2IT   C12 1254   0.374   0.053   0.404
   40X2IT    C7 1255   0.263   0.115   0.623
   40X2IT    C8 1256   0.175   0.201   0.712
   40X2IT    O2 1257   0.166   0.170   0.832
   40X2IT    N3 1258   0.319   0.012   0.688
   40X2IT   H15 1259   0.382  -0.054   0.645
   40X2IT   H16 1260   0.297   0.002   0.788
   40X2IT    N2 1261   0.060   0.445   0.473
   40X2IT    C3 1262   0.096   0.543   0.370
   40X2IT    C2 1263   0.094   0.674   0.448
   40X2IT    H2 1264   0.084   0.768   0.394
   40X2IT    N1 1265   0.177   0.667   0.571
   40X2IT   H14 1266   0.201   0.762   0.600
   40X2IT    C1 1267   0.030   0.652   0.580
   40X2IT    H1 1268  -0.031   0.727   0.629
   40X2IT   C11 1269  -0.015   0.507   0.586
   40X2IT    O3 1270  -0.154   0.512   0.561
   40X2IT   C15 1271  -0.218   0.390   0.522
   41X2IT   H18 1272   2.145   1.882   3.479
   41X2IT    N4 1273   2.161   1.887   3.380
   41X2IT   H17 1274   2.090   1.932   3.325
   41X2IT   C14 1275   2.291   1.893   3.340
   41X2IT    O5 1276   2.388   1.865   3.409
   41X2IT    O4 1277   2.298   1.929   3.208
   41X2IT   C13 1278   2.429   1.933   3.150
   41X2IT   C10 1279   2.474   1.793   3.103
   41X2IT    C9 1280   2.609   1.794   3.035
   41X2IT    C4 1281   2.598   1.743   2.907
   41X2IT    C5 1282   2.713   1.730   2.811
   41X2IT    O1 1283   2.694   1.680   2.700
   41X2IT    C6 1284   2.841   1.778   2.858
   41X2IT   C12 1285   2.961   1.769   2.766
   41X2IT    C7 1286   2.852   1.828   2.986
   41X2IT    C8 1287   2.734   1.840   3.083
   41X2IT    O2 1288   2.755   1.891   3.194
   41X2IT    N3 1289   2.967   1.874   3.039
   41X2IT   H15 1290   3.054   1.875   2.988
   41X2IT   H16 1291   2.963   1.910   3.134
   41X2IT    N2 1292   2.472   1.698   2.880
   41X2IT    C3 1293   2.401   1.699   2.752
   41X2IT    C2 1294   2.279   1.785   2.783
   41X2IT    H2 1295   2.190   1.778   2.720
   41X2IT    N1 1296   2.315   1.914   2.845
   41X2IT   H14 1297   2.238   1.981   2.833
   41X2IT    C1 1298   2.268   1.803   2.930
   41X2IT    H1 1299   2.174   1.810   2.983
   41X2IT   C11 1300   2.382   1.725   2.995
   41X2IT    O3 1301   2.319   1.607   3.043
   41X2IT   C15 1302   2.405   1.496   3.074
   42X2IT   H18 1303   2.551   0.854   0.342
   42X2IT    N4 1304   2.615   0.777   0.335
   42X2IT   H17 1305   2.577   0.684   0.345
   42X2IT   C14 1306   2.724   0.796   0.254
   42X2IT    O5 1307   2.763   0.904   0.213
   42X2IT    O4 1308   2.784   0.676   0.229
   42X2IT   C13 1309   2.905   0.681   0.149
   42X2IT   C10 1310   3.027   0.714   0.236
   42X2IT    C9 1311   3.157   0.714   0.158
   42X2IT    C4 1312   3.245   0.623   0.212
   42X2IT    C5 1313   3.383   0.597   0.158
   42X2IT    O1 1314   3.457   0.516   0.216
   42X2IT    C6 1315   3.421   0.670   0.040
   42X2IT   C12 1316   3.558   0.648  -0.020
   42X2IT    C7 1317   3.333   0.762  -0.014
   42X2IT    C8 1318   3.193   0.788   0.042
   42X2IT    O2 1319   3.120   0.869  -0.017
   42X2IT    N3 1320   3.359   0.836  -0.123
   42X2IT   H15 1321   3.446   0.830  -0.174
   42X2IT   H16 1322   3.286   0.900  -0.155
   42X2IT    N2 1323   3.196   0.566   0.325
   42X2IT    C3 1324   3.220   0.429   0.375
   42X2IT    C2 1325   3.079   0.372   0.380
   42X2IT    H2 1326   3.057   0.286   0.442
   42X2IT    N1 1327   3.007   0.389   0.251
   42X2IT   H14 1328   2.930   0.322   0.246
   42X2IT    C1 1329   2.980   0.482   0.363
   42X2IT    H1 1330   2.884   0.483   0.412
   42X2IT   C11 1331   3.058   0.613   0.352
   42X2IT    O3 1332   3.045   0.671   0.481
   42X2IT   C15 1333   3.138   0.774   0.515
   43X2IT   H18 1334   4.706   3.070   4.965
   43X2IT    N4 1335   4.663   3.007   4.900
   43X2IT   H17 1336   4.564   2.990   4.911
   43X2IT   C14 1337   4.718   3.002   4.775
   43X2IT    O5 1338   4.829   3.044   4.745
   43X2IT    O4 1339   4.634   2.937   4.690
   43X2IT   C13 1340   4.682   2.918   4.555
   43X2IT   C10 1341   4.772   2.794   4.545
   43X2IT    C9 1342   4.819   2.766   4.404
   43X2IT    C4 1343   4.780   2.640   4.364
   43X2IT    C5 1344   4.810   2.581   4.229
   43X2IT    O1 1345   4.774   2.465   4.203
   43X2IT    C6 1346   4.881   2.666   4.136
   43X2IT   C12 1347   4.914   2.613   3.998
   43X2IT    C7 1348   4.921   2.792   4.176
   43X2IT    C8 1349   4.891   2.850   4.315
   43X2IT    O2 1350   4.928   2.966   4.338
   43X2IT    N3 1351   4.989   2.877   4.098
   43X2IT   H15 1352   5.016   2.855   4.004
   43X2IT   H16 1353   5.013   2.968   4.138
   43X2IT    N2 1354   4.718   2.572   4.464
   43X2IT    C3 1355   4.609   2.473   4.453
   43X2IT    C2 1356   4.498   2.538   4.535
   43X2IT    H2 1357   4.417   2.476   4.574
   43X2IT    N1 1358   4.472   2.677   4.493
   43X2IT   H14 1359   4.378   2.704   4.524
   43X2IT    C1 1360   4.554   2.651   4.613
   43X2IT    H1 1361   4.519   2.678   4.711
   43X2IT   C11 1362   4.704   2.658   4.585
   43X2IT    O3 1363   4.762   2.598   4.699
   43X2IT   C15 1364   4.898   2.554   4.688
   44X2IT   H18 1365  -0.253   5.002   4.480
   44X2IT    N4 1366  -0.174   5.031   4.535
   44X2IT   H17 1367  -0.164   5.131   4.551
   44X2IT   C14 1368  -0.130   4.944   4.630
   44X2IT    O5 1369  -0.159   4.826   4.636
   44X2IT    O4 1370  -0.045   5.008   4.716
   44X2IT   C13 1371   0.014   4.925   4.819
   44X2IT   C10 1372   0.138   4.851   4.766
   44X2IT    C9 1373   0.208   4.769   4.873
   44X2IT    C4 1374   0.339   4.810   4.886
   44X2IT    C5 1375   0.436   4.750   4.983
   44X2IT    O1 1376   0.554   4.790   4.985
   44X2IT    C6 1377   0.385   4.646   5.069
   44X2IT   C12 1378   0.478   4.581   5.170
   44X2IT    C7 1379   0.254   4.604   5.055
   44X2IT    C8 1380   0.156   4.666   4.955
   44X2IT    O2 1381   0.040   4.624   4.954
   44X2IT    N3 1382   0.198   4.508   5.130
   44X2IT   H15 1383   0.248   4.458   5.202
   44X2IT   H16 1384   0.100   4.486   5.112
   44X2IT    N2 1385   0.373   4.905   4.795
   44X2IT    C3 1386   0.468   5.016   4.811
   44X2IT    C2 1387   0.379   5.138   4.788
   44X2IT    H2 1388   0.424   5.233   4.760
   44X2IT    N1 1389   0.258   5.135   4.873
   44X2IT   H14 1390   0.220   5.230   4.881
   44X2IT    C1 1391   0.249   5.094   4.731
   44X2IT    H1 1392   0.192   5.152   4.660
   44X2IT   C11 1393   0.254   4.943   4.713
   44X2IT    O3 1394   0.278   4.926   4.574
   44X2IT   C15 1395   0.327   4.799   4.531
   45X2IT   H18 1396   1.750   3.058   3.026
   45X2IT    N4 1397   1.671   3.015   3.070
   45X2IT   H17 1398   1.635   2.930   3.030
   45X2IT   C14 1399   1.660   3.034   3.205
   45X2IT    O5 1400   1.720   3.118   3.270
   45X2IT    O4 1401   1.569   2.947   3.257
   45X2IT   C13 1402   1.542   2.959   3.399
   45X2IT   C10 1403   1.439   3.070   3.427
   45X2IT    C9 1404   1.403   3.082   3.573
   45X2IT    C4 1405   1.267   3.064   3.590
   45X2IT    C5 1406   1.198   3.069   3.724
   45X2IT    O1 1407   1.075   3.056   3.729
   45X2IT    C6 1408   1.282   3.090   3.839
   45X2IT   C12 1409   1.219   3.095   3.977
   45X2IT    C7 1410   1.418   3.108   3.822
   45X2IT    C8 1411   1.487   3.104   3.685
   45X2IT    O2 1412   1.610   3.118   3.681
   45X2IT    N3 1413   1.504   3.130   3.922
   45X2IT   H15 1414   1.476   3.134   4.019
   45X2IT   H16 1415   1.603   3.141   3.898
   45X2IT    N2 1416   1.201   3.050   3.472
   45X2IT    C3 1417   1.082   2.969   3.444
   45X2IT    C2 1418   1.133   2.873   3.337
   45X2IT    H2 1419   1.061   2.822   3.272
   45X2IT    N1 1420   1.256   2.803   3.378
   45X2IT   H14 1421   1.267   2.718   3.323
   45X2IT    C1 1422   1.265   2.919   3.287
   45X2IT    H1 1423   1.297   2.907   3.185
   45X2IT   C11 1424   1.298   3.050   3.359
   45X2IT    O3 1425   1.268   3.150   3.263
   45X2IT   C15 1426   1.252   3.284   3.312
   46X2IT   H18 1427   3.656   2.012   1.738
   46X2IT    N4 1428   3.639   1.922   1.779
   46X2IT   H17 1429   3.717   1.858   1.783
   46X2IT   C14 1430   3.543   1.917   1.876
   46X2IT    O5 1431   3.459   2.003   1.897
   46X2IT    O4 1432   3.553   1.799   1.944
   46X2IT   C13 1433   3.453   1.776   2.046
   46X2IT   C10 1434   3.323   1.721   1.986
   46X2IT    C9 1435   3.218   1.689   2.090
   46X2IT    C4 1436   3.181   1.556   2.083
   46X2IT    C5 1437   3.080   1.492   2.173
   46X2IT    O1 1438   3.051   1.372   2.156
   46X2IT    C6 1439   3.021   1.576   2.274
   46X2IT   C12 1440   2.919   1.517   2.369
   46X2IT    C7 1441   3.057   1.709   2.281
   46X2IT    C8 1442   3.160   1.774   2.188
   46X2IT    O2 1443   3.188   1.893   2.206
   46X2IT    N3 1444   3.007   1.795   2.371
   46X2IT   H15 1445   2.939   1.769   2.441
   46X2IT   H16 1446   3.041   1.891   2.368
   46X2IT    N2 1447   3.242   1.492   1.979
   46X2IT    C3 1448   3.285   1.352   1.973
   46X2IT    C2 1449   3.435   1.365   1.949
   46X2IT    H2 1450   3.491   1.281   1.907
   46X2IT    N1 1451   3.500   1.454   2.048
   46X2IT   H14 1452   3.600   1.433   2.052
   46X2IT    C1 1453   3.467   1.506   1.914
   46X2IT    H1 1454   3.546   1.533   1.845
   46X2IT   C11 1455   3.337   1.584   1.910
   46X2IT    O3 1456   3.308   1.594   1.771
   46X2IT   C15 1457   3.173   1.628   1.735
   47X2IT   H18 1458   3.708   0.906   3.598
   47X2IT    N4 1459   3.740   0.844   3.526
   47X2IT   H17 1460   3.840   0.832   3.516
   47X2IT   C14 1461   3.657   0.740   3.494
   47X2IT    O5 1462   3.539   0.733   3.524
   47X2IT    O4 1463   3.725   0.649   3.418
   47X2IT   C13 1464   3.647   0.536   3.371
   47X2IT   C10 1465   3.570   0.571   3.243
   47X2IT    C9 1466   3.493   0.454   3.186
   47X2IT    C4 1467   3.534   0.428   3.057
   47X2IT    C5 1468   3.478   0.318   2.971
   47X2IT    O1 1469   3.518   0.305   2.855
   47X2IT    C6 1470   3.379   0.233   3.033
   47X2IT   C12 1471   3.319   0.120   2.953
   47X2IT    C7 1472   3.337   0.260   3.162
   47X2IT    C8 1473   3.394   0.373   3.247
   47X2IT    O2 1474   3.353   0.385   3.364
   47X2IT    N3 1475   3.244   0.188   3.227
   47X2IT   H15 1476   3.198   0.108   3.186
   47X2IT   H16 1477   3.222   0.215   3.323
   47X2IT    N2 1478   3.624   0.520   3.012
   47X2IT    C3 1479   3.736   0.498   2.919
   47X2IT    C2 1480   3.857   0.537   3.004
   47X2IT    H2 1481   3.951   0.563   2.955
   47X2IT    N1 1482   3.859   0.466   3.134
   47X2IT   H14 1483   3.954   0.466   3.171
   47X2IT    C1 1484   3.810   0.605   3.127
   47X2IT    H1 1485   3.866   0.685   3.175
   47X2IT   C11 1486   3.659   0.616   3.121
   47X2IT    O3 1487   3.636   0.750   3.082
   47X2IT   C15 1488   3.506   0.781   3.029
   48X2IT   H18 1489   0.819   0.973   0.010
   48X2IT    N4 1490   0.855   0.887   0.046
   48X2IT   H17 1491   0.799   0.804   0.032
   48X2IT   C14 1492   0.991   0.875   0.050
   48X2IT    O5 1493   1.070   0.967   0.041
   48X2IT    O4 1494   1.026   0.744   0.071
   48X2IT   C13 1495   1.167   0.717   0.084
   48X2IT   C10 1496   1.216   0.743   0.228
   48X2IT    C9 1497   1.362   0.710   0.248
   48X2IT    C4 1498   1.376   0.615   0.348
   48X2IT    C5 1499   1.508   0.559   0.392
   48X2IT    O1 1500   1.511   0.477   0.486
   48X2IT    C6 1501   1.625   0.606   0.322
   48X2IT   C12 1502   1.761   0.553   0.362
   48X2IT    C7 1503   1.611   0.701   0.223
   48X2IT    C8 1504   1.476   0.758   0.179
   48X2IT    O2 1505   1.474   0.840   0.086
   48X2IT    N3 1506   1.714   0.752   0.154
   48X2IT   H15 1507   1.809   0.724   0.168
   48X2IT   H16 1508   1.691   0.821   0.081
   48X2IT    N2 1509   1.257   0.585   0.407
   48X2IT    C3 1510   1.214   0.456   0.463
   48X2IT    C2 1511   1.091   0.424   0.379
   48X2IT    H2 1512   1.017   0.353   0.417
   48X2IT    N1 1513   1.118   0.432   0.234
   48X2IT   H14 1514   1.048   0.378   0.183
   48X2IT    C1 1515   1.051   0.544   0.302
   48X2IT    H1 1516   0.948   0.569   0.280
   48X2IT   C11 1517   1.145   0.657   0.340
   48X2IT    O3 1518   1.071   0.736   0.431
   48X2IT   C15 1519   1.144   0.827   0.513
   49X2IT   H18 1520   3.545   4.184   0.187
   49X2IT    N4 1521   3.595   4.218   0.267
   49X2IT   H17 1522   3.570   4.180   0.357
   49X2IT   C14 1523   3.725   4.257   0.246
   49X2IT    O5 1524   3.774   4.279   0.137
   49X2IT    O4 1525   3.790   4.270   0.365
   49X2IT   C13 1526   3.926   4.317   0.359
   49X2IT   C10 1527   3.932   4.471   0.348
   49X2IT    C9 1528   4.073   4.524   0.348
   49X2IT    C4 1529   4.091   4.613   0.453
   49X2IT    C5 1530   4.220   4.684   0.482
   49X2IT    O1 1531   4.226   4.764   0.576
   49X2IT    C6 1532   4.331   4.653   0.395
   49X2IT   C12 1533   4.465   4.721   0.419
   49X2IT    C7 1534   4.314   4.565   0.290
   49X2IT    C8 1535   4.181   4.494   0.261
   49X2IT    O2 1536   4.178   4.414   0.166
   49X2IT    N3 1537   4.410   4.532   0.203
   49X2IT   H15 1538   4.504   4.568   0.209
   49X2IT   H16 1539   4.386   4.464   0.130
   49X2IT    N2 1540   3.976   4.634   0.521
   49X2IT    C3 1541   3.960   4.662   0.665
   49X2IT    C2 1542   3.873   4.546   0.710
   49X2IT    H2 1543   3.816   4.554   0.803
   49X2IT    N1 1544   3.928   4.415   0.669
   49X2IT   H14 1545   3.889   4.341   0.729
   49X2IT    C1 1546   3.818   4.475   0.592
   49X2IT    H1 1547   3.720   4.430   0.590
   49X2IT   C11 1548   3.866   4.549   0.467
   49X2IT    O3 1549   3.754   4.626   0.428
   49X2IT   C15 1550   3.778   4.735   0.338
   50X2IT   H18 1551   5.513   0.431   3.807
   50X2IT    N4 1552   5.417   0.443   3.780
   50X2IT   H17 1553   5.375   0.534   3.796
   50X2IT   C14 1554   5.373   0.368   3.674
   50X2IT    O5 1555   5.430   0.271   3.629
   50X2IT    O4 1556   5.253   0.416   3.630
   50X2IT   C13 1557   5.191   0.343   3.522
   50X2IT   C10 1558   5.113   0.221   3.575
   50X2IT    C9 1559   5.041   0.145   3.465
   50X2IT    C4 1560   4.905   0.141   3.492
   50X2IT    C5 1561   4.804   0.074   3.403
   50X2IT    O1 1562   4.685   0.072   3.436
   50X2IT    C6 1563   4.855   0.014   3.282
   50X2IT   C12 1564   4.759  -0.055   3.187
   50X2IT    C7 1565   4.991   0.018   3.256
   50X2IT    C8 1566   5.093   0.086   3.348
   50X2IT    O2 1567   5.212   0.087   3.312
   50X2IT    N3 1568   5.048  -0.036   3.147
   50X2IT   H15 1569   4.995  -0.083   3.075
   50X2IT   H16 1570   5.149  -0.026   3.137
   50X2IT    N2 1571   4.874   0.198   3.611
   50X2IT    C3 1572   4.752   0.271   3.648
   50X2IT    C2 1573   4.808   0.408   3.687
   50X2IT    H2 1574   4.748   0.474   3.750
   50X2IT    N1 1575   4.895   0.465   3.582
   50X2IT   H14 1576   4.902   0.566   3.595
   50X2IT    C1 1577   4.955   0.399   3.700
   50X2IT    H1 1578   5.011   0.457   3.773
   50X2IT   C11 1579   4.996   0.255   3.675
   50X2IT    O3 1580   5.018   0.202   3.805
   50X2IT   C15 1581   5.020   0.059   3.818
   51X2IT   H18 1582   0.711   3.582   4.546
   51X2IT    N4 1583   0.793   3.571   4.603
   51X2IT   H17 1584   0.820   3.650   4.661
   51X2IT   C14 1585   0.820   3.444   4.647
   51X2IT    O5 1586   0.771   3.342   4.600
   51X2IT    O4 1587   0.913   3.448   4.747
   51X2IT   C13 1588   0.956   3.320   4.798
   51X2IT   C10 1589   1.066   3.259   4.710
   51X2IT    C9 1590   1.119   3.128   4.764
   51X2IT    C4 1591   1.256   3.137   4.786
   51X2IT    C5 1592   1.339   3.025   4.840
   51X2IT    O1 1593   1.462   3.040   4.853
   51X2IT    C6 1594   1.270   2.903   4.873
   51X2IT   C12 1595   1.348   2.786   4.929
   51X2IT    C7 1596   1.134   2.893   4.851
   51X2IT    C8 1597   1.050   3.008   4.795
   51X2IT    O2 1598   0.928   2.990   4.782
   51X2IT    N3 1599   1.061   2.784   4.877
   51X2IT   H15 1600   1.100   2.700   4.916
   51X2IT   H16 1601   0.961   2.789   4.857
   51X2IT    N2 1602   1.306   3.256   4.745
   51X2IT    C3 1603   1.418   3.332   4.804
   51X2IT    C2 1604   1.351   3.463   4.843
   51X2IT    H2 1605   1.412   3.552   4.858
   51X2IT    N1 1606   1.230   3.442   4.925
   51X2IT   H14 1607   1.209   3.527   4.977
   51X2IT    C1 1608   1.217   3.470   4.781
   51X2IT    H1 1609   1.172   3.563   4.747
   51X2IT   C11 1610   1.197   3.345   4.696
   51X2IT    O3 1611   1.220   3.390   4.564
   51X2IT   C15 1612   1.248   3.289   4.465
   52X2IT   H18 1613   5.241   2.947   3.457
   52X2IT    N4 1614   5.178   2.933   3.381
   52X2IT   H17 1615   5.218   2.912   3.290
   52X2IT   C14 1616   5.055   2.881   3.413
   52X2IT    O5 1617   5.008   2.878   3.525
   52X2IT    O4 1618   4.992   2.838   3.300
   52X2IT   C13 1619   4.858   2.787   3.317
   52X2IT   C10 1620   4.754   2.901   3.321
   52X2IT    C9 1621   4.612   2.851   3.333
   52X2IT    C4 1622   4.537   2.897   3.226
   52X2IT    C5 1623   4.391   2.865   3.207
   52X2IT    O1 1624   4.331   2.913   3.110
   52X2IT    C6 1625   4.330   2.779   3.305
   52X2IT   C12 1626   4.184   2.742   3.291
   52X2IT    C7 1627   4.405   2.734   3.412
   52X2IT    C8 1628   4.553   2.768   3.431
   52X2IT    O2 1629   4.612   2.719   3.529
   52X2IT    N3 1630   4.357   2.655   3.509
   52X2IT   H15 1631   4.262   2.622   3.511
   52X2IT   H16 1632   4.422   2.627   3.583
   52X2IT    N2 1633   4.607   2.980   3.146
   52X2IT    C3 1634   4.595   2.997   3.000
   52X2IT    C2 1635   4.735   2.960   2.951
   52X2IT    H2 1636   4.769   2.993   2.853
   52X2IT    N1 1637   4.779   2.829   3.004
   52X2IT   H14 1638   4.854   2.792   2.944
   52X2IT    C1 1639   4.827   2.953   3.068
   52X2IT    H1 1640   4.931   2.982   3.062
   52X2IT   C11 1641   4.748   2.991   3.192
   52X2IT    O3 1642   4.786   3.125   3.217
   52X2IT   C15 1643   4.701   3.202   3.303
   53X2IT   H18 1644   1.844   2.908   1.753
   53X2IT    N4 1645   1.906   2.926   1.676
   53X2IT   H17 1646   1.947   2.846   1.630
   53X2IT   C14 1647   1.883   3.040   1.604
   53X2IT    O5 1648   1.813   3.133   1.640
   53X2IT    O4 1649   1.953   3.036   1.487
   53X2IT   C13 1650   1.943   3.153   1.403
   53X2IT   C10 1651   2.041   3.263   1.447
   53X2IT    C9 1652   2.039   3.384   1.358
   53X2IT    C4 1653   2.165   3.407   1.305
   53X2IT    C5 1654   2.197   3.520   1.211
   53X2IT    O1 1655   2.314   3.536   1.172
   53X2IT    C6 1656   2.087   3.606   1.173
   53X2IT   C12 1657   2.113   3.721   1.078
   53X2IT    C7 1658   1.962   3.583   1.226
   53X2IT    C8 1659   1.930   3.468   1.323
   53X2IT    O2 1660   1.813   3.455   1.361
   53X2IT    N3 1661   1.854   3.658   1.198
   53X2IT   H15 1662   1.856   3.737   1.136
   53X2IT   H16 1663   1.765   3.631   1.242
   53X2IT    N2 1664   2.257   3.321   1.354
   53X2IT    C3 1665   2.376   3.267   1.286
   53X2IT    C2 1666   2.349   3.117   1.290
   53X2IT    H2 1667   2.432   3.047   1.278
   53X2IT    N1 1668   2.215   3.082   1.238
   53X2IT   H14 1669   2.214   2.984   1.210
   53X2IT    C1 1670   2.237   3.089   1.384
   53X2IT    H1 1671   2.232   3.000   1.445
   53X2IT   C11 1672   2.193   3.222   1.445
   53X2IT    O3 1673   2.253   3.221   1.573
   53X2IT   C15 1674   2.263   3.347   1.641
   54X2IT   H18 1675   3.822   2.737   2.634
   54X2IT    N4 1676   3.773   2.655   2.665
   54X2IT   H17 1677   3.825   2.568   2.666
   54X2IT   C14 1678   3.673   2.674   2.755
   54X2IT    O5 1679   3.621   2.781   2.781
   54X2IT    O4 1680   3.636   2.554   2.810
   54X2IT   C13 1681   3.526   2.558   2.904
   54X2IT   C10 1682   3.391   2.556   2.831
   54X2IT    C9 1683   3.273   2.552   2.926
   54X2IT    C4 1684   3.195   2.441   2.901
   54X2IT    C5 1685   3.071   2.407   2.978
   54X2IT    O1 1686   3.005   2.306   2.947
   54X2IT    C6 1687   3.035   2.497   3.085
   54X2IT   C12 1688   2.910   2.468   3.167
   54X2IT    C7 1689   3.112   2.609   3.109
   54X2IT    C8 1690   3.238   2.643   3.029
   54X2IT    O2 1691   3.302   2.744   3.062
   54X2IT    N3 1692   3.085   2.699   3.205
   54X2IT   H15 1693   3.007   2.691   3.267
   54X2IT   H16 1694   3.150   2.778   3.214
   54X2IT    N2 1695   3.240   2.369   2.795
   54X2IT    C3 1696   3.235   2.224   2.775
   54X2IT    C2 1697   3.382   2.187   2.761
   54X2IT    H2 1698   3.410   2.094   2.713
   54X2IT    N1 1699   3.463   2.240   2.873
   54X2IT   H14 1700   3.550   2.187   2.879
   54X2IT    C1 1701   3.462   2.311   2.743
   54X2IT    H1 1702   3.551   2.316   2.682
   54X2IT   C11 1703   3.365   2.429   2.741
   54X2IT    O3 1704   3.354   2.461   2.603
   54X2IT   C15 1705   3.242   2.541   2.564
   55X2IT   H18 1706   2.024   4.679   1.470
   55X2IT    N4 1707   2.090   4.689   1.545
   55X2IT   H17 1708   2.182   4.723   1.521
   55X2IT   C14 1709   2.037   4.719   1.668
   55X2IT    O5 1710   1.920   4.707   1.699
   55X2IT    O4 1711   2.137   4.760   1.752
   55X2IT   C13 1712   2.097   4.788   1.888
   55X2IT   C10 1713   2.091   4.660   1.972
   55X2IT    C9 1714   2.057   4.686   2.117
   55X2IT    C4 1715   2.157   4.637   2.200
   55X2IT    C5 1716   2.155   4.648   2.349
   55X2IT    O1 1717   2.247   4.598   2.415
   55X2IT    C6 1718   2.042   4.716   2.407
   55X2IT   C12 1719   2.033   4.730   2.558
   55X2IT    C7 1720   1.941   4.763   2.325
   55X2IT    C8 1721   1.944   4.751   2.173
   55X2IT    O2 1722   1.851   4.802   2.109
   55X2IT    N3 1723   1.831   4.826   2.370
   55X2IT   H15 1724   1.814   4.844   2.468
   55X2IT   H16 1725   1.764   4.859   2.300
   55X2IT    N2 1726   2.253   4.572   2.130
   55X2IT    C3 1727   2.397   4.565   2.160
   55X2IT    C2 1728   2.459   4.627   2.035
   55X2IT    H2 1729   2.564   4.606   2.011
   55X2IT    N1 1730   2.401   4.759   2.003
   55X2IT   H14 1731   2.466   4.811   1.943
   55X2IT    C1 1732   2.356   4.639   1.929
   55X2IT    H1 1733   2.377   4.627   1.824
   55X2IT   C11 1734   2.227   4.580   1.983
   55X2IT    O3 1735   2.220   4.451   1.924
   55X2IT   C15 1736   2.131   4.356   1.984
   56SOL     OW 1737   0.230   0.628   0.113
   56SOL    HW1 1738   0.137   0.626   0.150
   56SOL    HW2 1739   0.231   0.589   0.021
   57SOL     OW 1740   0.225   0.275   0.996
   57SOL    HW1 1741   0.260   0.258   1.088
   57SOL    HW2 1742   0.137   0.230   0.984
   58SOL     OW 1743   1.555   1.511   0.703
   58SOL    HW1 1744   1.498   1.495   0.784
   58SOL    HW2 1745   1.496   1.521   0.623
   59SOL     OW 1746   1.135   0.703   0.717
   59SOL    HW1 1747   1.192   0.781   0.692
   59SOL    HW2 1748   1.075   0.729   0.793
   60SOL     OW 1749   0.768   1.144   1.023
   60SOL    HW1 1750   0.690   1.161   1.083
   60SOL    HW2 1751   0.802   1.231   0.987
   61SOL     OW 1752   0.850   0.798   1.823
   61SOL    HW1 1753   0.846   0.874   1.888
   61SOL    HW2 1754   0.872   0.834   1.732
   62SOL     OW 1755   0.685   1.012   0.665
   62SOL    HW1 1756   0.754   0.996   0.735
   62SOL    HW2 1757   0.612   1.069   0.703
   63SOL     OW 1758   0.686   1.161   1.803
   63SOL    HW1 1759   0.746   1.240   1.817
   63SOL    HW2 1760   0.600   1.192   1.762
   64SOL     OW 1761   1.460   1.505   1.339
   64SOL    HW1 1762   1.484   1.599   1.365
   64SOL    HW2 1763   1.444   1.451   1.421
   65SOL     OW 1764   0.438   0.392   1.499
   65SOL    HW1 1765   0.520   0.336   1.508
   65SOL    HW2 1766   0.357   0.334   1.503
   66SOL     OW 1767   1.603   0.447   0.737
   66SOL    HW1 1768   1.529   0.493   0.687
   66SOL    HW2 1769   1.654   0.515   0.790
   67SOL     OW 1770   1.127   1.341   1.690
   67SOL    HW1 1771   1.174   1.341   1.778
   67SOL    HW2 1772   1.079   1.254   1.679
   68SOL     OW 1773   0.240   1.091   0.886
   68SOL    HW1 1774   0.254   1.007   0.938
   68SOL    HW2 1775   0.185   1.155   0.941
   69SOL     OW 1776   0.620   1.786   1.439
   69SOL    HW1 1777   0.528   1.769   1.474
   69SOL    HW2 1778   0.648   1.878   1.465
   70SOL     OW 1779   0.606   0.964   0.123
   70SOL    HW1 1780   0.613   1.048   0.069
   70SOL    HW2 1781   0.652   0.977   0.211
   71SOL     OW 1782   1.594   0.114   1.480
   71SOL    HW1 1783   1.576   0.181   1.408
   71SOL    HW2 1784   1.591   0.160   1.569
   72SOL     OW 1785   1.842   1.767   0.359
   72SOL    HW1 1786   1.896   1.738   0.439
   72SOL    HW2 1787   1.872   1.857   0.330
   73SOL     OW 1788   0.027   1.596   0.117
   73SOL    HW1 1789   0.008   1.500   0.138
   73SOL    HW2 1790  -0.006   1.654   0.192
   74SOL     OW 1791   1.689   0.922   0.612
   74SOL    HW1 1792   1.784   0.893   0.620
   74SOL    HW2 1793   1.681   0.987   0.537
   75SOL     OW 1794   1.641   1.108   0.432
   75SOL    HW1 1795   1.727   1.110   0.380
   75SOL    HW2 1796   1.655   1.155   0.520
   76SOL     OW 1797   0.113   0.737   1.597
   76SOL    HW1 1798   0.201   0.724   1.642
   76SOL    HW2 1799   0.100   0.834   1.575
   77SOL     OW 1800   1.293   1.228   1.423
   77SOL    HW1 1801   1.330   1.155   1.365
   77SOL    HW2 1802   1.345   1.233   1.508
   78SOL     OW 1803   0.809   0.004   0.502
   78SOL    HW1 1804   0.849   0.095   0.493
   78SOL    HW2 1805   0.709   0.012   0.508
   79SOL     OW 1806   0.197   0.976   1.264
   79SOL    HW1 1807   0.286   0.931   1.250
   79SOL    HW2 1808   0.124   0.911   1.245
   80SOL     OW 1809   1.187   1.792   1.616
   80SOL    HW1 1810   1.211   1.852   1.540
   80SOL    HW2 1811   1.194   1.697   1.586
   81SOL     OW 1812   0.317   0.251   1.801
   81SOL    HW1 1813   0.388   0.322   1.807
   81SOL    HW2 1814   0.229   0.290   1.829
   82SOL     OW 1815   1.466   1.417   0.953
   82SOL    HW1 1816   1.407   1.423   1.033
   82SOL    HW2 1817   1.451   1.329   0.907
   83SOL     OW 1818   1.667   1.714   0.572
   83SOL    HW1 1819   1.626   1.691   0.484
   83SOL    HW2 1820   1.649   1.640   0.637
   84SOL     OW 1821   0.598   0.729   0.270
   84SOL    HW1 1822   0.622   0.798   0.202
   84SOL    HW2 1823   0.520   0.762   0.324
   85SOL     OW 1824   1.281   0.345   0.944
   85SOL    HW1 1825   1.195   0.295   0.931
   85SOL    HW2 1826   1.343   0.291   1.000
   86SOL     OW 1827   1.576   1.662   0.307
   86SOL    HW1 1828   1.665   1.708   0.310
   86SOL    HW2 1829   1.555   1.638   0.212
   87SOL     OW 1830   0.807   0.605   1.465
   87SOL    HW1 1831   0.760   0.602   1.554
   87SOL    HW2 1832   0.756   0.550   1.399
   88SOL     OW 1833   1.394   0.469   1.674
   88SOL    HW1 1834   1.374   0.512   1.762
   88SOL    HW2 1835   1.472   0.407   1.683
   89SOL     OW 1836   0.973   0.890   1.572
   89SOL    HW1 1837   1.019   0.806   1.543
   89SOL    HW2 1838   0.917   0.924   1.497
   90SOL     OW 1839   0.991   0.410   1.242
   90SOL    HW1 1840   0.914   0.444   1.296
   90SOL    HW2 1841   0.957   0.359   1.163
   91SOL     OW 1842   0.076   0.811   0.789
   91SOL    HW1 1843   0.175   0.799   0.798
   91SOL    HW2 1844   0.052   0.906   0.810
   92SOL     OW 1845   1.719   0.585   1.831
   92SOL    HW1 1846   1.693   0.674   1.795
   92SOL    HW2 1847   1.717   0.517   1.758
   93SOL     OW 1848   1.362   1.144   0.545
   93SOL    HW1 1849   1.445   1.115   0.497
   93SOL    HW2 1850   1.313   1.211   0.489
   94SOL     OW 1851   0.550   0.196   0.885
   94SOL    HW1 1852   0.545   0.191   0.985
   94SOL    HW2 1853   0.552   0.292   0.856
   95SOL     OW 1854   1.795   1.066   0.873
   95SOL    HW1 1855   1.733   1.051   0.797
   95SOL    HW2 1856   1.743   1.077   0.958
   96SOL     OW 1857   1.227   1.550   1.506
   96SOL    HW1 1858   1.233   1.473   1.570
   96SOL    HW2 1859   1.175   1.524   1.426
   97SOL     OW 1860   0.321   0.943   0.242
   97SOL    HW1 1861   0.403   0.982   0.200
   97SOL    HW2 1862   0.294   0.861   0.193
   98SOL     OW 1863   1.458   0.735   0.728
   98SOL    HW1 1864   1.453   0.670   0.803
   98SOL    HW2 1865   1.538   0.794   0.741
   99SOL     OW 1866   0.461   1.266   1.727
   99SOL    HW1 1867   0.411   1.267   1.641
   99SOL    HW2 1868   0.398   1.248   1.803
  100SOL     OW 1869   1.111   1.776   0.237
  100SOL    HW1 1870   1.051   1.714   0.287
  100SOL    HW2 1871   1.142   1.732   0.152
  101SOL     OW 1872   0.202   0.285   1.498
  101SOL    HW1 1873   0.122   0.345   1.485
  101SOL    HW2 1874   0.192   0.236   1.584
  102SOL     OW 1875   1.632   1.377   0.081
  102SOL    HW1 1876   1.600   1.471   0.071
  102SOL    HW2 1877   1.556   1.314   0.069
  103SOL     OW 1878   0.464   1.743   0.323
  103SOL    HW1 1879   0.497   1.782   0.409
  103SOL    HW2 1880   0.540   1.736   0.258
  104SOL     OW 1881   1.400   0.107   0.426
  104SOL    HW1 1882   1.376   0.070   0.336
  104SOL    HW2 1883   1.499   0.123   0.430
  105SOL     OW 1884   1.547   0.222   1.729
  105SOL    HW1 1885   1.542   0.259   1.821
  105SOL    HW2 1886   1.475   0.153   1.717
  106SOL     OW 1887   0.614   0.122   0.117
  106SOL    HW1 1888   0.712   0.100   0.124
  106SOL    HW2 1889   0.583   0.105   0.024
  107SOL     OW 1890   0.781   0.264   1.749
  107SOL    HW1 1891   0.848   0.203   1.792
  107SOL    HW2 1892   0.708   0.283   1.814
  108SOL     OW 1893   1.351   0.590   1.433
  108SOL    HW1 1894   1.379   0.547   1.518
  108SOL    HW2 1895   1.376   0.686   1.434
  109SOL     OW 1896   0.922   0.503   0.899
  109SOL    HW1 1897   0.897   0.494   0.803
  109SOL    HW2 1898   0.970   0.421   0.930
  110SOL     OW 1899   0.539   0.064   0.512
  110SOL    HW1 1900   0.458   0.065   0.570
  110SOL    HW2 1901   0.542   0.147   0.457
  111SOL     OW 1902   1.434   1.188   0.041
  111SOL    HW1 1903   1.466   1.112   0.098
  111SOL    HW2 1904   1.342   1.215   0.071
  112SOL     OW 1905   0.297   0.035   0.171
  112SOL    HW1 1906   0.346   0.119   0.150
  112SOL    HW2 1907   0.359  -0.030   0.216
  113SOL     OW 1908   1.076   0.683   1.464
  113SOL    HW1 1909   0.996   0.622   1.467
  113SOL    HW2 1910   1.157   0.630   1.440
  114SOL     OW 1911   1.227   1.570   0.793
  114SOL    HW1 1912   1.248   1.644   0.728
  114SOL    HW2 1913   1.295   1.570   0.866
  115SOL     OW 1914   1.271   1.797   0.591
  115SOL    HW1 1915   1.315   1.861   0.527
  115SOL    HW2 1916   1.221   1.849   0.661
  116SOL     OW 1917   0.078   0.556   1.386
  116SOL    HW1 1918   0.170   0.555   1.345
  116SOL    HW2 1919   0.072   0.630   1.453
  117SOL     OW 1920   0.561   0.222   1.147
  117SOL    HW1 1921   0.599   0.138   1.184
  117SOL    HW2 1922   0.473   0.241   1.191
  118SOL     OW 1923   0.866   0.454   0.642
  118SOL    HW1 1924   0.834   0.526   0.580
  118SOL    HW2 1925   0.890   0.373   0.589
  119SOL     OW 1926   1.017   0.039   0.753
  119SOL    HW1 1927   0.945   0.044   0.684
  119SOL    HW2 1928   0.993  -0.030   0.822
  120SOL     OW 1929   1.429   1.173   0.867
  120SOL    HW1 1930   1.374   1.089   0.860
  120SOL    HW2 1931   1.455   1.202   0.775
  121SOL     OW 1932   1.466   0.590   0.992
  121SOL    HW1 1933   1.436   0.495   0.999
  121SOL    HW2 1934   1.539   0.606   1.058
  122SOL     OW 1935   1.857   0.833   0.377
  122SOL    HW1 1936   1.899   0.769   0.441
  122SOL    HW2 1937   1.819   0.782   0.299
  123SOL     OW 1938   0.488   1.385   0.174
  123SOL    HW1 1939   0.401   1.370   0.221
  123SOL    HW2 1940   0.471   1.411   0.079
  124SOL     OW 1941   1.664   1.280   0.657
  124SOL    HW1 1942   1.763   1.288   0.671
  124SOL    HW2 1943   1.619   1.364   0.688
  125SOL     OW 1944   1.390   0.575   0.078
  125SOL    HW1 1945   1.336   0.554   0.159
  125SOL    HW2 1946   1.481   0.534   0.087
  126SOL     OW 1947   0.527   0.256   0.328
  126SOL    HW1 1948   0.554   0.197   0.253
  126SOL    HW2 1949   0.527   0.351   0.297
  127SOL     OW 1950   1.754   1.223   1.588
  127SOL    HW1 1951   1.845   1.184   1.575
  127SOL    HW2 1952   1.762   1.319   1.612
  128SOL     OW 1953   1.064   1.347   1.340
  128SOL    HW1 1954   0.984   1.324   1.395
  128SOL    HW2 1955   1.147   1.321   1.389
  129SOL     OW 1956   1.592   1.629   1.625
  129SOL    HW1 1957   1.619   1.663   1.535
  129SOL    HW2 1958   1.671   1.591   1.671
  130SOL     OW 1959   1.111   1.195   1.100
  130SOL    HW1 1960   1.071   1.239   1.181
  130SOL    HW2 1961   1.070   1.232   1.017
  131SOL     OW 1962   1.638   1.099   1.079
  131SOL    HW1 1963   1.643   1.180   1.138
  131SOL    HW2 1964   1.552   1.101   1.028
  132SOL     OW 1965   0.915   0.089   1.402
  132SOL    HW1 1966   0.940   0.069   1.307
  132SOL    HW2 1967   0.987   0.145   1.444
  133SOL     OW 1968   0.980   1.116   1.719
  133SOL    HW1 1969   0.881   1.122   1.729
  133SOL    HW2 1970   1.003   1.036   1.663
  134SOL     OW 1971   0.705   1.050   0.368
  134SOL    HW1 1972   0.691   1.057   0.467
  134SOL    HW2 1973   0.789   0.999   0.350
  135SOL     OW 1974   0.410   0.813   1.251
  135SOL    HW1 1975   0.496   0.825   1.301
  135SOL    HW2 1976   0.368   0.726   1.278
  136SOL     OW 1977   1.274   0.386   1.262
  136SOL    HW1 1978   1.295   0.460   1.326
  136SOL    HW2 1979   1.185   0.403   1.219
  137SOL     OW 1980   0.064   1.564   1.331
  137SOL    HW1 1981   0.018   1.646   1.297
  137SOL    HW2 1982   0.162   1.583   1.340
  138SOL     OW 1983   0.566   0.537   0.865
  138SOL    HW1 1984   0.578   0.603   0.791
  138SOL    HW2 1985   0.612   0.571   0.948
  139SOL     OW 1986   1.252   1.348   0.388
  139SOL    HW1 1987   1.302   1.425   0.428
  139SOL    HW2 1988   1.157   1.350   0.420
  140SOL     OW 1989   1.272   1.445   1.142
  140SOL    HW1 1990   1.319   1.458   1.229
  140SOL    HW2 1991   1.206   1.371   1.151
  141SOL     OW 1992   0.354   1.510   1.329
  141SOL    HW1 1993   0.333   1.466   1.242
  141SOL    HW2 1994   0.451   1.536   1.332
  142SOL     OW 1995   0.402   0.751   1.598
  142SOL    HW1 1996   0.470   0.806   1.551
  142SOL    HW2 1997   0.442   0.663   1.625
  143SOL     OW 1998   1.587   0.779   1.670
  143SOL    HW1 1999   1.495   0.817   1.665
  143SOL    HW2 2000   1.647   0.826   1.605
  144SOL     OW 2001   1.013   0.105   1.770
  144SOL    HW1 2002   1.019   0.190   1.718
  144SOL    HW2 2003   1.045   0.029   1.713
  145SOL     OW 2004   0.504   0.050   1.740
  145SOL    HW1 2005   0.462  -0.007   1.670
  145SOL    HW2 2006   0.438   0.119   1.772
  146SOL     OW 2007   0.573   0.870   1.029
  146SOL    HW1 2008   0.617   0.959   1.020
  146SOL    HW2 2009   0.510   0.870   1.106
  147SOL     OW 2010   1.360   0.862   1.045
  147SOL    HW1 2011   1.285   0.862   0.979
  147SOL    HW2 2012   1.397   0.770   1.054
  148SOL     OW 2013   0.307   0.213   1.231
  148SOL    HW1 2014   0.284   0.250   1.321
  148SOL    HW2 2015   0.277   0.118   1.225
  149SOL     OW 2016   0.037   1.310   1.282
  149SOL    HW1 2017   0.090   1.261   1.350
  149SOL    HW2 2018   0.059   1.408   1.287
  150SOL     OW 2019   0.732   0.634   1.064
  150SOL    HW1 2020   0.791   0.608   0.988
  150SOL    HW2 2021   0.704   0.730   1.053
  151SOL     OW 2022   1.728   0.935   1.854
  151SOL    HW1 2023   1.682   0.928   1.765
  151SOL    HW2 2024   1.666   0.979   1.920
  152SOL     OW 2025   1.023   0.766   0.966
  152SOL    HW1 2026   1.038   0.787   1.062
  152SOL    HW2 2027   0.993   0.671   0.957
  153SOL     OW 2028   0.980   1.573   1.700
  153SOL    HW1 2029   0.960   1.617   1.612
  153SOL    HW2 2030   1.019   1.482   1.684
  154SOL     OW 2031   1.859   1.518   1.605
  154SOL    HW1 2032   1.873   1.545   1.510
  154SOL    HW2 2033   1.942   1.540   1.658
  155SOL     OW 2034   0.350   0.898   1.804
  155SOL    HW1 2035   0.426   0.942   1.852
  155SOL    HW2 2036   0.385   0.851   1.722
  156SOL     OW 2037   1.540   0.274   0.125
  156SOL    HW1 2038   1.479   0.199   0.148
  156SOL    HW2 2039   1.562   0.326   0.208
  157SOL     OW 2040   1.303   0.838   0.042
  157SOL    HW1 2041   1.337   0.745   0.057
  157SOL    HW2 2042   1.321   0.865  -0.053
  158SOL     OW 2043   1.068   1.333   0.849
  158SOL    HW1 2044   1.075   1.249   0.794
  158SOL    HW2 2045   1.130   1.402   0.813
  159SOL     OW 2046   0.319   0.810   0.949
  159SOL    HW1 2047   0.412   0.846   0.954
  159SOL    HW2 2048   0.313   0.725   1.001
  160SOL     OW 2049   0.339   0.509   1.006
  160SOL    HW1 2050   0.287   0.426   0.989
  160SOL    HW2 2051   0.416   0.514   0.942
  161SOL     OW 2052   1.138   0.380   1.678
  161SOL    HW1 2053   1.093   0.443   1.742
  161SOL    HW2 2054   1.231   0.411   1.661
  162SOL     OW 2055   1.160   0.207   1.477
  162SOL    HW1 2056   1.160   0.271   1.554
  162SOL    HW2 2057   1.188   0.255   1.394
  163SOL     OW 2058   0.008   1.326   0.200
  163SOL    HW1 2059  -0.085   1.347   0.169
  163SOL    HW2 2060   0.018   1.227   0.213
  164SOL     OW 2061   0.088   1.801   0.927
  164SOL    HW1 2062   0.046   1.715   0.900
  164SOL    HW2 2063   0.182   1.804   0.893
  165SOL     OW 2064   1.002   0.796   1.238
  165SOL    HW1 2065   1.043   0.764   1.324
  165SOL    HW2 2066   0.906   0.769   1.235
  166SOL     OW 2067   0.040   0.544   1.114
  166SOL    HW1 2068   0.125   0.511   1.073
  166SOL    HW2 2069   0.053   0.559   1.212
  167SOL     OW 2070   0.189   0.520   1.722
  167SOL    HW1 2071   0.248   0.480   1.652
  167SOL    HW2 2072   0.131   0.591   1.681
  168SOL     OW 2073   1.369   0.950   1.660
  168SOL    HW1 2074   1.408   1.039   1.680
  168SOL    HW2 2075   1.379   0.930   1.563
  169SOL     OW 2076   1.657   0.604   1.206
  169SOL    HW1 2077   1.619   0.535   1.268
  169SOL    HW2 2078   1.739   0.568   1.162
  170SOL     OW 2079   0.671   0.464   1.269
  170SOL    HW1 2080   0.637   0.375   1.239
  170SOL    HW2 2081   0.697   0.518   1.189
  171SOL     OW 2082   0.930   1.678   1.465
  171SOL    HW1 2083   0.906   1.660   1.370
  171SOL    HW2 2084   0.960   1.772   1.475
  172SOL     OW 2085   0.473   0.500   0.191
  172SOL    HW1 2086   0.534   0.580   0.195
  172SOL    HW2 2087   0.378   0.531   0.198
  173SOL     OW 2088   0.159   1.137   1.466
  173SOL    HW1 2089   0.181   1.076   1.542
  173SOL    HW2 2090   0.169   1.088   1.380
  174SOL     OW 2091   1.347   1.059   1.234
  174SOL    HW1 2092   1.371   0.996   1.160
  174SOL    HW2 2093   1.257   1.099   1.216
  175SOL     OW 2094   1.759   1.747   1.154
  175SOL    HW1 2095   1.820   1.777   1.081
  175SOL    HW2 2096   1.721   1.658   1.132
  176SOL     OW 2097   1.252   1.731   1.128
  176SOL    HW1 2098   1.336   1.736   1.074
  176SOL    HW2 2099   1.229   1.635   1.146
  177SOL     OW 2100   0.083   1.258   1.022
  177SOL    HW1 2101   0.078   1.257   1.122
  177SOL    HW2 2102   0.000   1.217   0.984
  178SOL     OW 2103   0.688   1.662   1.716
  178SOL    HW1 2104   0.632   1.743   1.725
  178SOL    HW2 2105   0.740   1.666   1.630
  179SOL     OW 2106   0.903   0.086   0.133
  179SOL    HW1 2107   0.954   0.087   0.047
  179SOL    HW2 2108   0.959   0.044   0.204
  180SOL     OW 2109   1.726   0.135   0.523
  180SOL    HW1 2110   1.799   0.118   0.456
  180SOL    HW2 2111   1.695   0.048   0.561
  181SOL     OW 2112   1.388   1.573   0.477
  181SOL    HW1 2113   1.455   1.585   0.403
  181SOL    HW2 2114   1.348   1.662   0.500
  182SOL     OW 2115   1.280   0.927   0.672
  182SOL    HW1 2116   1.340   0.846   0.674
  182SOL    HW2 2117   1.320   0.996   0.612
  183SOL     OW 2118   0.830   1.273   1.422
  183SOL    HW1 2119   0.825   1.306   1.517
  183SOL    HW2 2120   0.744   1.292   1.376
  184SOL     OW 2121   0.672   1.616   0.154
  184SOL    HW1 2122   0.681   1.626   0.055
  184SOL    HW2 2123   0.632   1.527   0.175
  185SOL     OW 2124   1.650   1.720   1.394
  185SOL    HW1 2125   1.703   1.730   1.310
  185SOL    HW2 2126   1.623   1.810   1.428
  186SOL     OW 2127   1.841   0.175   0.963
  186SOL    HW1 2128   1.880   0.090   0.927
  186SOL    HW2 2129   1.743   0.177   0.944
  187SOL     OW 2130   1.194   1.612   0.031
  187SOL    HW1 2131   1.200   1.519   0.068
  187SOL    HW2 2132   1.135   1.612  -0.049
  188SOL     OW 2133   0.822   1.002   1.372
  188SOL    HW1 2134   0.862   1.001   1.280
  188SOL    HW2 2135   0.832   1.094   1.412
  189SOL     OW 2136   0.916   0.910   0.291
  189SOL    HW1 2137   0.979   0.948   0.223
  189SOL    HW2 2138   0.956   0.827   0.330
  190SOL     OW 2139   1.504   1.607   0.044
  190SOL    HW1 2140   1.412   1.644   0.051
  190SOL    HW2 2141   1.542   1.627  -0.046
  191SOL     OW 2142   0.372   1.288   1.490
  191SOL    HW1 2143   0.359   1.381   1.456
  191SOL    HW2 2144   0.288   1.236   1.477
  192SOL     OW 2145   1.614   1.292   1.289
  192SOL    HW1 2146   1.674   1.295   1.369
  192SOL    HW2 2147   1.539   1.356   1.302
  193SOL     OW 2148   1.039   1.098   0.696
  193SOL    HW1 2149   0.969   1.051   0.750
  193SOL    HW2 2150   1.098   1.030   0.653
  194SOL     OW 2151   1.014   0.236   0.971
  194SOL    HW1 2152   1.006   0.200   0.878
  194SOL    HW2 2153   1.012   0.160   1.036
  195SOL     OW 2154   1.709   0.385   1.381
  195SOL    HW1 2155   1.782   0.454   1.385
  195SOL    HW2 2156   1.737   0.310   1.322
  196SOL     OW 2157   0.105   1.013   1.726
  196SOL    HW1 2158   0.028   0.980   1.780
  196SOL    HW2 2159   0.190   0.983   1.768
  197SOL     OW 2160   0.672   0.203   1.489
  197SOL    HW1 2161   0.762   0.187   1.449
  197SOL    HW2 2162   0.680   0.208   1.588
  198SOL     OW 2163   0.075   0.345   0.033
  198SOL    HW1 2164  -0.017   0.317   0.004
  198SOL    HW2 2165   0.106   0.422  -0.023
  199SOL     OW 2166   1.440   0.856   1.398
  199SOL    HW1 2167   1.383   0.908   1.335
  199SOL    HW2 2168   1.536   0.868   1.374
  200SOL     OW 2169   0.072   0.166   0.318
  200SOL    HW1 2170   0.055   0.249   0.264
  200SOL    HW2 2171   0.162   0.129   0.296
  201SOL     OW 2172   1.183   1.335   0.119
  201SOL    HW1 2173   1.084   1.324   0.121
  201SOL    HW2 2174   1.217   1.350   0.212
  202SOL     OW 2175   0.613   0.842   1.431
  202SOL    HW1 2176   0.669   0.923   1.414
  202SOL    HW2 2177   0.672   0.762   1.434
  203SOL     OW 2178   1.493   1.767   0.959
  203SOL    HW1 2179   1.526   1.831   0.890
  203SOL    HW2 2180   1.559   1.761   1.034
  204SOL     OW 2181   0.716   0.565   1.708
  204SOL    HW1 2182   0.735   0.630   1.782
  204SOL    HW2 2183   0.776   0.485   1.717
  205SOL     OW 2184   1.450   1.220   1.633
  205SOL    HW1 2185   1.441   1.210   1.732
  205SOL    HW2 2186   1.546   1.213   1.607
  206SOL     OW 2187   1.674   0.883   1.254
  206SOL    HW1 2188   1.647   0.794   1.217
  206SOL    HW2 2189   1.675   0.951   1.181
  207SOL     OW 2190   0.594   0.745   0.652
  207SOL    HW1 2191   0.644   0.830   0.633
  207SOL    HW2 2192   0.506   0.747   0.604
  208SOL     OW 2193   1.777   0.342   1.642
  208SOL    HW1 2194   1.760   0.373   1.548
  208SOL    HW2 2195   1.693   0.305   1.680
  209SOL     OW 2196   1.730   0.934   1.517
  209SOL    HW1 2197   1.768   1.025   1.532
  209SOL    HW2 2198   1.722   0.917   1.418
  210SOL     OW 2199   0.661   1.790   0.953
  210SOL    HW1 2200   0.615   1.878   0.940
  210SOL    HW2 2201   0.760   1.802   0.946
  211SOL     OW 2202   0.859   0.956   0.861
  211SOL    HW1 2203   0.913   0.887   0.909
  211SOL    HW2 2204   0.827   1.025   0.927
  212SOL     OW 2205   1.861   1.569   0.851
  212SOL    HW1 2206   1.790   1.557   0.781
  212SOL    HW2 2207   1.862   1.490   0.911
  213SOL     OW 2208   0.221   1.314   1.844
  213SOL    HW1 2209   0.156   1.241   1.823
  213SOL    HW2 2210   0.225   1.328   1.942
  214SOL     OW 2211   0.079   1.240   0.653
  214SOL    HW1 2212   0.078   1.193   0.741
  214SOL    HW2 2213   0.161   1.212   0.602
  215SOL     OW 2214   0.672   1.391   1.624
  215SOL    HW1 2215   0.594   1.341   1.662
  215SOL    HW2 2216   0.669   1.486   1.655
  216SOL     OW 2217   1.824   0.192   1.227
  216SOL    HW1 2218   1.820   0.102   1.271
  216SOL    HW2 2219   1.827   0.181   1.128
  217SOL     OW 2220   0.428   0.424   0.520
  217SOL    HW1 2221   0.458   0.352   0.458
  217SOL    HW2 2222   0.389   0.384   0.603
  218SOL     OW 2223   1.705   1.487   1.104
  218SOL    HW1 2224   1.612   1.462   1.077
  218SOL    HW2 2225   1.731   1.437   1.186
  219SOL     OW 2226   0.317   0.547   1.280
  219SOL    HW1 2227   0.355   0.488   1.352
  219SOL    HW2 2228   0.357   0.521   1.192
  220SOL     OW 2229   1.424   0.214   1.112
  220SOL    HW1 2230   1.476   0.149   1.167
  220SOL    HW2 2231   1.375   0.277   1.173
  221SOL     OW 2232   1.001   0.034   1.154
  221SOL    HW1 2233   0.938  -0.038   1.123
  221SOL    HW2 2234   1.094  -0.002   1.154
  222SOL     OW 2235   0.618   1.567   1.284
  222SOL    HW1 2236   0.613   1.649   1.341
  222SOL    HW2 2237   0.707   1.564   1.239
  223SOL     OW 2238   1.352   0.052   0.168
  223SOL    HW1 2239   1.387   0.011   0.084
  223SOL    HW2 2240   1.262   0.014   0.188
  224SOL     OW 2241   1.300   0.453   0.691
  224SOL    HW1 2242   1.241   0.533   0.695
  224SOL    HW2 2243   1.315   0.418   0.784
  225SOL     OW 2244   1.593   0.221   0.882
  225SOL    HW1 2245   1.509   0.220   0.936
  225SOL    HW2 2246   1.595   0.304   0.826
  226SOL     OW 2247   0.039   1.077   0.300
  226SOL    HW1 2248   0.138   1.066   0.291
  226SOL    HW2 2249  -0.001   0.991   0.332
  227SOL     OW 2250   0.875   1.646   0.337
  227SOL    HW1 2251   0.798   1.611   0.283
  227SOL    HW2 2252   0.843   1.717   0.399
  228SOL     OW 2253   0.230   0.628   1.975
  228SOL    HW1 2254   0.137   0.626   2.012
  228SOL    HW2 2255   0.231   0.589   1.883
  229SOL     OW 2256   0.225   0.275   2.858
  229SOL    HW1 2257   0.260   0.258   2.950
  229SOL    HW2 2258   0.137   0.230   2.846
  230SOL     OW 2259   0.019   0.368   2.509
  230SOL    HW1 2260  -0.063   0.411   2.548
  230SOL    HW2 2261  -0.009   0.295   2.446
  231SOL     OW 2262   0.569   1.275   3.027
  231SOL    HW1 2263   0.476   1.268   2.990
  231SOL    HW2 2264   0.580   1.364   3.071
  232SOL     OW 2265   1.555   1.511   2.565
  232SOL    HW1 2266   1.498   1.495   2.646
  232SOL    HW2 2267   1.496   1.521   2.485
  233SOL     OW 2268   1.755   0.607   2.093
  233SOL    HW1 2269   1.743   0.594   1.994
  233SOL    HW2 2270   1.725   0.526   2.142
  234SOL     OW 2271   0.768   1.144   2.885
  234SOL    HW1 2272   0.690   1.161   2.945
  234SOL    HW2 2273   0.802   1.231   2.849
  235SOL     OW 2274   0.850   0.798   3.685
  235SOL    HW1 2275   0.846   0.874   3.750
  235SOL    HW2 2276   0.872   0.834   3.594
  236SOL     OW 2277   0.685   1.012   2.527
  236SOL    HW1 2278   0.754   0.996   2.597
  236SOL    HW2 2279   0.612   1.069   2.565
  237SOL     OW 2280   0.686   1.161   3.665
  237SOL    HW1 2281   0.746   1.240   3.679
  237SOL    HW2 2282   0.600   1.192   3.624
  238SOL     OW 2283   0.335   1.435   2.923
  238SOL    HW1 2284   0.257   1.404   2.870
  238SOL    HW2 2285   0.393   1.493   2.866
  239SOL     OW 2286   0.438   0.392   3.361
  239SOL    HW1 2287   0.520   0.336   3.370
  239SOL    HW2 2288   0.357   0.334   3.365
  240SOL     OW 2289   1.603   0.447   2.599
  240SOL    HW1 2290   1.529   0.493   2.549
  240SOL    HW2 2291   1.654   0.515   2.652
  241SOL     OW 2292   0.231   1.713   2.345
  241SOL    HW1 2293   0.265   1.790   2.399
  241SOL    HW2 2294   0.275   1.713   2.255
  242SOL     OW 2295   1.127   1.341   3.552
  242SOL    HW1 2296   1.174   1.341   3.640
  242SOL    HW2 2297   1.079   1.254   3.541
  243SOL     OW 2298   0.230   1.434   2.400
  243SOL    HW1 2299   0.204   1.530   2.400
  243SOL    HW2 2300   0.159   1.380   2.445
  244SOL     OW 2301   0.240   1.091   2.748
  244SOL    HW1 2302   0.254   1.007   2.800
  244SOL    HW2 2303   0.185   1.155   2.803
  245SOL     OW 2304   0.620   1.786   3.301
  245SOL    HW1 2305   0.528   1.769   3.336
  245SOL    HW2 2306   0.648   1.878   3.327
  246SOL     OW 2307   0.606   0.964   1.985
  246SOL    HW1 2308   0.613   1.048   1.931
  246SOL    HW2 2309   0.652   0.977   2.073
  247SOL     OW 2310   0.122   0.643   2.425
  247SOL    HW1 2311   0.077   0.555   2.442
  247SOL    HW2 2312   0.121   0.697   2.509
  248SOL     OW 2313   1.842   1.767   2.221
  248SOL    HW1 2314   1.896   1.738   2.301
  248SOL    HW2 2315   1.872   1.857   2.192
  249SOL     OW 2316   0.027   1.596   1.979
  249SOL    HW1 2317   0.008   1.500   2.000
  249SOL    HW2 2318  -0.006   1.654   2.054
  250SOL     OW 2319   1.689   0.922   2.474
  250SOL    HW1 2320   1.784   0.893   2.482
  250SOL    HW2 2321   1.681   0.987   2.399
  251SOL     OW 2322   1.641   1.108   2.294
  251SOL    HW1 2323   1.727   1.110   2.242
  251SOL    HW2 2324   1.655   1.155   2.382
  252SOL     OW 2325   0.113   0.737   3.459
  252SOL    HW1 2326   0.201   0.724   3.504
  252SOL    HW2 2327   0.100   0.834   3.437
  253SOL     OW 2328   0.613   1.365   2.588
  253SOL    HW1 2329   0.564   1.278   2.597
  253SOL    HW2 2330   0.590   1.408   2.501
  254SOL     OW 2331   0.809   0.004   2.364
  254SOL    HW1 2332   0.849   0.095   2.355
  254SOL    HW2 2333   0.709   0.012   2.370
  255SOL     OW 2334   0.197   0.976   3.126
  255SOL    HW1 2335   0.286   0.931   3.112
  255SOL    HW2 2336   0.124   0.911   3.107
  256SOL     OW 2337   1.525   0.999   2.052
  256SOL    HW1 2338   1.462   0.923   2.065
  256SOL    HW2 2339   1.573   1.017   2.138
  257SOL     OW 2340   1.466   1.417   2.815
  257SOL    HW1 2341   1.407   1.423   2.895
  257SOL    HW2 2342   1.451   1.329   2.769
  258SOL     OW 2343   1.667   1.714   2.434
  258SOL    HW1 2344   1.626   1.691   2.346
  258SOL    HW2 2345   1.649   1.640   2.499
  259SOL     OW 2346   0.598   0.729   2.132
  259SOL    HW1 2347   0.622   0.798   2.064
  259SOL    HW2 2348   0.520   0.762   2.186
  260SOL     OW 2349   1.281   0.345   2.806
  260SOL    HW1 2350   1.195   0.295   2.793
  260SOL    HW2 2351   1.343   0.291   2.862
  261SOL     OW 2352   1.576   1.662   2.169
  261SOL    HW1 2353   1.665   1.708   2.172
  261SOL    HW2 2354   1.555   1.638   2.074
  262SOL     OW 2355   1.394   0.469   3.536
  262SOL    HW1 2356   1.374   0.512   3.624
  262SOL    HW2 2357   1.472   0.407   3.545
  263SOL     OW 2358   0.973   0.890   3.434
  263SOL    HW1 2359   1.019   0.806   3.405
  263SOL    HW2 2360   0.917   0.924   3.359
  264SOL     OW 2361   0.076   0.811   2.651
  264SOL    HW1 2362   0.175   0.799   2.660
  264SOL    HW2 2363   0.052   0.906   2.672
  265SOL     OW 2364   0.130   1.821   3.433
  265SOL    HW1 2365   0.120   1.806   3.532
  265SOL    HW2 2366   0.044   1.857   3.397
  266SOL     OW 2367   0.865   0.348   2.057
  266SOL    HW1 2368   0.924   0.411   2.008
  266SOL    HW2 2369   0.884   0.254   2.028
  267SOL     OW 2370   1.719   0.585   3.693
  267SOL    HW1 2371   1.693   0.674   3.657
  267SOL    HW2 2372   1.717   0.517   3.620
  268SOL     OW 2373   1.362   1.144   2.407
  268SOL    HW1 2374   1.445   1.115   2.359
  268SOL    HW2 2375   1.313   1.211   2.351
  269SOL     OW 2376   0.550   0.196   2.747
  269SOL    HW1 2377   0.545   0.191   2.847
  269SOL    HW2 2378   0.552   0.292   2.718
  270SOL     OW 2379   1.008   1.456   2.339
  270SOL    HW1 2380   0.962   1.528   2.287
  270SOL    HW2 2381   1.004   1.476   2.437
  271SOL     OW 2382   0.351   1.801   2.715
  271SOL    HW1 2383   0.401   1.715   2.721
  271SOL    HW2 2384   0.416   1.878   2.712
  272SOL     OW 2385   0.321   0.943   2.104
  272SOL    HW1 2386   0.403   0.982   2.062
  272SOL    HW2 2387   0.294   0.861   2.055
  273SOL     OW 2388   0.461   1.266   3.589
  273SOL    HW1 2389   0.411   1.267   3.503
  273SOL    HW2 2390   0.398   1.248   3.665
  274SOL     OW 2391   1.111   1.776   2.099
  274SOL    HW1 2392   1.051   1.714   2.149
  274SOL    HW2 2393   1.142   1.732   2.014
  275SOL     OW 2394   1.632   1.377   1.943
  275SOL    HW1 2395   1.600   1.471   1.933
  275SOL    HW2 2396   1.556   1.314   1.931
  276SOL     OW 2397   0.464   1.743   2.185
  276SOL    HW1 2398   0.497   1.782   2.271
  276SOL    HW2 2399   0.540   1.736   2.120
  277SOL     OW 2400   1.400   0.107   2.288
  277SOL    HW1 2401   1.376   0.070   2.198
  277SOL    HW2 2402   1.499   0.123   2.292
  278SOL     OW 2403   0.249   1.785   3.103
  278SOL    HW1 2404   0.306   1.720   3.153
  278SOL    HW2 2405   0.233   1.752   3.010
  279SOL     OW 2406   0.382   0.700   2.342
  279SOL    HW1 2407   0.427   0.610   2.339
  279SOL    HW2 2408   0.288   0.689   2.375
  280SOL     OW 2409   0.614   0.122   1.979
  280SOL    HW1 2410   0.712   0.100   1.986
  280SOL    HW2 2411   0.583   0.105   1.886
  281SOL     OW 2412   0.781   0.264   3.611
  281SOL    HW1 2413   0.848   0.203   3.654
  281SOL    HW2 2414   0.708   0.283   3.676
  282SOL     OW 2415   1.351   0.590   3.295
  282SOL    HW1 2416   1.379   0.547   3.380
  282SOL    HW2 2417   1.376   0.686   3.296
  283SOL     OW 2418   0.922   0.503   2.761
  283SOL    HW1 2419   0.897   0.494   2.665
  283SOL    HW2 2420   0.970   0.421   2.792
  284SOL     OW 2421   0.539   0.064   2.374
  284SOL    HW1 2422   0.458   0.065   2.432
  284SOL    HW2 2423   0.542   0.147   2.319
  285SOL     OW 2424   1.434   1.188   1.903
  285SOL    HW1 2425   1.466   1.112   1.960
  285SOL    HW2 2426   1.342   1.215   1.933
  286SOL     OW 2427   0.297   0.035   2.033
  286SOL    HW1 2428   0.346   0.119   2.012
  286SOL    HW2 2429   0.359  -0.030   2.078
  287SOL     OW 2430   1.076   0.683   3.326
  287SOL    HW1 2431   0.996   0.622   3.329
  287SOL    HW2 2432   1.157   0.630   3.302
  288SOL     OW 2433   1.227   1.570   2.655
  288SOL    HW1 2434   1.248   1.644   2.590
  288SOL    HW2 2435   1.295   1.570   2.728
  289SOL     OW 2436   0.459   1.152   2.603
  289SOL    HW1 2437   0.388   1.125   2.668
  289SOL    HW2 2438   0.433   1.124   2.510
  290SOL     OW 2439   1.271   1.797   2.453
  290SOL    HW1 2440   1.315   1.861   2.389
  290SOL    HW2 2441   1.221   1.849   2.523
  291SOL     OW 2442   1.032   0.549   1.878
  291SOL    HW1 2443   0.991   0.631   1.839
  291SOL    HW2 2444   1.096   0.575   1.951
  292SOL     OW 2445   0.078   0.556   3.248
  292SOL    HW1 2446   0.170   0.555   3.207
  292SOL    HW2 2447   0.072   0.630   3.315
  293SOL     OW 2448   0.561   0.222   3.009
  293SOL    HW1 2449   0.599   0.138   3.046
  293SOL    HW2 2450   0.473   0.241   3.053
  294SOL     OW 2451   1.017   0.039   2.615
  294SOL    HW1 2452   0.945   0.044   2.546
  294SOL    HW2 2453   0.993  -0.030   2.684
  295SOL     OW 2454   1.857   0.833   2.239
  295SOL    HW1 2455   1.899   0.769   2.303
  295SOL    HW2 2456   1.819   0.782   2.161
  296SOL     OW 2457   0.488   1.385   2.036
  296SOL    HW1 2458   0.401   1.370   2.083
  296SOL    HW2 2459   0.471   1.411   1.941
  297SOL     OW 2460   1.664   1.280   2.519
  297SOL    HW1 2461   1.763   1.288   2.533
  297SOL    HW2 2462   1.619   1.364   2.550
  298SOL     OW 2463   1.390   0.575   1.940
  298SOL    HW1 2464   1.336   0.554   2.021
  298SOL    HW2 2465   1.481   0.534   1.949
  299SOL     OW 2466   0.527   0.256   2.190
  299SOL    HW1 2467   0.554   0.197   2.115
  299SOL    HW2 2468   0.527   0.351   2.159
  300SOL     OW 2469   1.754   1.223   3.450
  300SOL    HW1 2470   1.845   1.184   3.437
  300SOL    HW2 2471   1.762   1.319   3.474
  301SOL     OW 2472   0.915   0.089   3.264
  301SOL    HW1 2473   0.940   0.069   3.169
  301SOL    HW2 2474   0.987   0.145   3.306
  302SOL     OW 2475   0.705   1.050   2.230
  302SOL    HW1 2476   0.691   1.057   2.329
  302SOL    HW2 2477   0.789   0.999   2.212
  303SOL     OW 2478   0.410   0.813   3.113
  303SOL    HW1 2479   0.496   0.825   3.163
  303SOL    HW2 2480   0.368   0.726   3.140
  304SOL     OW 2481   1.274   0.386   3.124
  304SOL    HW1 2482   1.295   0.460   3.188
  304SOL    HW2 2483   1.185   0.403   3.081
  305SOL     OW 2484   0.064   1.564   3.193
  305SOL    HW1 2485   0.018   1.646   3.159
  305SOL    HW2 2486   0.162   1.583   3.202
  306SOL     OW 2487   0.367   1.100   2.363
  306SOL    HW1 2488   0.360   1.183   2.307
  306SOL    HW2 2489   0.371   1.020   2.303
  307SOL     OW 2490   1.252   1.348   2.250
  307SOL    HW1 2491   1.302   1.425   2.290
  307SOL    HW2 2492   1.157   1.350   2.282
  308SOL     OW 2493   1.582   0.639   2.334
  308SOL    HW1 2494   1.551   0.700   2.407
  308SOL    HW2 2495   1.632   0.691   2.265
  309SOL     OW 2496   0.354   1.510   3.191
  309SOL    HW1 2497   0.333   1.466   3.104
  309SOL    HW2 2498   0.451   1.536   3.194
  310SOL     OW 2499   0.402   0.751   3.460
  310SOL    HW1 2500   0.470   0.806   3.413
  310SOL    HW2 2501   0.442   0.663   3.487
  311SOL     OW 2502   1.587   0.779   3.532
  311SOL    HW1 2503   1.495   0.817   3.527
  311SOL    HW2 2504   1.647   0.826   3.467
  312SOL     OW 2505   1.013   0.105   3.632
  312SOL    HW1 2506   1.019   0.190   3.580
  312SOL    HW2 2507   1.045   0.029   3.575
  313SOL     OW 2508   0.504   0.050   3.602
  313SOL    HW1 2509   0.462  -0.007   3.532
  313SOL    HW2 2510   0.438   0.119   3.634
  314SOL     OW 2511   1.209   0.525   2.137
  314SOL    HW1 2512   1.222   0.441   2.191
  314SOL    HW2 2513   1.180   0.599   2.197
  315SOL     OW 2514   0.307   0.213   3.093
  315SOL    HW1 2515   0.284   0.250   3.183
  315SOL    HW2 2516   0.277   0.118   3.087
  316SOL     OW 2517   0.037   1.310   3.144
  316SOL    HW1 2518   0.090   1.261   3.212
  316SOL    HW2 2519   0.059   1.408   3.149
  317SOL     OW 2520   1.728   0.935   3.716
  317SOL    HW1 2521   1.682   0.928   3.627
  317SOL    HW2 2522   1.666   0.979   3.782
  318SOL     OW 2523   0.307   0.063   2.480
  318SOL    HW1 2524   0.296   0.157   2.513
  318SOL    HW2 2525   0.302   0.000   2.557
  319SOL     OW 2526   1.622   0.367   2.236
  319SOL    HW1 2527   1.624   0.291   2.300
  319SOL    HW2 2528   1.574   0.444   2.276
  320SOL     OW 2529   1.859   1.518   3.467
  320SOL    HW1 2530   1.873   1.545   3.372
  320SOL    HW2 2531   1.942   1.540   3.520
  321SOL     OW 2532   0.350   0.898   3.666
  321SOL    HW1 2533   0.426   0.942   3.714
  321SOL    HW2 2534   0.385   0.851   3.584
  322SOL     OW 2535   1.540   0.274   1.987
  322SOL    HW1 2536   1.479   0.199   2.010
  322SOL    HW2 2537   1.562   0.326   2.070
  323SOL     OW 2538   1.303   0.838   1.904
  323SOL    HW1 2539   1.337   0.745   1.919
  323SOL    HW2 2540   1.321   0.865   1.809
  324SOL     OW 2541   1.068   1.333   2.711
  324SOL    HW1 2542   1.075   1.249   2.656
  324SOL    HW2 2543   1.130   1.402   2.675
  325SOL     OW 2544   0.319   0.810   2.811
  325SOL    HW1 2545   0.412   0.846   2.816
  325SOL    HW2 2546   0.313   0.725   2.863
  326SOL     OW 2547   0.339   0.509   2.868
  326SOL    HW1 2548   0.287   0.426   2.851
  326SOL    HW2 2549   0.416   0.514   2.804
  327SOL     OW 2550   1.138   0.380   3.540
  327SOL    HW1 2551   1.093   0.443   3.604
  327SOL    HW2 2552   1.231   0.411   3.523
  328SOL     OW 2553   1.160   0.207   3.339
  328SOL    HW1 2554   1.160   0.271   3.416
  328SOL    HW2 2555   1.188   0.255   3.256
  329SOL     OW 2556   0.008   1.326   2.062
  329SOL    HW1 2557  -0.085   1.347   2.031
  329SOL    HW2 2558   0.018   1.227   2.075
  330SOL     OW 2559   0.088   1.801   2.789
  330SOL    HW1 2560   0.046   1.715   2.762
  330SOL    HW2 2561   0.182   1.804   2.755
  331SOL     OW 2562   0.504   1.568   2.772
  331SOL    HW1 2563   0.570   1.642   2.781
  331SOL    HW2 2564   0.548   1.489   2.730
  332SOL     OW 2565   1.002   0.796   3.100
  332SOL    HW1 2566   1.043   0.764   3.186
  332SOL    HW2 2567   0.906   0.769   3.097
  333SOL     OW 2568   0.040   0.544   2.976
  333SOL    HW1 2569   0.125   0.511   2.935
  333SOL    HW2 2570   0.053   0.559   3.074
  334SOL     OW 2571   0.815   0.572   2.187
  334SOL    HW1 2572   0.822   0.483   2.141
  334SOL    HW2 2573   0.721   0.606   2.179
  335SOL     OW 2574   0.252   1.564   3.606
  335SOL    HW1 2575   0.222   1.621   3.682
  335SOL    HW2 2576   0.245   1.467   3.632
  336SOL     OW 2577   0.930   1.678   3.327
  336SOL    HW1 2578   0.906   1.660   3.232
  336SOL    HW2 2579   0.960   1.772   3.337
  337SOL     OW 2580   0.473   0.500   2.053
  337SOL    HW1 2581   0.534   0.580   2.057
  337SOL    HW2 2582   0.378   0.531   2.060
  338SOL     OW 2583   0.159   1.137   3.328
  338SOL    HW1 2584   0.181   1.076   3.404
  338SOL    HW2 2585   0.169   1.088   3.242
  339SOL     OW 2586   1.302   0.855   2.171
  339SOL    HW1 2587   1.216   0.824   2.213
  339SOL    HW2 2588   1.298   0.841   2.072
  340SOL     OW 2589   1.759   1.747   3.016
  340SOL    HW1 2590   1.820   1.777   2.943
  340SOL    HW2 2591   1.721   1.658   2.994
  341SOL     OW 2592   0.083   1.258   2.884
  341SOL    HW1 2593   0.078   1.257   2.984
  341SOL    HW2 2594   0.000   1.217   2.846
  342SOL     OW 2595   0.688   1.662   3.578
  342SOL    HW1 2596   0.632   1.743   3.587
  342SOL    HW2 2597   0.740   1.666   3.492
  343SOL     OW 2598   1.726   0.135   2.385
  343SOL    HW1 2599   1.799   0.118   2.318
  343SOL    HW2 2600   1.695   0.048   2.423
  344SOL     OW 2601   1.388   1.573   2.339
  344SOL    HW1 2602   1.455   1.585   2.265
  344SOL    HW2 2603   1.348   1.662   2.362
  345SOL     OW 2604   0.130   1.794   3.713
  345SOL    HW1 2605   0.089   1.720   3.766
  345SOL    HW2 2606   0.194   1.845   3.771
  346SOL     OW 2607   0.830   1.273   3.284
  346SOL    HW1 2608   0.825   1.306   3.379
  346SOL    HW2 2609   0.744   1.292   3.238
  347SOL     OW 2610   0.672   1.616   2.016
  347SOL    HW1 2611   0.681   1.626   1.917
  347SOL    HW2 2612   0.632   1.527   2.037
  348SOL     OW 2613   1.650   1.720   3.256
  348SOL    HW1 2614   1.703   1.730   3.172
  348SOL    HW2 2615   1.623   1.810   3.290
  349SOL     OW 2616   1.841   0.175   2.825
  349SOL    HW1 2617   1.880   0.090   2.789
  349SOL    HW2 2618   1.743   0.177   2.806
  350SOL     OW 2619   0.263   0.326   2.582
  350SOL    HW1 2620   0.184   0.377   2.548
  350SOL    HW2 2621   0.254   0.311   2.680
  351SOL     OW 2622   1.194   1.612   1.893
  351SOL    HW1 2623   1.200   1.519   1.930
  351SOL    HW2 2624   1.135   1.612   1.813
  352SOL     OW 2625   0.822   1.002   3.234
  352SOL    HW1 2626   0.862   1.001   3.142
  352SOL    HW2 2627   0.832   1.094   3.274
  353SOL     OW 2628   0.916   0.910   2.153
  353SOL    HW1 2629   0.979   0.948   2.085
  353SOL    HW2 2630   0.956   0.827   2.192
  354SOL     OW 2631   1.504   1.607   1.906
  354SOL    HW1 2632   1.412   1.644   1.913
  354SOL    HW2 2633   1.542   1.627   1.816
  355SOL     OW 2634   0.372   1.288   3.352
  355SOL    HW1 2635   0.359   1.381   3.318
  355SOL    HW2 2636   0.288   1.236   3.339
  356SOL     OW 2637   0.590   1.487   2.353
  356SOL    HW1 2638   0.632   1.429   2.283
  356SOL    HW2 2639   0.546   1.566   2.309
  357SOL     OW 2640   1.709   0.385   3.243
  357SOL    HW1 2641   1.782   0.454   3.247
  357SOL    HW2 2642   1.737   0.310   3.184
  358SOL     OW 2643   0.255   1.348   2.152
  358SOL    HW1 2644   0.159   1.349   2.125
  358SOL    HW2 2645   0.267   1.401   2.236
  359SOL     OW 2646   0.105   1.013   3.588
  359SOL    HW1 2647   0.028   0.980   3.642
  359SOL    HW2 2648   0.190   0.983   3.630
  360SOL     OW 2649   0.075   0.345   1.895
  360SOL    HW1 2650  -0.017   0.317   1.866
  360SOL    HW2 2651   0.106   0.422   1.839
  361SOL     OW 2652   0.072   0.166   2.180
  361SOL    HW1 2653   0.055   0.249   2.126
  361SOL    HW2 2654   0.162   0.129   2.158
  362SOL     OW 2655   1.183   1.335   1.981
  362SOL    HW1 2656   1.084   1.324   1.983
  362SOL    HW2 2657   1.217   1.350   2.074
  363SOL     OW 2658   1.493   1.767   2.821
  363SOL    HW1 2659   1.526   1.831   2.752
  363SOL    HW2 2660   1.559   1.761   2.896
  364SOL     OW 2661   0.390   1.741   3.422
  364SOL    HW1 2662   0.299   1.782   3.420
  364SOL    HW2 2663   0.383   1.647   3.454
  365SOL     OW 2664   1.674   0.883   3.116
  365SOL    HW1 2665   1.647   0.794   3.079
  365SOL    HW2 2666   1.675   0.951   3.043
  366SOL     OW 2667   1.225   0.325   2.311
  366SOL    HW1 2668   1.290   0.251   2.300
  366SOL    HW2 2669   1.245   0.375   2.395
  367SOL     OW 2670   0.594   0.745   2.514
  367SOL    HW1 2671   0.644   0.830   2.495
  367SOL    HW2 2672   0.506   0.747   2.466
  368SOL     OW 2673   1.777   0.342   3.504
  368SOL    HW1 2674   1.760   0.373   3.410
  368SOL    HW2 2675   1.693   0.305   3.542
  369SOL     OW 2676   1.730   0.934   3.379
  369SOL    HW1 2677   1.768   1.025   3.394
  369SOL    HW2 2678   1.722   0.917   3.280
  370SOL     OW 2679   0.859   1.374   1.878
  370SOL    HW1 2680   0.813   1.389   1.966
  370SOL    HW2 2681   0.903   1.459   1.848
  371SOL     OW 2682   0.661   1.790   2.815
  371SOL    HW1 2683   0.615   1.878   2.802
  371SOL    HW2 2684   0.760   1.802   2.808
  372SOL     OW 2685   0.859   0.956   2.723
  372SOL    HW1 2686   0.913   0.887   2.771
  372SOL    HW2 2687   0.827   1.025   2.789
  373SOL     OW 2688   1.083   0.984   1.949
  373SOL    HW1 2689   1.060   1.037   1.867
  373SOL    HW2 2690   1.164   0.928   1.930
  374SOL     OW 2691   1.861   1.569   2.713
  374SOL    HW1 2692   1.790   1.557   2.643
  374SOL    HW2 2693   1.862   1.490   2.773
  375SOL     OW 2694   0.221   1.314   3.706
  375SOL    HW1 2695   0.156   1.241   3.685
  375SOL    HW2 2696   0.225   1.328   3.804
  376SOL     OW 2697   0.079   1.240   2.515
  376SOL    HW1 2698   0.078   1.193   2.603
  376SOL    HW2 2699   0.161   1.212   2.464
  377SOL     OW 2700   0.672   1.391   3.486
  377SOL    HW1 2701   0.594   1.341   3.524
  377SOL    HW2 2702   0.669   1.486   3.517
  378SOL     OW 2703   1.824   0.192   3.089
  378SOL    HW1 2704   1.820   0.102   3.133
  378SOL    HW2 2705   1.827   0.181   2.990
  379SOL     OW 2706   0.428   0.424   2.382
  379SOL    HW1 2707   0.458   0.352   2.320
  379SOL    HW2 2708   0.389   0.384   2.465
  380SOL     OW 2709   1.705   1.487   2.966
  380SOL    HW1 2710   1.612   1.462   2.939
  380SOL    HW2 2711   1.731   1.437   3.048
  381SOL     OW 2712   0.317   0.547   3.142
  381SOL    HW1 2713   0.355   0.488   3.214
  381SOL    HW2 2714   0.357   0.521   3.054
  382SOL     OW 2715   0.812   1.586   2.549
  382SOL    HW1 2716   0.844   1.596   2.455
  382SOL    HW2 2717   0.733   1.524   2.551
  383SOL     OW 2718   1.001   0.034   3.016
  383SOL    HW1 2719   0.938  -0.038   2.985
  383SOL    HW2 2720   1.094  -0.002   3.016
  384SOL     OW 2721   0.770   1.330   2.163
  384SOL    HW1 2722   0.724   1.243   2.180
  384SOL    HW2 2723   0.861   1.327   2.204
  385SOL     OW 2724   0.618   1.567   3.146
  385SOL    HW1 2725   0.613   1.649   3.203
  385SOL    HW2 2726   0.707   1.564   3.101
  386SOL     OW 2727   1.352   0.052   2.030
  386SOL    HW1 2728   1.387   0.011   1.946
  386SOL    HW2 2729   1.262   0.014   2.050
  387SOL     OW 2730   1.593   0.221   2.744
  387SOL    HW1 2731   1.509   0.220   2.798
  387SOL    HW2 2732   1.595   0.304   2.688
  388SOL     OW 2733   0.039   1.077   2.162
  388SOL    HW1 2734   0.138   1.066   2.153
  388SOL    HW2 2735  -0.001   0.991   2.194
  389SOL     OW 2736   0.875   1.646   2.199
  389SOL    HW1 2737   0.798   1.611   2.145
  389SOL    HW2 2738   0.843   1.717   2.261
  390SOL     OW 2739   0.225   0.275   4.720
  390SOL    HW1 2740   0.260   0.258   4.812
  390SOL    HW2 2741   0.137   0.230   4.708
  391SOL     OW 2742   0.019   0.368   4.371
  391SOL    HW1 2743  -0.063   0.411   4.410
  391SOL    HW2 2744  -0.009   0.295   4.308
  392SOL     OW 2745   0.569   1.275   4.889
  392SOL    HW1 2746   0.476   1.268   4.852
  392SOL    HW2 2747   0.580   1.364   4.933
  393SOL     OW 2748   1.555   1.511   4.427
  393SOL    HW1 2749   1.498   1.495   4.508
  393SOL    HW2 2750   1.496   1.521   4.347
  394SOL     OW 2751   1.135   0.703   4.441
  394SOL    HW1 2752   1.192   0.781   4.416
  394SOL    HW2 2753   1.075   0.729   4.517
  395SOL     OW 2754   1.755   0.607   3.955
  395SOL    HW1 2755   1.743   0.594   3.856
  395SOL    HW2 2756   1.725   0.526   4.004
  396SOL     OW 2757   0.768   1.144   4.747
  396SOL    HW1 2758   0.690   1.161   4.807
  396SOL    HW2 2759   0.802   1.231   4.711
  397SOL     OW 2760   0.685   1.012   4.389
  397SOL    HW1 2761   0.754   0.996   4.459
  397SOL    HW2 2762   0.612   1.069   4.427
  398SOL     OW 2763   0.335   1.435   4.785
  398SOL    HW1 2764   0.257   1.404   4.732
  398SOL    HW2 2765   0.393   1.493   4.728
  399SOL     OW 2766   1.603   0.447   4.461
  399SOL    HW1 2767   1.529   0.493   4.411
  399SOL    HW2 2768   1.654   0.515   4.514
  400SOL     OW 2769   0.240   1.091   4.610
  400SOL    HW1 2770   0.254   1.007   4.662
  400SOL    HW2 2771   0.185   1.155   4.665
  401SOL     OW 2772   0.620   1.786   5.163
  401SOL    HW1 2773   0.528   1.769   5.198
  401SOL    HW2 2774   0.648   1.878   5.189
  402SOL     OW 2775   0.606   0.964   3.847
  402SOL    HW1 2776   0.613   1.048   3.793
  402SOL    HW2 2777   0.652   0.977   3.935
  403SOL     OW 2778   0.122   0.643   4.287
  403SOL    HW1 2779   0.077   0.555   4.304
  403SOL    HW2 2780   0.121   0.697   4.371
  404SOL     OW 2781   1.842   1.767   4.083
  404SOL    HW1 2782   1.896   1.738   4.163
  404SOL    HW2 2783   1.872   1.857   4.054
  405SOL     OW 2784   1.689   0.922   4.336
  405SOL    HW1 2785   1.784   0.893   4.344
  405SOL    HW2 2786   1.681   0.987   4.261
  406SOL     OW 2787   1.641   1.108   4.156
  406SOL    HW1 2788   1.727   1.110   4.104
  406SOL    HW2 2789   1.655   1.155   4.244
  407SOL     OW 2790   0.613   1.365   4.450
  407SOL    HW1 2791   0.564   1.278   4.459
  407SOL    HW2 2792   0.590   1.408   4.363
  408SOL     OW 2793   0.809   0.004   4.226
  408SOL    HW1 2794   0.849   0.095   4.217
  408SOL    HW2 2795   0.709   0.012   4.232
  409SOL     OW 2796   0.197   0.976   4.988
  409SOL    HW1 2797   0.286   0.931   4.974
  409SOL    HW2 2798   0.124   0.911   4.969
  410SOL     OW 2799   1.525   0.999   3.914
  410SOL    HW1 2800   1.462   0.923   3.927
  410SOL    HW2 2801   1.573   1.017   4.000
  411SOL     OW 2802   1.466   1.417   4.677
  411SOL    HW1 2803   1.407   1.423   4.757
  411SOL    HW2 2804   1.451   1.329   4.631
  412SOL     OW 2805   1.667   1.714   4.296
  412SOL    HW1 2806   1.626   1.691   4.208
  412SOL    HW2 2807   1.649   1.640   4.361
  413SOL     OW 2808   0.598   0.729   3.994
  413SOL    HW1 2809   0.622   0.798   3.926
  413SOL    HW2 2810   0.520   0.762   4.048
  414SOL     OW 2811   1.281   0.345   4.668
  414SOL    HW1 2812   1.195   0.295   4.655
  414SOL    HW2 2813   1.343   0.291   4.724
  415SOL     OW 2814   1.576   1.662   4.031
  415SOL    HW1 2815   1.665   1.708   4.034
  415SOL    HW2 2816   1.555   1.638   3.936
  416SOL     OW 2817   0.991   0.410   4.966
  416SOL    HW1 2818   0.914   0.444   5.020
  416SOL    HW2 2819   0.957   0.359   4.887
  417SOL     OW 2820   1.041   0.701   4.153
  417SOL    HW1 2821   1.067   0.697   4.249
  417SOL    HW2 2822   0.956   0.650   4.139
  418SOL     OW 2823   0.076   0.811   4.513
  418SOL    HW1 2824   0.175   0.799   4.522
  418SOL    HW2 2825   0.052   0.906   4.534
  419SOL     OW 2826   0.865   0.348   3.919
  419SOL    HW1 2827   0.924   0.411   3.870
  419SOL    HW2 2828   0.884   0.254   3.890
  420SOL     OW 2829   1.362   1.144   4.269
  420SOL    HW1 2830   1.445   1.115   4.221
  420SOL    HW2 2831   1.313   1.211   4.213
  421SOL     OW 2832   0.550   0.196   4.609
  421SOL    HW1 2833   0.545   0.191   4.709
  421SOL    HW2 2834   0.552   0.292   4.580
  422SOL     OW 2835   1.008   1.456   4.201
  422SOL    HW1 2836   0.962   1.528   4.149
  422SOL    HW2 2837   1.004   1.476   4.299
  423SOL     OW 2838   0.351   1.801   4.577
  423SOL    HW1 2839   0.401   1.715   4.583
  423SOL    HW2 2840   0.416   1.878   4.574
  424SOL     OW 2841   1.795   1.066   4.597
  424SOL    HW1 2842   1.733   1.051   4.521
  424SOL    HW2 2843   1.743   1.077   4.682
  425SOL     OW 2844   0.321   0.943   3.966
  425SOL    HW1 2845   0.403   0.982   3.924
  425SOL    HW2 2846   0.294   0.861   3.917
  426SOL     OW 2847   1.458   0.735   4.452
  426SOL    HW1 2848   1.453   0.670   4.527
  426SOL    HW2 2849   1.538   0.794   4.465
  427SOL     OW 2850   1.111   1.776   3.961
  427SOL    HW1 2851   1.051   1.714   4.011
  427SOL    HW2 2852   1.142   1.732   3.876
  428SOL     OW 2853   1.632   1.377   3.805
  428SOL    HW1 2854   1.600   1.471   3.795
  428SOL    HW2 2855   1.556   1.314   3.793
  429SOL     OW 2856   1.400   0.107   4.150
  429SOL    HW1 2857   1.376   0.070   4.060
  429SOL    HW2 2858   1.499   0.123   4.154
  430SOL     OW 2859   0.249   1.785   4.965
  430SOL    HW1 2860   0.306   1.720   5.015
  430SOL    HW2 2861   0.233   1.752   4.872
  431SOL     OW 2862   0.940   1.698   4.628
  431SOL    HW1 2863   1.020   1.641   4.649
  431SOL    HW2 2864   0.891   1.658   4.551
  432SOL     OW 2865   0.382   0.700   4.204
  432SOL    HW1 2866   0.427   0.610   4.201
  432SOL    HW2 2867   0.288   0.689   4.237
  433SOL     OW 2868   0.614   0.122   3.841
  433SOL    HW1 2869   0.712   0.100   3.848
  433SOL    HW2 2870   0.583   0.105   3.748
  434SOL     OW 2871   0.803   1.402   4.648
  434SOL    HW1 2872   0.893   1.416   4.606
  434SOL    HW2 2873   0.732   1.404   4.577
  435SOL     OW 2874   0.922   0.503   4.623
  435SOL    HW1 2875   0.897   0.494   4.527
  435SOL    HW2 2876   0.970   0.421   4.654
  436SOL     OW 2877   0.539   0.064   4.236
  436SOL    HW1 2878   0.458   0.065   4.294
  436SOL    HW2 2879   0.542   0.147   4.181
  437SOL     OW 2880   1.434   1.188   3.765
  437SOL    HW1 2881   1.466   1.112   3.822
  437SOL    HW2 2882   1.342   1.215   3.795
  438SOL     OW 2883   0.297   0.035   3.895
  438SOL    HW1 2884   0.346   0.119   3.874
  438SOL    HW2 2885   0.359  -0.030   3.940
  439SOL     OW 2886   0.935   0.236   4.204
  439SOL    HW1 2887   0.887   0.277   4.126
  439SOL    HW2 2888   1.034   0.234   4.185
  440SOL     OW 2889   1.227   1.570   4.517
  440SOL    HW1 2890   1.248   1.644   4.452
  440SOL    HW2 2891   1.295   1.570   4.590
  441SOL     OW 2892   0.459   1.152   4.465
  441SOL    HW1 2893   0.388   1.125   4.530
  441SOL    HW2 2894   0.433   1.124   4.372
  442SOL     OW 2895   1.271   1.797   4.315
  442SOL    HW1 2896   1.315   1.861   4.251
  442SOL    HW2 2897   1.221   1.849   4.385
  443SOL     OW 2898   1.032   0.549   3.740
  443SOL    HW1 2899   0.991   0.631   3.701
  443SOL    HW2 2900   1.096   0.575   3.813
  444SOL     OW 2901   0.561   0.222   4.871
  444SOL    HW1 2902   0.599   0.138   4.908
  444SOL    HW2 2903   0.473   0.241   4.915
  445SOL     OW 2904   0.866   0.454   4.366
  445SOL    HW1 2905   0.834   0.526   4.304
  445SOL    HW2 2906   0.890   0.373   4.313
  446SOL     OW 2907   1.017   0.039   4.477
  446SOL    HW1 2908   0.945   0.044   4.408
  446SOL    HW2 2909   0.993  -0.030   4.546
  447SOL     OW 2910   1.429   1.173   4.591
  447SOL    HW1 2911   1.374   1.089   4.584
  447SOL    HW2 2912   1.455   1.202   4.499
  448SOL     OW 2913   1.466   0.590   4.716
  448SOL    HW1 2914   1.436   0.495   4.723
  448SOL    HW2 2915   1.539   0.606   4.782
  449SOL     OW 2916   1.857   0.833   4.101
  449SOL    HW1 2917   1.899   0.769   4.165
  449SOL    HW2 2918   1.819   0.782   4.023
  450SOL     OW 2919   1.664   1.280   4.381
  450SOL    HW1 2920   1.763   1.288   4.395
  450SOL    HW2 2921   1.619   1.364   4.412
  451SOL     OW 2922   1.390   0.575   3.802
  451SOL    HW1 2923   1.336   0.554   3.883
  451SOL    HW2 2924   1.481   0.534   3.811
  452SOL     OW 2925   0.527   0.256   4.052
  452SOL    HW1 2926   0.554   0.197   3.977
  452SOL    HW2 2927   0.527   0.351   4.021
  453SOL     OW 2928   1.111   1.195   4.824
  453SOL    HW1 2929   1.071   1.239   4.905
  453SOL    HW2 2930   1.070   1.232   4.741
  454SOL     OW 2931   1.638   1.099   4.803
  454SOL    HW1 2932   1.643   1.180   4.862
  454SOL    HW2 2933   1.552   1.101   4.752
  455SOL     OW 2934   0.705   1.050   4.092
  455SOL    HW1 2935   0.691   1.057   4.191
  455SOL    HW2 2936   0.789   0.999   4.074
  456SOL     OW 2937   0.410   0.813   4.975
  456SOL    HW1 2938   0.496   0.825   5.025
  456SOL    HW2 2939   0.368   0.726   5.002
  457SOL     OW 2940   1.274   0.386   4.986
  457SOL    HW1 2941   1.295   0.460   5.050
  457SOL    HW2 2942   1.185   0.403   4.943
  458SOL     OW 2943   0.367   1.100   4.225
  458SOL    HW1 2944   0.360   1.183   4.169
  458SOL    HW2 2945   0.371   1.020   4.165
  459SOL     OW 2946   0.566   0.537   4.589
  459SOL    HW1 2947   0.578   0.603   4.515
  459SOL    HW2 2948   0.612   0.571   4.672
  460SOL     OW 2949   1.252   1.348   4.112
  460SOL    HW1 2950   1.302   1.425   4.152
  460SOL    HW2 2951   1.157   1.350   4.144
  461SOL     OW 2952   1.272   1.445   4.866
  461SOL    HW1 2953   1.319   1.458   4.953
  461SOL    HW2 2954   1.206   1.371   4.875
  462SOL     OW 2955   1.582   0.639   4.196
  462SOL    HW1 2956   1.551   0.700   4.269
  462SOL    HW2 2957   1.632   0.691   4.127
  463SOL     OW 2958   0.354   1.510   5.053
  463SOL    HW1 2959   0.333   1.466   4.966
  463SOL    HW2 2960   0.451   1.536   5.056
  464SOL     OW 2961   0.573   0.870   4.753
  464SOL    HW1 2962   0.617   0.959   4.744
  464SOL    HW2 2963   0.510   0.870   4.830
  465SOL     OW 2964   1.360   0.862   4.769
  465SOL    HW1 2965   1.285   0.862   4.703
  465SOL    HW2 2966   1.397   0.770   4.778
  466SOL     OW 2967   1.209   0.525   3.999
  466SOL    HW1 2968   1.222   0.441   4.053
  466SOL    HW2 2969   1.180   0.599   4.059
  467SOL     OW 2970   0.037   1.310   5.006
  467SOL    HW1 2971   0.090   1.261   5.074
  467SOL    HW2 2972   0.059   1.408   5.011
  468SOL     OW 2973   0.732   0.634   4.788
  468SOL    HW1 2974   0.791   0.608   4.712
  468SOL    HW2 2975   0.704   0.730   4.777
  469SOL     OW 2976   0.307   0.063   4.342
  469SOL    HW1 2977   0.296   0.157   4.375
  469SOL    HW2 2978   0.302   0.000   4.419
  470SOL     OW 2979   1.622   0.367   4.098
  470SOL    HW1 2980   1.624   0.291   4.162
  470SOL    HW2 2981   1.574   0.444   4.138
  471SOL     OW 2982   1.023   0.766   4.690
  471SOL    HW1 2983   1.038   0.787   4.786
  471SOL    HW2 2984   0.993   0.671   4.681
  472SOL     OW 2985   1.540   0.274   3.849
  472SOL    HW1 2986   1.479   0.199   3.872
  472SOL    HW2 2987   1.562   0.326   3.932
  473SOL     OW 2988   1.303   0.838   3.766
  473SOL    HW1 2989   1.337   0.745   3.781
  473SOL    HW2 2990   1.321   0.865   3.671
  474SOL     OW 2991   1.068   1.333   4.573
  474SOL    HW1 2992   1.075   1.249   4.518
  474SOL    HW2 2993   1.130   1.402   4.537
  475SOL     OW 2994   0.319   0.810   4.673
  475SOL    HW1 2995   0.412   0.846   4.678
  475SOL    HW2 2996   0.313   0.725   4.725
  476SOL     OW 2997   0.339   0.509   4.730
  476SOL    HW1 2998   0.287   0.426   4.713
  476SOL    HW2 2999   0.416   0.514   4.666
  477SOL     OW 3000   1.160   0.207   5.201
  477SOL    HW1 3001   1.160   0.271   5.278
  477SOL    HW2 3002   1.188   0.255   5.118
  478SOL     OW 3003   0.088   1.801   4.651
  478SOL    HW1 3004   0.046   1.715   4.624
  478SOL    HW2 3005   0.182   1.804   4.617
  479SOL     OW 3006   0.504   1.568   4.634
  479SOL    HW1 3007   0.570   1.642   4.643
  479SOL    HW2 3008   0.548   1.489   4.592
  480SOL     OW 3009   0.040   0.544   4.838
  480SOL    HW1 3010   0.125   0.511   4.797
  480SOL    HW2 3011   0.053   0.559   4.936
  481SOL     OW 3012   0.815   0.572   4.049
  481SOL    HW1 3013   0.822   0.483   4.003
  481SOL    HW2 3014   0.721   0.606   4.041
  482SOL     OW 3015   1.657   0.604   4.930
  482SOL    HW1 3016   1.619   0.535   4.992
  482SOL    HW2 3017   1.739   0.568   4.886
  483SOL     OW 3018   0.671   0.464   4.993
  483SOL    HW1 3019   0.637   0.375   4.963
  483SOL    HW2 3020   0.697   0.518   4.913
  484SOL     OW 3021   0.930   1.678   5.189
  484SOL    HW1 3022   0.906   1.660   5.094
  484SOL    HW2 3023   0.960   1.772   5.199
  485SOL     OW 3024   1.347   1.059   4.958
  485SOL    HW1 3025   1.371   0.996   4.884
  485SOL    HW2 3026   1.257   1.099   4.940
  486SOL     OW 3027   1.302   0.855   4.033
  486SOL    HW1 3028   1.216   0.824   4.075
  486SOL    HW2 3029   1.298   0.841   3.934
  487SOL     OW 3030   1.759   1.747   4.878
  487SOL    HW1 3031   1.820   1.777   4.805
  487SOL    HW2 3032   1.721   1.658   4.856
  488SOL     OW 3033   1.252   1.731   4.852
  488SOL    HW1 3034   1.336   1.736   4.798
  488SOL    HW2 3035   1.229   1.635   4.870
  489SOL     OW 3036   0.083   1.258   4.746
  489SOL    HW1 3037   0.078   1.257   4.846
  489SOL    HW2 3038   0.000   1.217   4.708
  490SOL     OW 3039   1.726   0.135   4.247
  490SOL    HW1 3040   1.799   0.118   4.180
  490SOL    HW2 3041   1.695   0.048   4.285
  491SOL     OW 3042   1.388   1.573   4.201
  491SOL    HW1 3043   1.455   1.585   4.127
  491SOL    HW2 3044   1.348   1.662   4.224
  492SOL     OW 3045   1.280   0.927   4.396
  492SOL    HW1 3046   1.340   0.846   4.398
  492SOL    HW2 3047   1.320   0.996   4.336
  493SOL     OW 3048   0.672   1.616   3.878
  493SOL    HW1 3049   0.681   1.626   3.779
  493SOL    HW2 3050   0.632   1.527   3.899
  494SOL     OW 3051   1.650   1.720   5.118
  494SOL    HW1 3052   1.703   1.730   5.034
  494SOL    HW2 3053   1.623   1.810   5.152
  495SOL     OW 3054   1.841   0.175   4.687
  495SOL    HW1 3055   1.880   0.090   4.651
  495SOL    HW2 3056   1.743   0.177   4.668
  496SOL     OW 3057   0.263   0.326   4.444
  496SOL    HW1 3058   0.184   0.377   4.410
  496SOL    HW2 3059   0.254   0.311   4.542
  497SOL     OW 3060   0.916   0.910   4.015
  497SOL    HW1 3061   0.979   0.948   3.947
  497SOL    HW2 3062   0.956   0.827   4.054
  498SOL     OW 3063   1.504   1.607   3.768
  498SOL    HW1 3064   1.412   1.644   3.775
  498SOL    HW2 3065   1.542   1.627   3.678
  499SOL     OW 3066   1.039   1.098   4.420
  499SOL    HW1 3067   0.969   1.051   4.474
  499SOL    HW2 3068   1.098   1.030   4.377
  500SOL     OW 3069   1.014   0.236   4.695
  500SOL    HW1 3070   1.006   0.200   4.602
  500SOL    HW2 3071   1.012   0.160   4.760
  501SOL     OW 3072   1.709   0.385   5.105
  501SOL    HW1 3073   1.782   0.454   5.109
  501SOL    HW2 3074   1.737   0.310   5.046
  502SOL     OW 3075   0.072   0.166   4.042
  502SOL    HW1 3076   0.055   0.249   3.988
  502SOL    HW2 3077   0.162   0.129   4.020
  503SOL     OW 3078   1.183   1.335   3.843
  503SOL    HW1 3079   1.084   1.324   3.845
  503SOL    HW2 3080   1.217   1.350   3.936
  504SOL     OW 3081   1.493   1.767   4.683
  504SOL    HW1 3082   1.526   1.831   4.614
  504SOL    HW2 3083   1.559   1.761   4.758
  505SOL     OW 3084   1.450   1.220   5.357
  505SOL    HW1 3085   1.441   1.210   5.456
  505SOL    HW2 3086   1.546   1.213   5.331
  506SOL     OW 3087   1.674   0.883   4.978
  506SOL    HW1 3088   1.647   0.794   4.941
  506SOL    HW2 3089   1.675   0.951   4.905
  507SOL     OW 3090   1.225   0.325   4.173
  507SOL    HW1 3091   1.290   0.251   4.162
  507SOL    HW2 3092   1.245   0.375   4.257
  508SOL     OW 3093   0.594   0.745   4.376
  508SOL    HW1 3094   0.644   0.830   4.357
  508SOL    HW2 3095   0.506   0.747   4.328
  509SOL     OW 3096   0.859   1.374   3.740
  509SOL    HW1 3097   0.813   1.389   3.828
  509SOL    HW2 3098   0.903   1.459   3.710
  510SOL     OW 3099   0.661   1.790   4.677
  510SOL    HW1 3100   0.615   1.878   4.664
  510SOL    HW2 3101   0.760   1.802   4.670
  511SOL     OW 3102   0.859   0.956   4.585
  511SOL    HW1 3103   0.913   0.887   4.633
  511SOL    HW2 3104   0.827   1.025   4.651
  512SOL     OW 3105   1.861   1.569   4.575
  512SOL    HW1 3106   1.790   1.557   4.505
  512SOL    HW2 3107   1.862   1.490   4.635
  513SOL     OW 3108   1.824   0.192   4.951
  513SOL    HW1 3109   1.820   0.102   4.995
  513SOL    HW2 3110   1.827   0.181   4.852
  514SOL     OW 3111   0.428   0.424   4.244
  514SOL    HW1 3112   0.458   0.352   4.182
  514SOL    HW2 3113   0.389   0.384   4.327
  515SOL     OW 3114   1.705   1.487   4.828
  515SOL    HW1 3115   1.612   1.462   4.801
  515SOL    HW2 3116   1.731   1.437   4.910
  516SOL     OW 3117   0.812   1.586   4.411
  516SOL    HW1 3118   0.844   1.596   4.317
  516SOL    HW2 3119   0.733   1.524   4.413
  517SOL     OW 3120   1.424   0.214   4.836
  517SOL    HW1 3121   1.476   0.149   4.891
  517SOL    HW2 3122   1.375   0.277   4.897
  518SOL     OW 3123   1.001   0.034   4.878
  518SOL    HW1 3124   0.938  -0.038   4.847
  518SOL    HW2 3125   1.094  -0.002   4.878
  519SOL     OW 3126   1.352   0.052   3.892
  519SOL    HW1 3127   1.387   0.011   3.808
  519SOL    HW2 3128   1.262   0.014   3.912
  520SOL     OW 3129   1.300   0.453   4.415
  520SOL    HW1 3130   1.241   0.533   4.419
  520SOL    HW2 3131   1.315   0.418   4.508
  521SOL     OW 3132   1.593   0.221   4.606
  521SOL    HW1 3133   1.509   0.220   4.660
  521SOL    HW2 3134   1.595   0.304   4.550
  522SOL     OW 3135   0.039   1.077   4.024
  522SOL    HW1 3136   0.138   1.066   4.015
  522SOL    HW2 3137  -0.001   0.991   4.056
  523SOL     OW 3138   0.875   1.646   4.061
  523SOL    HW1 3139   0.798   1.611   4.007
  523SOL    HW2 3140   0.843   1.717   4.123
  524SOL     OW 3141   0.230   2.490   0.113
  524SOL    HW1 3142   0.137   2.488   0.150
  524SOL    HW2 3143   0.231   2.451   0.021
  525SOL     OW 3144   0.225   2.137   0.996
  525SOL    HW1 3145   0.260   2.120   1.088
  525SOL    HW2 3146   0.137   2.092   0.984
  526SOL     OW 3147   0.569   3.137   1.165
  526SOL    HW1 3148   0.476   3.130   1.128
  526SOL    HW2 3149   0.580   3.226   1.209
  527SOL     OW 3150   1.755   2.469   0.231
  527SOL    HW1 3151   1.743   2.456   0.132
  527SOL    HW2 3152   1.725   2.388   0.280
  528SOL     OW 3153   0.768   3.006   1.023
  528SOL    HW1 3154   0.690   3.023   1.083
  528SOL    HW2 3155   0.802   3.093   0.987
  529SOL     OW 3156   0.850   2.660   1.823
  529SOL    HW1 3157   0.846   2.736   1.888
  529SOL    HW2 3158   0.872   2.696   1.732
  530SOL     OW 3159   0.685   2.874   0.665
  530SOL    HW1 3160   0.754   2.858   0.735
  530SOL    HW2 3161   0.612   2.931   0.703
  531SOL     OW 3162   0.686   3.023   1.803
  531SOL    HW1 3163   0.746   3.102   1.817
  531SOL    HW2 3164   0.600   3.054   1.762
  532SOL     OW 3165   0.335   3.297   1.061
  532SOL    HW1 3166   0.257   3.266   1.008
  532SOL    HW2 3167   0.393   3.355   1.004
  533SOL     OW 3168   1.460   3.367   1.339
  533SOL    HW1 3169   1.484   3.461   1.365
  533SOL    HW2 3170   1.444   3.313   1.421
  534SOL     OW 3171   0.438   2.254   1.499
  534SOL    HW1 3172   0.520   2.198   1.508
  534SOL    HW2 3173   0.357   2.196   1.503
  535SOL     OW 3174   1.603   2.309   0.737
  535SOL    HW1 3175   1.529   2.355   0.687
  535SOL    HW2 3176   1.654   2.377   0.790
  536SOL     OW 3177   0.231   3.575   0.483
  536SOL    HW1 3178   0.265   3.652   0.537
  536SOL    HW2 3179   0.275   3.575   0.393
  537SOL     OW 3180   1.127   3.203   1.690
  537SOL    HW1 3181   1.174   3.203   1.778
  537SOL    HW2 3182   1.079   3.116   1.679
  538SOL     OW 3183   0.230   3.296   0.538
  538SOL    HW1 3184   0.204   3.392   0.538
  538SOL    HW2 3185   0.159   3.242   0.583
  539SOL     OW 3186   0.240   2.953   0.886
  539SOL    HW1 3187   0.254   2.869   0.938
  539SOL    HW2 3188   0.185   3.017   0.941
  540SOL     OW 3189   0.620   3.648   1.439
  540SOL    HW1 3190   0.528   3.631   1.474
  540SOL    HW2 3191   0.648   3.740   1.465
  541SOL     OW 3192   0.606   2.826   0.123
  541SOL    HW1 3193   0.613   2.910   0.069
  541SOL    HW2 3194   0.652   2.839   0.211
  542SOL     OW 3195   1.594   1.976   1.480
  542SOL    HW1 3196   1.576   2.043   1.408
  542SOL    HW2 3197   1.591   2.022   1.569
  543SOL     OW 3198   0.122   2.505   0.563
  543SOL    HW1 3199   0.077   2.417   0.580
  543SOL    HW2 3200   0.121   2.559   0.647
  544SOL     OW 3201   1.842   3.629   0.359
  544SOL    HW1 3202   1.896   3.600   0.439
  544SOL    HW2 3203   1.872   3.719   0.330
  545SOL     OW 3204   0.027   3.458   0.117
  545SOL    HW1 3205   0.008   3.362   0.138
  545SOL    HW2 3206  -0.006   3.516   0.192
  546SOL     OW 3207   1.689   2.784   0.612
  546SOL    HW1 3208   1.784   2.755   0.620
  546SOL    HW2 3209   1.681   2.849   0.537
  547SOL     OW 3210   1.641   2.970   0.432
  547SOL    HW1 3211   1.727   2.972   0.380
  547SOL    HW2 3212   1.655   3.017   0.520
  548SOL     OW 3213   0.113   2.599   1.597
  548SOL    HW1 3214   0.201   2.586   1.642
  548SOL    HW2 3215   0.100   2.696   1.575
  549SOL     OW 3216   0.613   3.227   0.726
  549SOL    HW1 3217   0.564   3.140   0.735
  549SOL    HW2 3218   0.590   3.270   0.639
  550SOL     OW 3219   1.293   3.090   1.423
  550SOL    HW1 3220   1.330   3.017   1.365
  550SOL    HW2 3221   1.345   3.095   1.508
  551SOL     OW 3222   0.809   1.866   0.502
  551SOL    HW1 3223   0.849   1.957   0.493
  551SOL    HW2 3224   0.709   1.874   0.508
  552SOL     OW 3225   0.197   2.838   1.264
  552SOL    HW1 3226   0.286   2.793   1.250
  552SOL    HW2 3227   0.124   2.773   1.245
  553SOL     OW 3228   1.525   2.861   0.190
  553SOL    HW1 3229   1.462   2.785   0.203
  553SOL    HW2 3230   1.573   2.879   0.276
  554SOL     OW 3231   1.466   3.279   0.953
  554SOL    HW1 3232   1.407   3.285   1.033
  554SOL    HW2 3233   1.451   3.191   0.907
  555SOL     OW 3234   0.598   2.591   0.270
  555SOL    HW1 3235   0.622   2.660   0.202
  555SOL    HW2 3236   0.520   2.624   0.324
  556SOL     OW 3237   1.281   2.207   0.944
  556SOL    HW1 3238   1.195   2.157   0.931
  556SOL    HW2 3239   1.343   2.153   1.000
  557SOL     OW 3240   1.576   3.524   0.307
  557SOL    HW1 3241   1.665   3.570   0.310
  557SOL    HW2 3242   1.555   3.500   0.212
  558SOL     OW 3243   0.807   2.467   1.465
  558SOL    HW1 3244   0.760   2.464   1.554
  558SOL    HW2 3245   0.756   2.412   1.399
  559SOL     OW 3246   1.394   2.331   1.674
  559SOL    HW1 3247   1.374   2.374   1.762
  559SOL    HW2 3248   1.472   2.269   1.683
  560SOL     OW 3249   0.973   2.752   1.572
  560SOL    HW1 3250   1.019   2.668   1.543
  560SOL    HW2 3251   0.917   2.786   1.497
  561SOL     OW 3252   0.991   2.272   1.242
  561SOL    HW1 3253   0.914   2.306   1.296
  561SOL    HW2 3254   0.957   2.221   1.163
  562SOL     OW 3255   0.076   2.673   0.789
  562SOL    HW1 3256   0.175   2.661   0.798
  562SOL    HW2 3257   0.052   2.768   0.810
  563SOL     OW 3258   0.130   3.683   1.571
  563SOL    HW1 3259   0.120   3.668   1.670
  563SOL    HW2 3260   0.044   3.719   1.535
  564SOL     OW 3261   0.865   2.210   0.195
  564SOL    HW1 3262   0.924   2.273   0.146
  564SOL    HW2 3263   0.884   2.116   0.166
  565SOL     OW 3264   1.719   2.447   1.831
  565SOL    HW1 3265   1.693   2.536   1.795
  565SOL    HW2 3266   1.717   2.379   1.758
  566SOL     OW 3267   0.550   2.058   0.885
  566SOL    HW1 3268   0.545   2.053   0.985
  566SOL    HW2 3269   0.552   2.154   0.856
  567SOL     OW 3270   0.351   3.663   0.853
  567SOL    HW1 3271   0.401   3.577   0.859
  567SOL    HW2 3272   0.416   3.740   0.850
  568SOL     OW 3273   1.795   2.928   0.873
  568SOL    HW1 3274   1.733   2.913   0.797
  568SOL    HW2 3275   1.743   2.939   0.958
  569SOL     OW 3276   1.227   3.412   1.506
  569SOL    HW1 3277   1.233   3.335   1.570
  569SOL    HW2 3278   1.175   3.386   1.426
  570SOL     OW 3279   0.321   2.805   0.242
  570SOL    HW1 3280   0.403   2.844   0.200
  570SOL    HW2 3281   0.294   2.723   0.193
  571SOL     OW 3282   1.458   2.597   0.728
  571SOL    HW1 3283   1.453   2.532   0.803
  571SOL    HW2 3284   1.538   2.656   0.741
  572SOL     OW 3285   0.461   3.128   1.727
  572SOL    HW1 3286   0.411   3.129   1.641
  572SOL    HW2 3287   0.398   3.110   1.803
  573SOL     OW 3288   1.111   3.638   0.237
  573SOL    HW1 3289   1.051   3.576   0.287
  573SOL    HW2 3290   1.142   3.594   0.152
  574SOL     OW 3291   0.202   2.147   1.498
  574SOL    HW1 3292   0.122   2.207   1.485
  574SOL    HW2 3293   0.192   2.098   1.584
  575SOL     OW 3294   1.632   3.239   0.081
  575SOL    HW1 3295   1.600   3.333   0.071
  575SOL    HW2 3296   1.556   3.176   0.069
  576SOL     OW 3297   0.464   3.605   0.323
  576SOL    HW1 3298   0.497   3.644   0.409
  576SOL    HW2 3299   0.540   3.598   0.258
  577SOL     OW 3300   1.400   1.969   0.426
  577SOL    HW1 3301   1.376   1.932   0.336
  577SOL    HW2 3302   1.499   1.985   0.430
  578SOL     OW 3303   0.249   3.647   1.241
  578SOL    HW1 3304   0.306   3.582   1.291
  578SOL    HW2 3305   0.233   3.614   1.148
  579SOL     OW 3306   0.940   3.560   0.904
  579SOL    HW1 3307   1.020   3.503   0.925
  579SOL    HW2 3308   0.891   3.520   0.827
  580SOL     OW 3309   0.382   2.562   0.480
  580SOL    HW1 3310   0.427   2.472   0.477
  580SOL    HW2 3311   0.288   2.551   0.513
  581SOL     OW 3312   1.547   2.084   1.729
  581SOL    HW1 3313   1.542   2.121   1.821
  581SOL    HW2 3314   1.475   2.015   1.717
  582SOL     OW 3315   0.781   2.126   1.749
  582SOL    HW1 3316   0.848   2.065   1.792
  582SOL    HW2 3317   0.708   2.145   1.814
  583SOL     OW 3318   0.888   3.376   1.195
  583SOL    HW1 3319   0.865   3.351   1.101
  583SOL    HW2 3320   0.949   3.307   1.234
  584SOL     OW 3321   1.351   2.452   1.433
  584SOL    HW1 3322   1.379   2.409   1.518
  584SOL    HW2 3323   1.376   2.548   1.434
  585SOL     OW 3324   0.803   3.264   0.924
  585SOL    HW1 3325   0.893   3.278   0.882
  585SOL    HW2 3326   0.732   3.266   0.853
  586SOL     OW 3327   0.922   2.365   0.899
  586SOL    HW1 3328   0.897   2.356   0.803
  586SOL    HW2 3329   0.970   2.283   0.930
  587SOL     OW 3330   0.539   1.926   0.512
  587SOL    HW1 3331   0.458   1.927   0.570
  587SOL    HW2 3332   0.542   2.009   0.457
  588SOL     OW 3333   0.935   2.098   0.480
  588SOL    HW1 3334   0.887   2.139   0.402
  588SOL    HW2 3335   1.034   2.096   0.461
  589SOL     OW 3336   1.076   2.545   1.464
  589SOL    HW1 3337   0.996   2.484   1.467
  589SOL    HW2 3338   1.157   2.492   1.440
  590SOL     OW 3339   1.227   3.432   0.793
  590SOL    HW1 3340   1.248   3.506   0.728
  590SOL    HW2 3341   1.295   3.432   0.866
  591SOL     OW 3342   0.459   3.014   0.741
  591SOL    HW1 3343   0.388   2.987   0.806
  591SOL    HW2 3344   0.433   2.986   0.648
  592SOL     OW 3345   1.271   3.659   0.591
  592SOL    HW1 3346   1.315   3.723   0.527
  592SOL    HW2 3347   1.221   3.711   0.661
  593SOL     OW 3348   1.032   2.411   0.016
  593SOL    HW1 3349   0.991   2.493  -0.023
  593SOL    HW2 3350   1.096   2.437   0.089
  594SOL     OW 3351   0.078   2.418   1.386
  594SOL    HW1 3352   0.170   2.417   1.345
  594SOL    HW2 3353   0.072   2.492   1.453
  595SOL     OW 3354   0.561   2.084   1.147
  595SOL    HW1 3355   0.599   2.000   1.184
  595SOL    HW2 3356   0.473   2.103   1.191
  596SOL     OW 3357   0.866   2.316   0.642
  596SOL    HW1 3358   0.834   2.388   0.580
  596SOL    HW2 3359   0.890   2.235   0.589
  597SOL     OW 3360   1.017   1.901   0.753
  597SOL    HW1 3361   0.945   1.906   0.684
  597SOL    HW2 3362   0.993   1.832   0.822
  598SOL     OW 3363   1.429   3.035   0.867
  598SOL    HW1 3364   1.374   2.951   0.860
  598SOL    HW2 3365   1.455   3.064   0.775
  599SOL     OW 3366   1.466   2.452   0.992
  599SOL    HW1 3367   1.436   2.357   0.999
  599SOL    HW2 3368   1.539   2.468   1.058
  600SOL     OW 3369   1.857   2.695   0.377
  600SOL    HW1 3370   1.899   2.631   0.441
  600SOL    HW2 3371   1.819   2.644   0.299
  601SOL     OW 3372   0.488   3.247   0.174
  601SOL    HW1 3373   0.401   3.232   0.221
  601SOL    HW2 3374   0.471   3.273   0.079
  602SOL     OW 3375   1.664   3.142   0.657
  602SOL    HW1 3376   1.763   3.150   0.671
  602SOL    HW2 3377   1.619   3.226   0.688
  603SOL     OW 3378   1.390   2.437   0.078
  603SOL    HW1 3379   1.336   2.416   0.159
  603SOL    HW2 3380   1.481   2.396   0.087
  604SOL     OW 3381   0.527   2.118   0.328
  604SOL    HW1 3382   0.554   2.059   0.253
  604SOL    HW2 3383   0.527   2.213   0.297
  605SOL     OW 3384   1.064   3.209   1.340
  605SOL    HW1 3385   0.984   3.186   1.395
  605SOL    HW2 3386   1.147   3.183   1.389
  606SOL     OW 3387   1.592   3.491   1.625
  606SOL    HW1 3388   1.619   3.525   1.535
  606SOL    HW2 3389   1.671   3.453   1.671
  607SOL     OW 3390   1.111   3.057   1.100
  607SOL    HW1 3391   1.071   3.101   1.181
  607SOL    HW2 3392   1.070   3.094   1.017
  608SOL     OW 3393   1.638   2.961   1.079
  608SOL    HW1 3394   1.643   3.042   1.138
  608SOL    HW2 3395   1.552   2.963   1.028
  609SOL     OW 3396   0.915   1.951   1.402
  609SOL    HW1 3397   0.940   1.931   1.307
  609SOL    HW2 3398   0.987   2.007   1.444
  610SOL     OW 3399   0.980   2.978   1.719
  610SOL    HW1 3400   0.881   2.984   1.729
  610SOL    HW2 3401   1.003   2.898   1.663
  611SOL     OW 3402   0.705   2.912   0.368
  611SOL    HW1 3403   0.691   2.919   0.467
  611SOL    HW2 3404   0.789   2.861   0.350
  612SOL     OW 3405   0.410   2.675   1.251
  612SOL    HW1 3406   0.496   2.687   1.301
  612SOL    HW2 3407   0.368   2.588   1.278
  613SOL     OW 3408   1.274   2.248   1.262
  613SOL    HW1 3409   1.295   2.322   1.326
  613SOL    HW2 3410   1.185   2.265   1.219
  614SOL     OW 3411   0.064   3.426   1.331
  614SOL    HW1 3412   0.018   3.508   1.297
  614SOL    HW2 3413   0.162   3.445   1.340
  615SOL     OW 3414   0.367   2.962   0.501
  615SOL    HW1 3415   0.360   3.045   0.445
  615SOL    HW2 3416   0.371   2.882   0.441
  616SOL     OW 3417   0.566   2.399   0.865
  616SOL    HW1 3418   0.578   2.465   0.791
  616SOL    HW2 3419   0.612   2.433   0.948
  617SOL     OW 3420   1.272   3.307   1.142
  617SOL    HW1 3421   1.319   3.320   1.229
  617SOL    HW2 3422   1.206   3.233   1.151
  618SOL     OW 3423   1.582   2.501   0.472
  618SOL    HW1 3424   1.551   2.562   0.545
  618SOL    HW2 3425   1.632   2.553   0.403
  619SOL     OW 3426   0.354   3.372   1.329
  619SOL    HW1 3427   0.333   3.328   1.242
  619SOL    HW2 3428   0.451   3.398   1.332
  620SOL     OW 3429   0.402   2.613   1.598
  620SOL    HW1 3430   0.470   2.668   1.551
  620SOL    HW2 3431   0.442   2.525   1.625
  621SOL     OW 3432   1.587   2.641   1.670
  621SOL    HW1 3433   1.495   2.679   1.665
  621SOL    HW2 3434   1.647   2.688   1.605
  622SOL     OW 3435   1.013   1.967   1.770
  622SOL    HW1 3436   1.019   2.052   1.718
  622SOL    HW2 3437   1.045   1.891   1.713
  623SOL     OW 3438   0.573   2.732   1.029
  623SOL    HW1 3439   0.617   2.821   1.020
  623SOL    HW2 3440   0.510   2.732   1.106
  624SOL     OW 3441   1.360   2.724   1.045
  624SOL    HW1 3442   1.285   2.724   0.979
  624SOL    HW2 3443   1.397   2.632   1.054
  625SOL     OW 3444   1.209   2.387   0.275
  625SOL    HW1 3445   1.222   2.303   0.329
  625SOL    HW2 3446   1.180   2.461   0.335
  626SOL     OW 3447   0.307   2.075   1.231
  626SOL    HW1 3448   0.284   2.112   1.321
  626SOL    HW2 3449   0.277   1.980   1.225
  627SOL     OW 3450   0.037   3.172   1.282
  627SOL    HW1 3451   0.090   3.123   1.350
  627SOL    HW2 3452   0.059   3.270   1.287
  628SOL     OW 3453   0.732   2.496   1.064
  628SOL    HW1 3454   0.791   2.470   0.988
  628SOL    HW2 3455   0.704   2.592   1.053
  629SOL     OW 3456   1.728   2.797   1.854
  629SOL    HW1 3457   1.682   2.790   1.765
  629SOL    HW2 3458   1.666   2.841   1.920
  630SOL     OW 3459   1.622   2.229   0.374
  630SOL    HW1 3460   1.624   2.153   0.438
  630SOL    HW2 3461   1.574   2.306   0.414
  631SOL     OW 3462   1.023   2.628   0.966
  631SOL    HW1 3463   1.038   2.649   1.062
  631SOL    HW2 3464   0.993   2.533   0.957
  632SOL     OW 3465   0.980   3.435   1.700
  632SOL    HW1 3466   0.960   3.479   1.612
  632SOL    HW2 3467   1.019   3.344   1.684
  633SOL     OW 3468   1.859   3.380   1.605
  633SOL    HW1 3469   1.873   3.407   1.510
  633SOL    HW2 3470   1.942   3.402   1.658
  634SOL     OW 3471   0.350   2.760   1.804
  634SOL    HW1 3472   0.426   2.804   1.852
  634SOL    HW2 3473   0.385   2.713   1.722
  635SOL     OW 3474   1.540   2.136   0.125
  635SOL    HW1 3475   1.479   2.061   0.148
  635SOL    HW2 3476   1.562   2.188   0.208
  636SOL     OW 3477   1.068   3.195   0.849
  636SOL    HW1 3478   1.075   3.111   0.794
  636SOL    HW2 3479   1.130   3.264   0.813
  637SOL     OW 3480   0.319   2.672   0.949
  637SOL    HW1 3481   0.412   2.708   0.954
  637SOL    HW2 3482   0.313   2.587   1.001
  638SOL     OW 3483   0.339   2.371   1.006
  638SOL    HW1 3484   0.287   2.288   0.989
  638SOL    HW2 3485   0.416   2.376   0.942
  639SOL     OW 3486   1.138   2.242   1.678
  639SOL    HW1 3487   1.093   2.305   1.742
  639SOL    HW2 3488   1.231   2.273   1.661
  640SOL     OW 3489   1.160   2.069   1.477
  640SOL    HW1 3490   1.160   2.133   1.554
  640SOL    HW2 3491   1.188   2.117   1.394
  641SOL     OW 3492   0.008   3.188   0.200
  641SOL    HW1 3493  -0.085   3.209   0.169
  641SOL    HW2 3494   0.018   3.089   0.213
  642SOL     OW 3495   0.088   3.663   0.927
  642SOL    HW1 3496   0.046   3.577   0.900
  642SOL    HW2 3497   0.182   3.666   0.893
  643SOL     OW 3498   0.504   3.430   0.910
  643SOL    HW1 3499   0.570   3.504   0.919
  643SOL    HW2 3500   0.548   3.351   0.868
  644SOL     OW 3501   1.002   2.658   1.238
  644SOL    HW1 3502   1.043   2.626   1.324
  644SOL    HW2 3503   0.906   2.631   1.235
  645SOL     OW 3504   0.040   2.406   1.114
  645SOL    HW1 3505   0.125   2.373   1.073
  645SOL    HW2 3506   0.053   2.421   1.212
  646SOL     OW 3507   0.189   2.382   1.722
  646SOL    HW1 3508   0.248   2.342   1.652
  646SOL    HW2 3509   0.131   2.453   1.681
  647SOL     OW 3510   1.369   2.812   1.660
  647SOL    HW1 3511   1.408   2.901   1.680
  647SOL    HW2 3512   1.379   2.792   1.563
  648SOL     OW 3513   0.815   2.434   0.325
  648SOL    HW1 3514   0.822   2.345   0.279
  648SOL    HW2 3515   0.721   2.468   0.317
  649SOL     OW 3516   1.657   2.466   1.206
  649SOL    HW1 3517   1.619   2.397   1.268
  649SOL    HW2 3518   1.739   2.430   1.162
  650SOL     OW 3519   0.252   3.426   1.744
  650SOL    HW1 3520   0.222   3.483   1.820
  650SOL    HW2 3521   0.245   3.329   1.770
  651SOL     OW 3522   0.671   2.326   1.269
  651SOL    HW1 3523   0.637   2.237   1.239
  651SOL    HW2 3524   0.697   2.380   1.189
  652SOL     OW 3525   0.930   3.540   1.465
  652SOL    HW1 3526   0.906   3.522   1.370
  652SOL    HW2 3527   0.960   3.634   1.475
  653SOL     OW 3528   0.473   2.362   0.191
  653SOL    HW1 3529   0.534   2.442   0.195
  653SOL    HW2 3530   0.378   2.393   0.198
  654SOL     OW 3531   0.159   2.999   1.466
  654SOL    HW1 3532   0.181   2.938   1.542
  654SOL    HW2 3533   0.169   2.950   1.380
  655SOL     OW 3534   1.347   2.921   1.234
  655SOL    HW1 3535   1.371   2.858   1.160
  655SOL    HW2 3536   1.257   2.961   1.216
  656SOL     OW 3537   1.302   2.717   0.309
  656SOL    HW1 3538   1.216   2.686   0.351
  656SOL    HW2 3539   1.298   2.703   0.210
  657SOL     OW 3540   1.252   3.593   1.128
  657SOL    HW1 3541   1.336   3.598   1.074
  657SOL    HW2 3542   1.229   3.497   1.146
  658SOL     OW 3543   0.083   3.120   1.022
  658SOL    HW1 3544   0.078   3.119   1.122
  658SOL    HW2 3545   0.000   3.079   0.984
  659SOL     OW 3546   0.688   3.524   1.716
  659SOL    HW1 3547   0.632   3.605   1.725
  659SOL    HW2 3548   0.740   3.528   1.630
  660SOL     OW 3549   0.903   1.948   0.133
  660SOL    HW1 3550   0.954   1.949   0.047
  660SOL    HW2 3551   0.959   1.906   0.204
  661SOL     OW 3552   1.726   1.997   0.523
  661SOL    HW1 3553   1.799   1.980   0.456
  661SOL    HW2 3554   1.695   1.910   0.561
  662SOL     OW 3555   0.130   3.656   1.851
  662SOL    HW1 3556   0.089   3.582   1.904
  662SOL    HW2 3557   0.194   3.707   1.909
  663SOL     OW 3558   0.830   3.135   1.422
  663SOL    HW1 3559   0.825   3.168   1.517
  663SOL    HW2 3560   0.744   3.154   1.376
  664SOL     OW 3561   0.672   3.478   0.154
  664SOL    HW1 3562   0.681   3.488   0.055
  664SOL    HW2 3563   0.632   3.389   0.175
  665SOL     OW 3564   1.841   2.037   0.963
  665SOL    HW1 3565   1.880   1.952   0.927
  665SOL    HW2 3566   1.743   2.039   0.944
  666SOL     OW 3567   0.263   2.188   0.720
  666SOL    HW1 3568   0.184   2.239   0.686
  666SOL    HW2 3569   0.254   2.173   0.818
  667SOL     OW 3570   0.822   2.864   1.372
  667SOL    HW1 3571   0.862   2.863   1.280
  667SOL    HW2 3572   0.832   2.956   1.412
  668SOL     OW 3573   1.504   3.469   0.044
  668SOL    HW1 3574   1.412   3.506   0.051
  668SOL    HW2 3575   1.542   3.489  -0.046
  669SOL     OW 3576   0.372   3.150   1.490
  669SOL    HW1 3577   0.359   3.243   1.456
  669SOL    HW2 3578   0.288   3.098   1.477
  670SOL     OW 3579   1.614   3.154   1.289
  670SOL    HW1 3580   1.674   3.157   1.369
  670SOL    HW2 3581   1.539   3.218   1.302
  671SOL     OW 3582   1.014   2.098   0.971
  671SOL    HW1 3583   1.006   2.062   0.878
  671SOL    HW2 3584   1.012   2.022   1.036
  672SOL     OW 3585   0.590   3.349   0.491
  672SOL    HW1 3586   0.632   3.291   0.421
  672SOL    HW2 3587   0.546   3.428   0.447
  673SOL     OW 3588   1.709   2.247   1.381
  673SOL    HW1 3589   1.782   2.316   1.385
  673SOL    HW2 3590   1.737   2.172   1.322
  674SOL     OW 3591   0.255   3.210   0.290
  674SOL    HW1 3592   0.159   3.211   0.263
  674SOL    HW2 3593   0.267   3.263   0.374
  675SOL     OW 3594   0.105   2.875   1.726
  675SOL    HW1 3595   0.028   2.842   1.780
  675SOL    HW2 3596   0.190   2.845   1.768
  676SOL     OW 3597   0.672   2.065   1.489
  676SOL    HW1 3598   0.762   2.049   1.449
  676SOL    HW2 3599   0.680   2.070   1.588
  677SOL     OW 3600   0.075   2.207   0.033
  677SOL    HW1 3601  -0.017   2.179   0.004
  677SOL    HW2 3602   0.106   2.284  -0.023
  678SOL     OW 3603   1.440   2.718   1.398
  678SOL    HW1 3604   1.383   2.770   1.335
  678SOL    HW2 3605   1.536   2.730   1.374
  679SOL     OW 3606   0.613   2.704   1.431
  679SOL    HW1 3607   0.669   2.785   1.414
  679SOL    HW2 3608   0.672   2.624   1.434
  680SOL     OW 3609   1.493   3.629   0.959
  680SOL    HW1 3610   1.526   3.693   0.890
  680SOL    HW2 3611   1.559   3.623   1.034
  681SOL     OW 3612   0.716   2.427   1.708
  681SOL    HW1 3613   0.735   2.492   1.782
  681SOL    HW2 3614   0.776   2.347   1.717
  682SOL     OW 3615   1.450   3.082   1.633
  682SOL    HW1 3616   1.441   3.072   1.732
  682SOL    HW2 3617   1.546   3.075   1.607
  683SOL     OW 3618   0.390   3.603   1.560
  683SOL    HW1 3619   0.299   3.644   1.558
  683SOL    HW2 3620   0.383   3.509   1.592
  684SOL     OW 3621   1.674   2.745   1.254
  684SOL    HW1 3622   1.647   2.656   1.217
  684SOL    HW2 3623   1.675   2.813   1.181
  685SOL     OW 3624   1.225   2.187   0.449
  685SOL    HW1 3625   1.290   2.113   0.438
  685SOL    HW2 3626   1.245   2.237   0.533
  686SOL     OW 3627   0.594   2.607   0.652
  686SOL    HW1 3628   0.644   2.692   0.633
  686SOL    HW2 3629   0.506   2.609   0.604
  687SOL     OW 3630   1.777   2.204   1.642
  687SOL    HW1 3631   1.760   2.235   1.548
  687SOL    HW2 3632   1.693   2.167   1.680
  688SOL     OW 3633   1.730   2.796   1.517
  688SOL    HW1 3634   1.768   2.887   1.532
  688SOL    HW2 3635   1.722   2.779   1.418
  689SOL     OW 3636   0.859   3.236   0.016
  689SOL    HW1 3637   0.813   3.251   0.104
  689SOL    HW2 3638   0.903   3.321  -0.014
  690SOL     OW 3639   0.661   3.652   0.953
  690SOL    HW1 3640   0.615   3.740   0.940
  690SOL    HW2 3641   0.760   3.664   0.946
  691SOL     OW 3642   0.859   2.818   0.861
  691SOL    HW1 3643   0.913   2.749   0.909
  691SOL    HW2 3644   0.827   2.887   0.927
  692SOL     OW 3645   1.083   2.846   0.087
  692SOL    HW1 3646   1.060   2.899   0.005
  692SOL    HW2 3647   1.164   2.790   0.068
  693SOL     OW 3648   1.861   3.431   0.851
  693SOL    HW1 3649   1.790   3.419   0.781
  693SOL    HW2 3650   1.862   3.352   0.911
  694SOL     OW 3651   0.221   3.176   1.844
  694SOL    HW1 3652   0.156   3.103   1.823
  694SOL    HW2 3653   0.225   3.190   1.942
  695SOL     OW 3654   0.079   3.102   0.653
  695SOL    HW1 3655   0.078   3.055   0.741
  695SOL    HW2 3656   0.161   3.074   0.602
  696SOL     OW 3657   0.672   3.253   1.624
  696SOL    HW1 3658   0.594   3.203   1.662
  696SOL    HW2 3659   0.669   3.348   1.655
  697SOL     OW 3660   1.824   2.054   1.227
  697SOL    HW1 3661   1.820   1.964   1.271
  697SOL    HW2 3662   1.827   2.043   1.128
  698SOL     OW 3663   0.428   2.286   0.520
  698SOL    HW1 3664   0.458   2.214   0.458
  698SOL    HW2 3665   0.389   2.246   0.603
  699SOL     OW 3666   1.705   3.349   1.104
  699SOL    HW1 3667   1.612   3.324   1.077
  699SOL    HW2 3668   1.731   3.299   1.186
  700SOL     OW 3669   0.317   2.409   1.280
  700SOL    HW1 3670   0.355   2.350   1.352
  700SOL    HW2 3671   0.357   2.383   1.192
  701SOL     OW 3672   0.812   3.448   0.687
  701SOL    HW1 3673   0.844   3.458   0.593
  701SOL    HW2 3674   0.733   3.386   0.689
  702SOL     OW 3675   1.424   2.076   1.112
  702SOL    HW1 3676   1.476   2.011   1.167
  702SOL    HW2 3677   1.375   2.139   1.173
  703SOL     OW 3678   1.001   1.896   1.154
  703SOL    HW1 3679   0.938   1.824   1.123
  703SOL    HW2 3680   1.094   1.860   1.154
  704SOL     OW 3681   0.770   3.192   0.301
  704SOL    HW1 3682   0.724   3.105   0.318
  704SOL    HW2 3683   0.861   3.189   0.342
  705SOL     OW 3684   0.618   3.429   1.284
  705SOL    HW1 3685   0.613   3.511   1.341
  705SOL    HW2 3686   0.707   3.426   1.239
  706SOL     OW 3687   1.352   1.914   0.168
  706SOL    HW1 3688   1.387   1.873   0.084
  706SOL    HW2 3689   1.262   1.876   0.188
  707SOL     OW 3690   1.300   2.315   0.691
  707SOL    HW1 3691   1.241   2.395   0.695
  707SOL    HW2 3692   1.315   2.280   0.784
  708SOL     OW 3693   1.593   2.083   0.882
  708SOL    HW1 3694   1.509   2.082   0.936
  708SOL    HW2 3695   1.595   2.166   0.826
  709SOL     OW 3696   0.039   2.939   0.300
  709SOL    HW1 3697   0.138   2.928   0.291
  709SOL    HW2 3698  -0.001   2.853   0.332
  710SOL     OW 3699   0.875   3.508   0.337
  710SOL    HW1 3700   0.798   3.473   0.283
  710SOL    HW2 3701   0.843   3.579   0.399
  711SOL     OW 3702   0.230   2.490   1.975
  711SOL    HW1 3703   0.137   2.488   2.012
  711SOL    HW2 3704   0.231   2.451   1.883
  712SOL     OW 3705   0.225   2.137   2.858
  712SOL    HW1 3706   0.260   2.120   2.950
  712SOL    HW2 3707   0.137   2.092   2.846
  713SOL     OW 3708   0.019   2.230   2.509
  713SOL    HW1 3709  -0.063   2.273   2.548
  713SOL    HW2 3710  -0.009   2.157   2.446
  714SOL     OW 3711   0.569   3.137   3.027
  714SOL    HW1 3712   0.476   3.130   2.990
  714SOL    HW2 3713   0.580   3.226   3.071
  715SOL     OW 3714   1.555   3.373   2.565
  715SOL    HW1 3715   1.498   3.357   2.646
  715SOL    HW2 3716   1.496   3.383   2.485
  716SOL     OW 3717   1.755   2.469   2.093
  716SOL    HW1 3718   1.743   2.456   1.994
  716SOL    HW2 3719   1.725   2.388   2.142
  717SOL     OW 3720   0.768   3.006   2.885
  717SOL    HW1 3721   0.690   3.023   2.945
  717SOL    HW2 3722   0.802   3.093   2.849
  718SOL     OW 3723   0.850   2.660   3.685
  718SOL    HW1 3724   0.846   2.736   3.750
  718SOL    HW2 3725   0.872   2.696   3.594
  719SOL     OW 3726   0.686   3.023   3.665
  719SOL    HW1 3727   0.746   3.102   3.679
  719SOL    HW2 3728   0.600   3.054   3.624
  720SOL     OW 3729   0.335   3.297   2.923
  720SOL    HW1 3730   0.257   3.266   2.870
  720SOL    HW2 3731   0.393   3.355   2.866
  721SOL     OW 3732   1.460   3.367   3.201
  721SOL    HW1 3733   1.484   3.461   3.227
  721SOL    HW2 3734   1.444   3.313   3.283
  722SOL     OW 3735   1.603   2.309   2.599
  722SOL    HW1 3736   1.529   2.355   2.549
  722SOL    HW2 3737   1.654   2.377   2.652
  723SOL     OW 3738   0.231   3.575   2.345
  723SOL    HW1 3739   0.265   3.652   2.399
  723SOL    HW2 3740   0.275   3.575   2.255
  724SOL     OW 3741   0.230   3.296   2.400
  724SOL    HW1 3742   0.204   3.392   2.400
  724SOL    HW2 3743   0.159   3.242   2.445
  725SOL     OW 3744   0.240   2.953   2.748
  725SOL    HW1 3745   0.254   2.869   2.800
  725SOL    HW2 3746   0.185   3.017   2.803
  726SOL     OW 3747   0.620   3.648   3.301
  726SOL    HW1 3748   0.528   3.631   3.336
  726SOL    HW2 3749   0.648   3.740   3.327
  727SOL     OW 3750   0.606   2.826   1.985
  727SOL    HW1 3751   0.613   2.910   1.931
  727SOL    HW2 3752   0.652   2.839   2.073
  728SOL     OW 3753   1.594   1.976   3.342
  728SOL    HW1 3754   1.576   2.043   3.270
  728SOL    HW2 3755   1.591   2.022   3.431
  729SOL     OW 3756   0.122   2.505   2.425
  729SOL    HW1 3757   0.077   2.417   2.442
  729SOL    HW2 3758   0.121   2.559   2.509
  730SOL     OW 3759   1.842   3.629   2.221
  730SOL    HW1 3760   1.896   3.600   2.301
  730SOL    HW2 3761   1.872   3.719   2.192
  731SOL     OW 3762   0.027   3.458   1.979
  731SOL    HW1 3763   0.008   3.362   2.000
  731SOL    HW2 3764  -0.006   3.516   2.054
  732SOL     OW 3765   1.689   2.784   2.474
  732SOL    HW1 3766   1.784   2.755   2.482
  732SOL    HW2 3767   1.681   2.849   2.399
  733SOL     OW 3768   1.641   2.970   2.294
  733SOL    HW1 3769   1.727   2.972   2.242
  733SOL    HW2 3770   1.655   3.017   2.382
  734SOL     OW 3771   0.613   3.227   2.588
  734SOL    HW1 3772   0.564   3.140   2.597
  734SOL    HW2 3773   0.590   3.270   2.501
  735SOL     OW 3774   0.809   1.866   2.364
  735SOL    HW1 3775   0.849   1.957   2.355
  735SOL    HW2 3776   0.709   1.874   2.370
  736SOL     OW 3777   0.197   2.838   3.126
  736SOL    HW1 3778   0.286   2.793   3.112
  736SOL    HW2 3779   0.124   2.773   3.107
  737SOL     OW 3780   1.525   2.861   2.052
  737SOL    HW1 3781   1.462   2.785   2.065
  737SOL    HW2 3782   1.573   2.879   2.138
  738SOL     OW 3783   1.466   3.279   2.815
  738SOL    HW1 3784   1.407   3.285   2.895
  738SOL    HW2 3785   1.451   3.191   2.769
  739SOL     OW 3786   1.667   3.576   2.434
  739SOL    HW1 3787   1.626   3.553   2.346
  739SOL    HW2 3788   1.649   3.502   2.499
  740SOL     OW 3789   0.598   2.591   2.132
  740SOL    HW1 3790   0.622   2.660   2.064
  740SOL    HW2 3791   0.520   2.624   2.186
  741SOL     OW 3792   1.281   2.207   2.806
  741SOL    HW1 3793   1.195   2.157   2.793
  741SOL    HW2 3794   1.343   2.153   2.862
  742SOL     OW 3795   1.576   3.524   2.169
  742SOL    HW1 3796   1.665   3.570   2.172
  742SOL    HW2 3797   1.555   3.500   2.074
  743SOL     OW 3798   0.807   2.467   3.327
  743SOL    HW1 3799   0.760   2.464   3.416
  743SOL    HW2 3800   0.756   2.412   3.261
  744SOL     OW 3801   1.394   2.331   3.536
  744SOL    HW1 3802   1.374   2.374   3.624
  744SOL    HW2 3803   1.472   2.269   3.545
  745SOL     OW 3804   0.973   2.752   3.434
  745SOL    HW1 3805   1.019   2.668   3.405
  745SOL    HW2 3806   0.917   2.786   3.359
  746SOL     OW 3807   0.991   2.272   3.104
  746SOL    HW1 3808   0.914   2.306   3.158
  746SOL    HW2 3809   0.957   2.221   3.025
  747SOL     OW 3810   0.076   2.673   2.651
  747SOL    HW1 3811   0.175   2.661   2.660
  747SOL    HW2 3812   0.052   2.768   2.672
  748SOL     OW 3813   0.130   3.683   3.433
  748SOL    HW1 3814   0.120   3.668   3.532
  748SOL    HW2 3815   0.044   3.719   3.397
  749SOL     OW 3816   0.865   2.210   2.057
  749SOL    HW1 3817   0.924   2.273   2.008
  749SOL    HW2 3818   0.884   2.116   2.028
  750SOL     OW 3819   1.719   2.447   3.693
  750SOL    HW1 3820   1.693   2.536   3.657
  750SOL    HW2 3821   1.717   2.379   3.620
  751SOL     OW 3822   1.362   3.006   2.407
  751SOL    HW1 3823   1.445   2.977   2.359
  751SOL    HW2 3824   1.313   3.073   2.351
  752SOL     OW 3825   0.550   2.058   2.747
  752SOL    HW1 3826   0.545   2.053   2.847
  752SOL    HW2 3827   0.552   2.154   2.718
  753SOL     OW 3828   1.008   3.318   2.339
  753SOL    HW1 3829   0.962   3.390   2.287
  753SOL    HW2 3830   1.004   3.338   2.437
  754SOL     OW 3831   0.351   3.663   2.715
  754SOL    HW1 3832   0.401   3.577   2.721
  754SOL    HW2 3833   0.416   3.740   2.712
  755SOL     OW 3834   1.795   2.928   2.735
  755SOL    HW1 3835   1.733   2.913   2.659
  755SOL    HW2 3836   1.743   2.939   2.820
  756SOL     OW 3837   0.321   2.805   2.104
  756SOL    HW1 3838   0.403   2.844   2.062
  756SOL    HW2 3839   0.294   2.723   2.055
  757SOL     OW 3840   1.458   2.597   2.590
  757SOL    HW1 3841   1.453   2.532   2.665
  757SOL    HW2 3842   1.538   2.656   2.603
  758SOL     OW 3843   0.461   3.128   3.589
  758SOL    HW1 3844   0.411   3.129   3.503
  758SOL    HW2 3845   0.398   3.110   3.665
  759SOL     OW 3846   1.111   3.638   2.099
  759SOL    HW1 3847   1.051   3.576   2.149
  759SOL    HW2 3848   1.142   3.594   2.014
  760SOL     OW 3849   0.202   2.147   3.360
  760SOL    HW1 3850   0.122   2.207   3.347
  760SOL    HW2 3851   0.192   2.098   3.446
  761SOL     OW 3852   1.632   3.239   1.943
  761SOL    HW1 3853   1.600   3.333   1.933
  761SOL    HW2 3854   1.556   3.176   1.931
  762SOL     OW 3855   0.464   3.605   2.185
  762SOL    HW1 3856   0.497   3.644   2.271
  762SOL    HW2 3857   0.540   3.598   2.120
  763SOL     OW 3858   1.400   1.969   2.288
  763SOL    HW1 3859   1.376   1.932   2.198
  763SOL    HW2 3860   1.499   1.985   2.292
  764SOL     OW 3861   0.249   3.647   3.103
  764SOL    HW1 3862   0.306   3.582   3.153
  764SOL    HW2 3863   0.233   3.614   3.010
  765SOL     OW 3864   0.940   3.560   2.766
  765SOL    HW1 3865   1.020   3.503   2.787
  765SOL    HW2 3866   0.891   3.520   2.689
  766SOL     OW 3867   0.382   2.562   2.342
  766SOL    HW1 3868   0.427   2.472   2.339
  766SOL    HW2 3869   0.288   2.551   2.375
  767SOL     OW 3870   1.547   2.084   3.591
  767SOL    HW1 3871   1.542   2.121   3.683
  767SOL    HW2 3872   1.475   2.015   3.579
  768SOL     OW 3873   0.614   1.984   1.979
  768SOL    HW1 3874   0.712   1.962   1.986
  768SOL    HW2 3875   0.583   1.967   1.886
  769SOL     OW 3876   0.781   2.126   3.611
  769SOL    HW1 3877   0.848   2.065   3.654
  769SOL    HW2 3878   0.708   2.145   3.676
  770SOL     OW 3879   0.888   3.376   3.057
  770SOL    HW1 3880   0.865   3.351   2.963
  770SOL    HW2 3881   0.949   3.307   3.096
  771SOL     OW 3882   1.351   2.452   3.295
  771SOL    HW1 3883   1.379   2.409   3.380
  771SOL    HW2 3884   1.376   2.548   3.296
  772SOL     OW 3885   0.803   3.264   2.786
  772SOL    HW1 3886   0.893   3.278   2.744
  772SOL    HW2 3887   0.732   3.266   2.715
  773SOL     OW 3888   0.922   2.365   2.761
  773SOL    HW1 3889   0.897   2.356   2.665
  773SOL    HW2 3890   0.970   2.283   2.792
  774SOL     OW 3891   0.539   1.926   2.374
  774SOL    HW1 3892   0.458   1.927   2.432
  774SOL    HW2 3893   0.542   2.009   2.319
  775SOL     OW 3894   1.434   3.050   1.903
  775SOL    HW1 3895   1.466   2.974   1.960
  775SOL    HW2 3896   1.342   3.077   1.933
  776SOL     OW 3897   0.935   2.098   2.342
  776SOL    HW1 3898   0.887   2.139   2.264
  776SOL    HW2 3899   1.034   2.096   2.323
  777SOL     OW 3900   1.076   2.545   3.326
  777SOL    HW1 3901   0.996   2.484   3.329
  777SOL    HW2 3902   1.157   2.492   3.302
  778SOL     OW 3903   1.227   3.432   2.655
  778SOL    HW1 3904   1.248   3.506   2.590
  778SOL    HW2 3905   1.295   3.432   2.728
  779SOL     OW 3906   0.459   3.014   2.603
  779SOL    HW1 3907   0.388   2.987   2.668
  779SOL    HW2 3908   0.433   2.986   2.510
  780SOL     OW 3909   1.271   3.659   2.453
  780SOL    HW1 3910   1.315   3.723   2.389
  780SOL    HW2 3911   1.221   3.711   2.523
  781SOL     OW 3912   1.032   2.411   1.878
  781SOL    HW1 3913   0.991   2.493   1.839
  781SOL    HW2 3914   1.096   2.437   1.951
  782SOL     OW 3915   0.078   2.418   3.248
  782SOL    HW1 3916   0.170   2.417   3.207
  782SOL    HW2 3917   0.072   2.492   3.315
  783SOL     OW 3918   0.561   2.084   3.009
  783SOL    HW1 3919   0.599   2.000   3.046
  783SOL    HW2 3920   0.473   2.103   3.053
  784SOL     OW 3921   0.866   2.316   2.504
  784SOL    HW1 3922   0.834   2.388   2.442
  784SOL    HW2 3923   0.890   2.235   2.451
  785SOL     OW 3924   1.017   1.901   2.615
  785SOL    HW1 3925   0.945   1.906   2.546
  785SOL    HW2 3926   0.993   1.832   2.684
  786SOL     OW 3927   1.466   2.452   2.854
  786SOL    HW1 3928   1.436   2.357   2.861
  786SOL    HW2 3929   1.539   2.468   2.920
  787SOL     OW 3930   1.857   2.695   2.239
  787SOL    HW1 3931   1.899   2.631   2.303
  787SOL    HW2 3932   1.819   2.644   2.161
  788SOL     OW 3933   0.488   3.247   2.036
  788SOL    HW1 3934   0.401   3.232   2.083
  788SOL    HW2 3935   0.471   3.273   1.941
  789SOL     OW 3936   1.664   3.142   2.519
  789SOL    HW1 3937   1.763   3.150   2.533
  789SOL    HW2 3938   1.619   3.226   2.550
  790SOL     OW 3939   1.390   2.437   1.940
  790SOL    HW1 3940   1.336   2.416   2.021
  790SOL    HW2 3941   1.481   2.396   1.949
  791SOL     OW 3942   0.527   2.118   2.190
  791SOL    HW1 3943   0.554   2.059   2.115
  791SOL    HW2 3944   0.527   2.213   2.159
  792SOL     OW 3945   1.754   3.085   3.450
  792SOL    HW1 3946   1.845   3.046   3.437
  792SOL    HW2 3947   1.762   3.181   3.474
  793SOL     OW 3948   0.915   1.951   3.264
  793SOL    HW1 3949   0.940   1.931   3.169
  793SOL    HW2 3950   0.987   2.007   3.306
  794SOL     OW 3951   0.705   2.912   2.230
  794SOL    HW1 3952   0.691   2.919   2.329
  794SOL    HW2 3953   0.789   2.861   2.212
  795SOL     OW 3954   0.410   2.675   3.113
  795SOL    HW1 3955   0.496   2.687   3.163
  795SOL    HW2 3956   0.368   2.588   3.140
  796SOL     OW 3957   1.274   2.248   3.124
  796SOL    HW1 3958   1.295   2.322   3.188
  796SOL    HW2 3959   1.185   2.265   3.081
  797SOL     OW 3960   0.064   3.426   3.193
  797SOL    HW1 3961   0.018   3.508   3.159
  797SOL    HW2 3962   0.162   3.445   3.202
  798SOL     OW 3963   0.367   2.962   2.363
  798SOL    HW1 3964   0.360   3.045   2.307
  798SOL    HW2 3965   0.371   2.882   2.303
  799SOL     OW 3966   0.566   2.399   2.727
  799SOL    HW1 3967   0.578   2.465   2.653
  799SOL    HW2 3968   0.612   2.433   2.810
  800SOL     OW 3969   1.582   2.501   2.334
  800SOL    HW1 3970   1.551   2.562   2.407
  800SOL    HW2 3971   1.632   2.553   2.265
  801SOL     OW 3972   0.354   3.372   3.191
  801SOL    HW1 3973   0.333   3.328   3.104
  801SOL    HW2 3974   0.451   3.398   3.194
  802SOL     OW 3975   1.587   2.641   3.532
  802SOL    HW1 3976   1.495   2.679   3.527
  802SOL    HW2 3977   1.647   2.688   3.467
  803SOL     OW 3978   1.013   1.967   3.632
  803SOL    HW1 3979   1.019   2.052   3.580
  803SOL    HW2 3980   1.045   1.891   3.575
  804SOL     OW 3981   0.573   2.732   2.891
  804SOL    HW1 3982   0.617   2.821   2.882
  804SOL    HW2 3983   0.510   2.732   2.968
  805SOL     OW 3984   1.209   2.387   2.137
  805SOL    HW1 3985   1.222   2.303   2.191
  805SOL    HW2 3986   1.180   2.461   2.197
  806SOL     OW 3987   0.307   2.075   3.093
  806SOL    HW1 3988   0.284   2.112   3.183
  806SOL    HW2 3989   0.277   1.980   3.087
  807SOL     OW 3990   0.037   3.172   3.144
  807SOL    HW1 3991   0.090   3.123   3.212
  807SOL    HW2 3992   0.059   3.270   3.149
  808SOL     OW 3993   0.732   2.496   2.926
  808SOL    HW1 3994   0.791   2.470   2.850
  808SOL    HW2 3995   0.704   2.592   2.915
  809SOL     OW 3996   1.728   2.797   3.716
  809SOL    HW1 3997   1.682   2.790   3.627
  809SOL    HW2 3998   1.666   2.841   3.782
  810SOL     OW 3999   0.307   1.925   2.480
  810SOL    HW1 4000   0.296   2.019   2.513
  810SOL    HW2 4001   0.302   1.862   2.557
  811SOL     OW 4002   1.622   2.229   2.236
  811SOL    HW1 4003   1.624   2.153   2.300
  811SOL    HW2 4004   1.574   2.306   2.276
  812SOL     OW 4005   0.980   3.435   3.562
  812SOL    HW1 4006   0.960   3.479   3.474
  812SOL    HW2 4007   1.019   3.344   3.546
  813SOL     OW 4008   1.540   2.136   1.987
  813SOL    HW1 4009   1.479   2.061   2.010
  813SOL    HW2 4010   1.562   2.188   2.070
  814SOL     OW 4011   1.303   2.700   1.904
  814SOL    HW1 4012   1.337   2.607   1.919
  814SOL    HW2 4013   1.321   2.727   1.809
  815SOL     OW 4014   0.319   2.672   2.811
  815SOL    HW1 4015   0.412   2.708   2.816
  815SOL    HW2 4016   0.313   2.587   2.863
  816SOL     OW 4017   0.339   2.371   2.868
  816SOL    HW1 4018   0.287   2.288   2.851
  816SOL    HW2 4019   0.416   2.376   2.804
  817SOL     OW 4020   1.138   2.242   3.540
  817SOL    HW1 4021   1.093   2.305   3.604
  817SOL    HW2 4022   1.231   2.273   3.523
  818SOL     OW 4023   1.160   2.069   3.339
  818SOL    HW1 4024   1.160   2.133   3.416
  818SOL    HW2 4025   1.188   2.117   3.256
  819SOL     OW 4026   0.008   3.188   2.062
  819SOL    HW1 4027  -0.085   3.209   2.031
  819SOL    HW2 4028   0.018   3.089   2.075
  820SOL     OW 4029   0.088   3.663   2.789
  820SOL    HW1 4030   0.046   3.577   2.762
  820SOL    HW2 4031   0.182   3.666   2.755
  821SOL     OW 4032   0.504   3.430   2.772
  821SOL    HW1 4033   0.570   3.504   2.781
  821SOL    HW2 4034   0.548   3.351   2.730
  822SOL     OW 4035   1.002   2.658   3.100
  822SOL    HW1 4036   1.043   2.626   3.186
  822SOL    HW2 4037   0.906   2.631   3.097
  823SOL     OW 4038   0.040   2.406   2.976
  823SOL    HW1 4039   0.125   2.373   2.935
  823SOL    HW2 4040   0.053   2.421   3.074
  824SOL     OW 4041   0.815   2.434   2.187
  824SOL    HW1 4042   0.822   2.345   2.141
  824SOL    HW2 4043   0.721   2.468   2.179
  825SOL     OW 4044   1.657   2.466   3.068
  825SOL    HW1 4045   1.619   2.397   3.130
  825SOL    HW2 4046   1.739   2.430   3.024
  826SOL     OW 4047   0.252   3.426   3.606
  826SOL    HW1 4048   0.222   3.483   3.682
  826SOL    HW2 4049   0.245   3.329   3.632
  827SOL     OW 4050   0.671   2.326   3.131
  827SOL    HW1 4051   0.637   2.237   3.101
  827SOL    HW2 4052   0.697   2.380   3.051
  828SOL     OW 4053   0.930   3.540   3.327
  828SOL    HW1 4054   0.906   3.522   3.232
  828SOL    HW2 4055   0.960   3.634   3.337
  829SOL     OW 4056   0.473   2.362   2.053
  829SOL    HW1 4057   0.534   2.442   2.057
  829SOL    HW2 4058   0.378   2.393   2.060
  830SOL     OW 4059   1.302   2.717   2.171
  830SOL    HW1 4060   1.216   2.686   2.213
  830SOL    HW2 4061   1.298   2.703   2.072
  831SOL     OW 4062   1.759   3.609   3.016
  831SOL    HW1 4063   1.820   3.639   2.943
  831SOL    HW2 4064   1.721   3.520   2.994
  832SOL     OW 4065   1.252   3.593   2.990
  832SOL    HW1 4066   1.336   3.598   2.936
  832SOL    HW2 4067   1.229   3.497   3.008
  833SOL     OW 4068   0.083   3.120   2.884
  833SOL    HW1 4069   0.078   3.119   2.984
  833SOL    HW2 4070   0.000   3.079   2.846
  834SOL     OW 4071   0.688   3.524   3.578
  834SOL    HW1 4072   0.632   3.605   3.587
  834SOL    HW2 4073   0.740   3.528   3.492
  835SOL     OW 4074   1.726   1.997   2.385
  835SOL    HW1 4075   1.799   1.980   2.318
  835SOL    HW2 4076   1.695   1.910   2.423
  836SOL     OW 4077   1.388   3.435   2.339
  836SOL    HW1 4078   1.455   3.447   2.265
  836SOL    HW2 4079   1.348   3.524   2.362
  837SOL     OW 4080   0.130   3.656   3.713
  837SOL    HW1 4081   0.089   3.582   3.766
  837SOL    HW2 4082   0.194   3.707   3.771
  838SOL     OW 4083   1.280   2.789   2.534
  838SOL    HW1 4084   1.340   2.708   2.536
  838SOL    HW2 4085   1.320   2.858   2.474
  839SOL     OW 4086   0.830   3.135   3.284
  839SOL    HW1 4087   0.825   3.168   3.379
  839SOL    HW2 4088   0.744   3.154   3.238
  840SOL     OW 4089   0.672   3.478   2.016
  840SOL    HW1 4090   0.681   3.488   1.917
  840SOL    HW2 4091   0.632   3.389   2.037
  841SOL     OW 4092   1.841   2.037   2.825
  841SOL    HW1 4093   1.880   1.952   2.789
  841SOL    HW2 4094   1.743   2.039   2.806
  842SOL     OW 4095   0.263   2.188   2.582
  842SOL    HW1 4096   0.184   2.239   2.548
  842SOL    HW2 4097   0.254   2.173   2.680
  843SOL     OW 4098   1.194   3.474   1.893
  843SOL    HW1 4099   1.200   3.381   1.930
  843SOL    HW2 4100   1.135   3.474   1.813
  844SOL     OW 4101   0.822   2.864   3.234
  844SOL    HW1 4102   0.862   2.863   3.142
  844SOL    HW2 4103   0.832   2.956   3.274
  845SOL     OW 4104   0.916   2.772   2.153
  845SOL    HW1 4105   0.979   2.810   2.085
  845SOL    HW2 4106   0.956   2.689   2.192
  846SOL     OW 4107   1.504   3.469   1.906
  846SOL    HW1 4108   1.412   3.506   1.913
  846SOL    HW2 4109   1.542   3.489   1.816
  847SOL     OW 4110   0.372   3.150   3.352
  847SOL    HW1 4111   0.359   3.243   3.318
  847SOL    HW2 4112   0.288   3.098   3.339
  848SOL     OW 4113   1.014   2.098   2.833
  848SOL    HW1 4114   1.006   2.062   2.740
  848SOL    HW2 4115   1.012   2.022   2.898
  849SOL     OW 4116   0.590   3.349   2.353
  849SOL    HW1 4117   0.632   3.291   2.283
  849SOL    HW2 4118   0.546   3.428   2.309
  850SOL     OW 4119   1.709   2.247   3.243
  850SOL    HW1 4120   1.782   2.316   3.247
  850SOL    HW2 4121   1.737   2.172   3.184
  851SOL     OW 4122   0.255   3.210   2.152
  851SOL    HW1 4123   0.159   3.211   2.125
  851SOL    HW2 4124   0.267   3.263   2.236
  852SOL     OW 4125   0.105   2.875   3.588
  852SOL    HW1 4126   0.028   2.842   3.642
  852SOL    HW2 4127   0.190   2.845   3.630
  853SOL     OW 4128   0.672   2.065   3.351
  853SOL    HW1 4129   0.762   2.049   3.311
  853SOL    HW2 4130   0.680   2.070   3.450
  854SOL     OW 4131   0.075   2.207   1.895
  854SOL    HW1 4132  -0.017   2.179   1.866
  854SOL    HW2 4133   0.106   2.284   1.839
  855SOL     OW 4134   1.440   2.718   3.260
  855SOL    HW1 4135   1.383   2.770   3.197
  855SOL    HW2 4136   1.536   2.730   3.236
  856SOL     OW 4137   0.613   2.704   3.293
  856SOL    HW1 4138   0.669   2.785   3.276
  856SOL    HW2 4139   0.672   2.624   3.296
  857SOL     OW 4140   1.493   3.629   2.821
  857SOL    HW1 4141   1.526   3.693   2.752
  857SOL    HW2 4142   1.559   3.623   2.896
  858SOL     OW 4143   0.716   2.427   3.570
  858SOL    HW1 4144   0.735   2.492   3.644
  858SOL    HW2 4145   0.776   2.347   3.579
  859SOL     OW 4146   0.390   3.603   3.422
  859SOL    HW1 4147   0.299   3.644   3.420
  859SOL    HW2 4148   0.383   3.509   3.454
  860SOL     OW 4149   1.225   2.187   2.311
  860SOL    HW1 4150   1.290   2.113   2.300
  860SOL    HW2 4151   1.245   2.237   2.395
  861SOL     OW 4152   0.594   2.607   2.514
  861SOL    HW1 4153   0.644   2.692   2.495
  861SOL    HW2 4154   0.506   2.609   2.466
  862SOL     OW 4155   1.777   2.204   3.504
  862SOL    HW1 4156   1.760   2.235   3.410
  862SOL    HW2 4157   1.693   2.167   3.542
  863SOL     OW 4158   1.730   2.796   3.379
  863SOL    HW1 4159   1.768   2.887   3.394
  863SOL    HW2 4160   1.722   2.779   3.280
  864SOL     OW 4161   0.859   3.236   1.878
  864SOL    HW1 4162   0.813   3.251   1.966
  864SOL    HW2 4163   0.903   3.321   1.848
  865SOL     OW 4164   0.661   3.652   2.815
  865SOL    HW1 4165   0.615   3.740   2.802
  865SOL    HW2 4166   0.760   3.664   2.808
  866SOL     OW 4167   1.861   3.431   2.713
  866SOL    HW1 4168   1.790   3.419   2.643
  866SOL    HW2 4169   1.862   3.352   2.773
  867SOL     OW 4170   0.221   3.176   3.706
  867SOL    HW1 4171   0.156   3.103   3.685
  867SOL    HW2 4172   0.225   3.190   3.804
  868SOL     OW 4173   0.079   3.102   2.515
  868SOL    HW1 4174   0.078   3.055   2.603
  868SOL    HW2 4175   0.161   3.074   2.464
  869SOL     OW 4176   0.672   3.253   3.486
  869SOL    HW1 4177   0.594   3.203   3.524
  869SOL    HW2 4178   0.669   3.348   3.517
  870SOL     OW 4179   1.824   2.054   3.089
  870SOL    HW1 4180   1.820   1.964   3.133
  870SOL    HW2 4181   1.827   2.043   2.990
  871SOL     OW 4182   0.428   2.286   2.382
  871SOL    HW1 4183   0.458   2.214   2.320
  871SOL    HW2 4184   0.389   2.246   2.465
  872SOL     OW 4185   1.705   3.349   2.966
  872SOL    HW1 4186   1.612   3.324   2.939
  872SOL    HW2 4187   1.731   3.299   3.048
  873SOL     OW 4188   0.812   3.448   2.549
  873SOL    HW1 4189   0.844   3.458   2.455
  873SOL    HW2 4190   0.733   3.386   2.551
  874SOL     OW 4191   1.424   2.076   2.974
  874SOL    HW1 4192   1.476   2.011   3.029
  874SOL    HW2 4193   1.375   2.139   3.035
  875SOL     OW 4194   1.001   1.896   3.016
  875SOL    HW1 4195   0.938   1.824   2.985
  875SOL    HW2 4196   1.094   1.860   3.016
  876SOL     OW 4197   0.770   3.192   2.163
  876SOL    HW1 4198   0.724   3.105   2.180
  876SOL    HW2 4199   0.861   3.189   2.204
  877SOL     OW 4200   0.618   3.429   3.146
  877SOL    HW1 4201   0.613   3.511   3.203
  877SOL    HW2 4202   0.707   3.426   3.101
  878SOL     OW 4203   1.352   1.914   2.030
  878SOL    HW1 4204   1.387   1.873   1.946
  878SOL    HW2 4205   1.262   1.876   2.050
  879SOL     OW 4206   1.300   2.315   2.553
  879SOL    HW1 4207   1.241   2.395   2.557
  879SOL    HW2 4208   1.315   2.280   2.646
  880SOL     OW 4209   1.593   2.083   2.744
  880SOL    HW1 4210   1.509   2.082   2.798
  880SOL    HW2 4211   1.595   2.166   2.688
  881SOL     OW 4212   0.039   2.939   2.162
  881SOL    HW1 4213   0.138   2.928   2.153
  881SOL    HW2 4214  -0.001   2.853   2.194
  882SOL     OW 4215   0.875   3.508   2.199
  882SOL    HW1 4216   0.798   3.473   2.145
  882SOL    HW2 4217   0.843   3.579   2.261
  883SOL     OW 4218   0.225   2.137   4.720
  883SOL    HW1 4219   0.260   2.120   4.812
  883SOL    HW2 4220   0.137   2.092   4.708
  884SOL     OW 4221   0.019   2.230   4.371
  884SOL    HW1 4222  -0.063   2.273   4.410
  884SOL    HW2 4223  -0.009   2.157   4.308
  885SOL     OW 4224   0.569   3.137   4.889
  885SOL    HW1 4225   0.476   3.130   4.852
  885SOL    HW2 4226   0.580   3.226   4.933
  886SOL     OW 4227   1.555   3.373   4.427
  886SOL    HW1 4228   1.498   3.357   4.508
  886SOL    HW2 4229   1.496   3.383   4.347
  887SOL     OW 4230   1.135   2.565   4.441
  887SOL    HW1 4231   1.192   2.643   4.416
  887SOL    HW2 4232   1.075   2.591   4.517
  888SOL     OW 4233   1.755   2.469   3.955
  888SOL    HW1 4234   1.743   2.456   3.856
  888SOL    HW2 4235   1.725   2.388   4.004
  889SOL     OW 4236   0.685   2.874   4.389
  889SOL    HW1 4237   0.754   2.858   4.459
  889SOL    HW2 4238   0.612   2.931   4.427
  890SOL     OW 4239   0.335   3.297   4.785
  890SOL    HW1 4240   0.257   3.266   4.732
  890SOL    HW2 4241   0.393   3.355   4.728
  891SOL     OW 4242   1.603   2.309   4.461
  891SOL    HW1 4243   1.529   2.355   4.411
  891SOL    HW2 4244   1.654   2.377   4.514
  892SOL     OW 4245   0.231   3.575   4.207
  892SOL    HW1 4246   0.265   3.652   4.261
  892SOL    HW2 4247   0.275   3.575   4.117
  893SOL     OW 4248   0.230   3.296   4.262
  893SOL    HW1 4249   0.204   3.392   4.262
  893SOL    HW2 4250   0.159   3.242   4.307
  894SOL     OW 4251   0.240   2.953   4.610
  894SOL    HW1 4252   0.254   2.869   4.662
  894SOL    HW2 4253   0.185   3.017   4.665
  895SOL     OW 4254   0.620   3.648   5.163
  895SOL    HW1 4255   0.528   3.631   5.198
  895SOL    HW2 4256   0.648   3.740   5.189
  896SOL     OW 4257   0.606   2.826   3.847
  896SOL    HW1 4258   0.613   2.910   3.793
  896SOL    HW2 4259   0.652   2.839   3.935
  897SOL     OW 4260   0.122   2.505   4.287
  897SOL    HW1 4261   0.077   2.417   4.304
  897SOL    HW2 4262   0.121   2.559   4.371
  898SOL     OW 4263   0.027   3.458   3.841
  898SOL    HW1 4264   0.008   3.362   3.862
  898SOL    HW2 4265  -0.006   3.516   3.916
  899SOL     OW 4266   1.689   2.784   4.336
  899SOL    HW1 4267   1.784   2.755   4.344
  899SOL    HW2 4268   1.681   2.849   4.261
  900SOL     OW 4269   1.641   2.970   4.156
  900SOL    HW1 4270   1.727   2.972   4.104
  900SOL    HW2 4271   1.655   3.017   4.244
  901SOL     OW 4272   0.613   3.227   4.450
  901SOL    HW1 4273   0.564   3.140   4.459
  901SOL    HW2 4274   0.590   3.270   4.363
  902SOL     OW 4275   0.809   1.866   4.226
  902SOL    HW1 4276   0.849   1.957   4.217
  902SOL    HW2 4277   0.709   1.874   4.232
  903SOL     OW 4278   0.197   2.838   4.988
  903SOL    HW1 4279   0.286   2.793   4.974
  903SOL    HW2 4280   0.124   2.773   4.969
  904SOL     OW 4281   1.525   2.861   3.914
  904SOL    HW1 4282   1.462   2.785   3.927
  904SOL    HW2 4283   1.573   2.879   4.000
  905SOL     OW 4284   1.281   2.207   4.668
  905SOL    HW1 4285   1.195   2.157   4.655
  905SOL    HW2 4286   1.343   2.153   4.724
  906SOL     OW 4287   0.991   2.272   4.966
  906SOL    HW1 4288   0.914   2.306   5.020
  906SOL    HW2 4289   0.957   2.221   4.887
  907SOL     OW 4290   1.041   2.563   4.153
  907SOL    HW1 4291   1.067   2.559   4.249
  907SOL    HW2 4292   0.956   2.512   4.139
  908SOL     OW 4293   0.076   2.673   4.513
  908SOL    HW1 4294   0.175   2.661   4.522
  908SOL    HW2 4295   0.052   2.768   4.534
  909SOL     OW 4296   0.130   3.683   5.295
  909SOL    HW1 4297   0.120   3.668   5.394
  909SOL    HW2 4298   0.044   3.719   5.259
  910SOL     OW 4299   0.865   2.210   3.919
  910SOL    HW1 4300   0.924   2.273   3.870
  910SOL    HW2 4301   0.884   2.116   3.890
  911SOL     OW 4302   1.362   3.006   4.269
  911SOL    HW1 4303   1.445   2.977   4.221
  911SOL    HW2 4304   1.313   3.073   4.213
  912SOL     OW 4305   0.550   2.058   4.609
  912SOL    HW1 4306   0.545   2.053   4.709
  912SOL    HW2 4307   0.552   2.154   4.580
  913SOL     OW 4308   1.008   3.318   4.201
  913SOL    HW1 4309   0.962   3.390   4.149
  913SOL    HW2 4310   1.004   3.338   4.299
  914SOL     OW 4311   0.351   3.663   4.577
  914SOL    HW1 4312   0.401   3.577   4.583
  914SOL    HW2 4313   0.416   3.740   4.574
  915SOL     OW 4314   1.795   2.928   4.597
  915SOL    HW1 4315   1.733   2.913   4.521
  915SOL    HW2 4316   1.743   2.939   4.682
  916SOL     OW 4317   1.458   2.597   4.452
  916SOL    HW1 4318   1.453   2.532   4.527
  916SOL    HW2 4319   1.538   2.656   4.465
  917SOL     OW 4320   1.111   3.638   3.961
  917SOL    HW1 4321   1.051   3.576   4.011
  917SOL    HW2 4322   1.142   3.594   3.876
  918SOL     OW 4323   0.464   3.605   4.047
  918SOL    HW1 4324   0.497   3.644   4.133
  918SOL    HW2 4325   0.540   3.598   3.982
  919SOL     OW 4326   1.400   1.969   4.150
  919SOL    HW1 4327   1.376   1.932   4.060
  919SOL    HW2 4328   1.499   1.985   4.154
  920SOL     OW 4329   0.249   3.647   4.965
  920SOL    HW1 4330   0.306   3.582   5.015
  920SOL    HW2 4331   0.233   3.614   4.872
  921SOL     OW 4332   0.382   2.562   4.204
  921SOL    HW1 4333   0.427   2.472   4.201
  921SOL    HW2 4334   0.288   2.551   4.237
  922SOL     OW 4335   0.614   1.984   3.841
  922SOL    HW1 4336   0.712   1.962   3.848
  922SOL    HW2 4337   0.583   1.967   3.748
  923SOL     OW 4338   0.922   2.365   4.623
  923SOL    HW1 4339   0.897   2.356   4.527
  923SOL    HW2 4340   0.970   2.283   4.654
  924SOL     OW 4341   0.539   1.926   4.236
  924SOL    HW1 4342   0.458   1.927   4.294
  924SOL    HW2 4343   0.542   2.009   4.181
  925SOL     OW 4344   0.935   2.098   4.204
  925SOL    HW1 4345   0.887   2.139   4.126
  925SOL    HW2 4346   1.034   2.096   4.185
  926SOL     OW 4347   0.459   3.014   4.465
  926SOL    HW1 4348   0.388   2.987   4.530
  926SOL    HW2 4349   0.433   2.986   4.372
  927SOL     OW 4350   1.032   2.411   3.740
  927SOL    HW1 4351   0.991   2.493   3.701
  927SOL    HW2 4352   1.096   2.437   3.813
  928SOL     OW 4353   0.561   2.084   4.871
  928SOL    HW1 4354   0.599   2.000   4.908
  928SOL    HW2 4355   0.473   2.103   4.915
  929SOL     OW 4356   0.866   2.316   4.366
  929SOL    HW1 4357   0.834   2.388   4.304
  929SOL    HW2 4358   0.890   2.235   4.313
  930SOL     OW 4359   1.017   1.901   4.477
  930SOL    HW1 4360   0.945   1.906   4.408
  930SOL    HW2 4361   0.993   1.832   4.546
  931SOL     OW 4362   1.429   3.035   4.591
  931SOL    HW1 4363   1.374   2.951   4.584
  931SOL    HW2 4364   1.455   3.064   4.499
  932SOL     OW 4365   1.466   2.452   4.716
  932SOL    HW1 4366   1.436   2.357   4.723
  932SOL    HW2 4367   1.539   2.468   4.782
  933SOL     OW 4368   1.857   2.695   4.101
  933SOL    HW1 4369   1.899   2.631   4.165
  933SOL    HW2 4370   1.819   2.644   4.023
  934SOL     OW 4371   0.488   3.247   3.898
  934SOL    HW1 4372   0.401   3.232   3.945
  934SOL    HW2 4373   0.471   3.273   3.803
  935SOL     OW 4374   1.664   3.142   4.381
  935SOL    HW1 4375   1.763   3.150   4.395
  935SOL    HW2 4376   1.619   3.226   4.412
  936SOL     OW 4377   1.390   2.437   3.802
  936SOL    HW1 4378   1.336   2.416   3.883
  936SOL    HW2 4379   1.481   2.396   3.811
  937SOL     OW 4380   1.638   2.961   4.803
  937SOL    HW1 4381   1.643   3.042   4.862
  937SOL    HW2 4382   1.552   2.963   4.752
  938SOL     OW 4383   0.705   2.912   4.092
  938SOL    HW1 4384   0.691   2.919   4.191
  938SOL    HW2 4385   0.789   2.861   4.074
  939SOL     OW 4386   0.410   2.675   4.975
  939SOL    HW1 4387   0.496   2.687   5.025
  939SOL    HW2 4388   0.368   2.588   5.002
  940SOL     OW 4389   1.274   2.248   4.986
  940SOL    HW1 4390   1.295   2.322   5.050
  940SOL    HW2 4391   1.185   2.265   4.943
  941SOL     OW 4392   0.367   2.962   4.225
  941SOL    HW1 4393   0.360   3.045   4.169
  941SOL    HW2 4394   0.371   2.882   4.165
  942SOL     OW 4395   0.566   2.399   4.589
  942SOL    HW1 4396   0.578   2.465   4.515
  942SOL    HW2 4397   0.612   2.433   4.672
  943SOL     OW 4398   1.582   2.501   4.196
  943SOL    HW1 4399   1.551   2.562   4.269
  943SOL    HW2 4400   1.632   2.553   4.127
  944SOL     OW 4401   0.354   3.372   5.053
  944SOL    HW1 4402   0.333   3.328   4.966
  944SOL    HW2 4403   0.451   3.398   5.056
  945SOL     OW 4404   0.573   2.732   4.753
  945SOL    HW1 4405   0.617   2.821   4.744
  945SOL    HW2 4406   0.510   2.732   4.830
  946SOL     OW 4407   1.209   2.387   3.999
  946SOL    HW1 4408   1.222   2.303   4.053
  946SOL    HW2 4409   1.180   2.461   4.059
  947SOL     OW 4410   0.307   2.075   4.955
  947SOL    HW1 4411   0.284   2.112   5.045
  947SOL    HW2 4412   0.277   1.980   4.949
  948SOL     OW 4413   0.037   3.172   5.006
  948SOL    HW1 4414   0.090   3.123   5.074
  948SOL    HW2 4415   0.059   3.270   5.011
  949SOL     OW 4416   0.732   2.496   4.788
  949SOL    HW1 4417   0.791   2.470   4.712
  949SOL    HW2 4418   0.704   2.592   4.777
  950SOL     OW 4419   0.307   1.925   4.342
  950SOL    HW1 4420   0.296   2.019   4.375
  950SOL    HW2 4421   0.302   1.862   4.419
  951SOL     OW 4422   1.622   2.229   4.098
  951SOL    HW1 4423   1.624   2.153   4.162
  951SOL    HW2 4424   1.574   2.306   4.138
  952SOL     OW 4425   1.023   2.628   4.690
  952SOL    HW1 4426   1.038   2.649   4.786
  952SOL    HW2 4427   0.993   2.533   4.681
  953SOL     OW 4428   1.540   2.136   3.849
  953SOL    HW1 4429   1.479   2.061   3.872
  953SOL    HW2 4430   1.562   2.188   3.932
  954SOL     OW 4431   1.303   2.700   3.766
  954SOL    HW1 4432   1.337   2.607   3.781
  954SOL    HW2 4433   1.321   2.727   3.671
  955SOL     OW 4434   0.319   2.672   4.673
  955SOL    HW1 4435   0.412   2.708   4.678
  955SOL    HW2 4436   0.313   2.587   4.725
  956SOL     OW 4437   0.339   2.371   4.730
  956SOL    HW1 4438   0.287   2.288   4.713
  956SOL    HW2 4439   0.416   2.376   4.666
  957SOL     OW 4440   1.160   2.069   5.201
  957SOL    HW1 4441   1.160   2.133   5.278
  957SOL    HW2 4442   1.188   2.117   5.118
  958SOL     OW 4443   0.008   3.188   3.924
  958SOL    HW1 4444  -0.085   3.209   3.893
  958SOL    HW2 4445   0.018   3.089   3.937
  959SOL     OW 4446   0.088   3.663   4.651
  959SOL    HW1 4447   0.046   3.577   4.624
  959SOL    HW2 4448   0.182   3.666   4.617
  960SOL     OW 4449   0.504   3.430   4.634
  960SOL    HW1 4450   0.570   3.504   4.643
  960SOL    HW2 4451   0.548   3.351   4.592
  961SOL     OW 4452   0.040   2.406   4.838
  961SOL    HW1 4453   0.125   2.373   4.797
  961SOL    HW2 4454   0.053   2.421   4.936
  962SOL     OW 4455   0.815   2.434   4.049
  962SOL    HW1 4456   0.822   2.345   4.003
  962SOL    HW2 4457   0.721   2.468   4.041
  963SOL     OW 4458   1.657   2.466   4.930
  963SOL    HW1 4459   1.619   2.397   4.992
  963SOL    HW2 4460   1.739   2.430   4.886
  964SOL     OW 4461   0.671   2.326   4.993
  964SOL    HW1 4462   0.637   2.237   4.963
  964SOL    HW2 4463   0.697   2.380   4.913
  965SOL     OW 4464   0.930   3.540   5.189
  965SOL    HW1 4465   0.906   3.522   5.094
  965SOL    HW2 4466   0.960   3.634   5.199
  966SOL     OW 4467   1.302   2.717   4.033
  966SOL    HW1 4468   1.216   2.686   4.075
  966SOL    HW2 4469   1.298   2.703   3.934
  967SOL     OW 4470   0.083   3.120   4.746
  967SOL    HW1 4471   0.078   3.119   4.846
  967SOL    HW2 4472   0.000   3.079   4.708
  968SOL     OW 4473   1.726   1.997   4.247
  968SOL    HW1 4474   1.799   1.980   4.180
  968SOL    HW2 4475   1.695   1.910   4.285
  969SOL     OW 4476   1.388   3.435   4.201
  969SOL    HW1 4477   1.455   3.447   4.127
  969SOL    HW2 4478   1.348   3.524   4.224
  970SOL     OW 4479   1.280   2.789   4.396
  970SOL    HW1 4480   1.340   2.708   4.398
  970SOL    HW2 4481   1.320   2.858   4.336
  971SOL     OW 4482   0.672   3.478   3.878
  971SOL    HW1 4483   0.681   3.488   3.779
  971SOL    HW2 4484   0.632   3.389   3.899
  972SOL     OW 4485   1.650   3.582   5.118
  972SOL    HW1 4486   1.703   3.592   5.034
  972SOL    HW2 4487   1.623   3.672   5.152
  973SOL     OW 4488   1.841   2.037   4.687
  973SOL    HW1 4489   1.880   1.952   4.651
  973SOL    HW2 4490   1.743   2.039   4.668
  974SOL     OW 4491   0.263   2.188   4.444
  974SOL    HW1 4492   0.184   2.239   4.410
  974SOL    HW2 4493   0.254   2.173   4.542
  975SOL     OW 4494   1.194   3.474   3.755
  975SOL    HW1 4495   1.200   3.381   3.792
  975SOL    HW2 4496   1.135   3.474   3.675
  976SOL     OW 4497   0.822   2.864   5.096
  976SOL    HW1 4498   0.862   2.863   5.004
  976SOL    HW2 4499   0.832   2.956   5.136
  977SOL     OW 4500   0.916   2.772   4.015
  977SOL    HW1 4501   0.979   2.810   3.947
  977SOL    HW2 4502   0.956   2.689   4.054
  978SOL     OW 4503   1.039   2.960   4.420
  978SOL    HW1 4504   0.969   2.913   4.474
  978SOL    HW2 4505   1.098   2.892   4.377
  979SOL     OW 4506   1.014   2.098   4.695
  979SOL    HW1 4507   1.006   2.062   4.602
  979SOL    HW2 4508   1.012   2.022   4.760
  980SOL     OW 4509   0.590   3.349   4.215
  980SOL    HW1 4510   0.632   3.291   4.145
  980SOL    HW2 4511   0.546   3.428   4.171
  981SOL     OW 4512   1.709   2.247   5.105
  981SOL    HW1 4513   1.782   2.316   5.109
  981SOL    HW2 4514   1.737   2.172   5.046
  982SOL     OW 4515   0.255   3.210   4.014
  982SOL    HW1 4516   0.159   3.211   3.987
  982SOL    HW2 4517   0.267   3.263   4.098
  983SOL     OW 4518   0.075   2.207   3.757
  983SOL    HW1 4519  -0.017   2.179   3.728
  983SOL    HW2 4520   0.106   2.284   3.701
  984SOL     OW 4521   0.072   2.028   4.042
  984SOL    HW1 4522   0.055   2.111   3.988
  984SOL    HW2 4523   0.162   1.991   4.020
  985SOL     OW 4524   1.674   2.745   4.978
  985SOL    HW1 4525   1.647   2.656   4.941
  985SOL    HW2 4526   1.675   2.813   4.905
  986SOL     OW 4527   1.225   2.187   4.173
  986SOL    HW1 4528   1.290   2.113   4.162
  986SOL    HW2 4529   1.245   2.237   4.257
  987SOL     OW 4530   0.594   2.607   4.376
  987SOL    HW1 4531   0.644   2.692   4.357
  987SOL    HW2 4532   0.506   2.609   4.328
  988SOL     OW 4533   1.730   2.796   5.241
  988SOL    HW1 4534   1.768   2.887   5.256
  988SOL    HW2 4535   1.722   2.779   5.142
  989SOL     OW 4536   0.859   3.236   3.740
  989SOL    HW1 4537   0.813   3.251   3.828
  989SOL    HW2 4538   0.903   3.321   3.710
  990SOL     OW 4539   0.859   2.818   4.585
  990SOL    HW1 4540   0.913   2.749   4.633
  990SOL    HW2 4541   0.827   2.887   4.651
  991SOL     OW 4542   1.083   2.846   3.811
  991SOL    HW1 4543   1.060   2.899   3.729
  991SOL    HW2 4544   1.164   2.790   3.792
  992SOL     OW 4545   0.079   3.102   4.377
  992SOL    HW1 4546   0.078   3.055   4.465
  992SOL    HW2 4547   0.161   3.074   4.326
  993SOL     OW 4548   1.824   2.054   4.951
  993SOL    HW1 4549   1.820   1.964   4.995
  993SOL    HW2 4550   1.827   2.043   4.852
  994SOL     OW 4551   1.705   3.349   4.828
  994SOL    HW1 4552   1.612   3.324   4.801
  994SOL    HW2 4553   1.731   3.299   4.910
  995SOL     OW 4554   0.812   3.448   4.411
  995SOL    HW1 4555   0.844   3.458   4.317
  995SOL    HW2 4556   0.733   3.386   4.413
  996SOL     OW 4557   1.424   2.076   4.836
  996SOL    HW1 4558   1.476   2.011   4.891
  996SOL    HW2 4559   1.375   2.139   4.897
  997SOL     OW 4560   1.001   1.896   4.878
  997SOL    HW1 4561   0.938   1.824   4.847
  997SOL    HW2 4562   1.094   1.860   4.878
  998SOL     OW 4563   0.770   3.192   4.025
  998SOL    HW1 4564   0.724   3.105   4.042
  998SOL    HW2 4565   0.861   3.189   4.066
  999SOL     OW 4566   1.352   1.914   3.892
  999SOL    HW1 4567   1.387   1.873   3.808
  999SOL    HW2 4568   1.262   1.876   3.912
 1000SOL     OW 4569   1.300   2.315   4.415
 1000SOL    HW1 4570   1.241   2.395   4.419
 1000SOL    HW2 4571   1.315   2.280   4.508
 1001SOL     OW 4572   1.593   2.083   4.606
 1001SOL    HW1 4573   1.509   2.082   4.660
 1001SOL    HW2 4574   1.595   2.166   4.550
 1002SOL     OW 4575   0.875   3.508   4.061
 1002SOL    HW1 4576   0.798   3.473   4.007
 1002SOL    HW2 4577   0.843   3.579   4.123
 1003SOL     OW 4578   0.225   3.999   0.996
 1003SOL    HW1 4579   0.260   3.982   1.088
 1003SOL    HW2 4580   0.137   3.954   0.984
 1004SOL     OW 4581   0.019   4.092   0.647
 1004SOL    HW1 4582  -0.063   4.135   0.686
 1004SOL    HW2 4583  -0.009   4.019   0.584
 1005SOL     OW 4584   0.569   4.999   1.165
 1005SOL    HW1 4585   0.476   4.992   1.128
 1005SOL    HW2 4586   0.580   5.088   1.209
 1006SOL     OW 4587   1.555   5.235   0.703
 1006SOL    HW1 4588   1.498   5.219   0.784
 1006SOL    HW2 4589   1.496   5.245   0.623
 1007SOL     OW 4590   1.135   4.427   0.717
 1007SOL    HW1 4591   1.192   4.505   0.692
 1007SOL    HW2 4592   1.075   4.453   0.793
 1008SOL     OW 4593   0.768   4.868   1.023
 1008SOL    HW1 4594   0.690   4.885   1.083
 1008SOL    HW2 4595   0.802   4.955   0.987
 1009SOL     OW 4596   0.850   4.522   1.823
 1009SOL    HW1 4597   0.846   4.598   1.888
 1009SOL    HW2 4598   0.872   4.558   1.732
 1010SOL     OW 4599   0.685   4.736   0.665
 1010SOL    HW1 4600   0.754   4.720   0.735
 1010SOL    HW2 4601   0.612   4.793   0.703
 1011SOL     OW 4602   0.686   4.885   1.803
 1011SOL    HW1 4603   0.746   4.964   1.817
 1011SOL    HW2 4604   0.600   4.916   1.762
 1012SOL     OW 4605   0.335   5.159   1.061
 1012SOL    HW1 4606   0.257   5.128   1.008
 1012SOL    HW2 4607   0.393   5.217   1.004
 1013SOL     OW 4608   0.438   4.116   1.499
 1013SOL    HW1 4609   0.520   4.060   1.508
 1013SOL    HW2 4610   0.357   4.058   1.503
 1014SOL     OW 4611   1.603   4.171   0.737
 1014SOL    HW1 4612   1.529   4.217   0.687
 1014SOL    HW2 4613   1.654   4.239   0.790
 1015SOL     OW 4614   0.240   4.815   0.886
 1015SOL    HW1 4615   0.254   4.731   0.938
 1015SOL    HW2 4616   0.185   4.879   0.941
 1016SOL     OW 4617   1.594   3.838   1.480
 1016SOL    HW1 4618   1.576   3.905   1.408
 1016SOL    HW2 4619   1.591   3.884   1.569
 1017SOL     OW 4620   0.122   4.367   0.563
 1017SOL    HW1 4621   0.077   4.279   0.580
 1017SOL    HW2 4622   0.121   4.421   0.647
 1018SOL     OW 4623   1.689   4.646   0.612
 1018SOL    HW1 4624   1.784   4.617   0.620
 1018SOL    HW2 4625   1.681   4.711   0.537
 1019SOL     OW 4626   1.641   4.832   0.432
 1019SOL    HW1 4627   1.727   4.834   0.380
 1019SOL    HW2 4628   1.655   4.879   0.520
 1020SOL     OW 4629   0.113   4.461   1.597
 1020SOL    HW1 4630   0.201   4.448   1.642
 1020SOL    HW2 4631   0.100   4.558   1.575
 1021SOL     OW 4632   1.293   4.952   1.423
 1021SOL    HW1 4633   1.330   4.879   1.365
 1021SOL    HW2 4634   1.345   4.957   1.508
 1022SOL     OW 4635   0.809   3.728   0.502
 1022SOL    HW1 4636   0.849   3.819   0.493
 1022SOL    HW2 4637   0.709   3.736   0.508
 1023SOL     OW 4638   0.197   4.700   1.264
 1023SOL    HW1 4639   0.286   4.655   1.250
 1023SOL    HW2 4640   0.124   4.635   1.245
 1024SOL     OW 4641   0.317   3.975   1.801
 1024SOL    HW1 4642   0.388   4.046   1.807
 1024SOL    HW2 4643   0.229   4.014   1.829
 1025SOL     OW 4644   1.466   5.141   0.953
 1025SOL    HW1 4645   1.407   5.147   1.033
 1025SOL    HW2 4646   1.451   5.053   0.907
 1026SOL     OW 4647   0.598   4.453   0.270
 1026SOL    HW1 4648   0.622   4.522   0.202
 1026SOL    HW2 4649   0.520   4.486   0.324
 1027SOL     OW 4650   0.807   4.329   1.465
 1027SOL    HW1 4651   0.760   4.326   1.554
 1027SOL    HW2 4652   0.756   4.274   1.399
 1028SOL     OW 4653   0.973   4.614   1.572
 1028SOL    HW1 4654   1.019   4.530   1.543
 1028SOL    HW2 4655   0.917   4.648   1.497
 1029SOL     OW 4656   1.041   4.425   0.429
 1029SOL    HW1 4657   1.067   4.421   0.525
 1029SOL    HW2 4658   0.956   4.374   0.415
 1030SOL     OW 4659   0.076   4.535   0.789
 1030SOL    HW1 4660   0.175   4.523   0.798
 1030SOL    HW2 4661   0.052   4.630   0.810
 1031SOL     OW 4662   0.865   4.072   0.195
 1031SOL    HW1 4663   0.924   4.135   0.146
 1031SOL    HW2 4664   0.884   3.978   0.166
 1032SOL     OW 4665   0.550   3.920   0.885
 1032SOL    HW1 4666   0.545   3.915   0.985
 1032SOL    HW2 4667   0.552   4.016   0.856
 1033SOL     OW 4668   1.795   4.790   0.873
 1033SOL    HW1 4669   1.733   4.775   0.797
 1033SOL    HW2 4670   1.743   4.801   0.958
 1034SOL     OW 4671   0.321   4.667   0.242
 1034SOL    HW1 4672   0.403   4.706   0.200
 1034SOL    HW2 4673   0.294   4.585   0.193
 1035SOL     OW 4674   1.458   4.459   0.728
 1035SOL    HW1 4675   1.453   4.394   0.803
 1035SOL    HW2 4676   1.538   4.518   0.741
 1036SOL     OW 4677   0.202   4.009   1.498
 1036SOL    HW1 4678   0.122   4.069   1.485
 1036SOL    HW2 4679   0.192   3.960   1.584
 1037SOL     OW 4680   1.632   5.101   0.081
 1037SOL    HW1 4681   1.600   5.195   0.071
 1037SOL    HW2 4682   1.556   5.038   0.069
 1038SOL     OW 4683   1.400   3.831   0.426
 1038SOL    HW1 4684   1.376   3.794   0.336
 1038SOL    HW2 4685   1.499   3.847   0.430
 1039SOL     OW 4686   0.382   4.424   0.480
 1039SOL    HW1 4687   0.427   4.334   0.477
 1039SOL    HW2 4688   0.288   4.413   0.513
 1040SOL     OW 4689   1.547   3.946   1.729
 1040SOL    HW1 4690   1.542   3.983   1.821
 1040SOL    HW2 4691   1.475   3.877   1.717
 1041SOL     OW 4692   0.781   3.988   1.749
 1041SOL    HW1 4693   0.848   3.927   1.792
 1041SOL    HW2 4694   0.708   4.007   1.814
 1042SOL     OW 4695   0.803   5.126   0.924
 1042SOL    HW1 4696   0.893   5.140   0.882
 1042SOL    HW2 4697   0.732   5.128   0.853
 1043SOL     OW 4698   0.539   3.788   0.512
 1043SOL    HW1 4699   0.458   3.789   0.570
 1043SOL    HW2 4700   0.542   3.871   0.457
 1044SOL     OW 4701   1.434   4.912   0.041
 1044SOL    HW1 4702   1.466   4.836   0.098
 1044SOL    HW2 4703   1.342   4.939   0.071
 1045SOL     OW 4704   0.297   3.759   0.171
 1045SOL    HW1 4705   0.346   3.843   0.150
 1045SOL    HW2 4706   0.359   3.694   0.216
 1046SOL     OW 4707   1.227   5.294   0.793
 1046SOL    HW1 4708   1.248   5.368   0.728
 1046SOL    HW2 4709   1.295   5.294   0.866
 1047SOL     OW 4710   0.459   4.876   0.741
 1047SOL    HW1 4711   0.388   4.849   0.806
 1047SOL    HW2 4712   0.433   4.848   0.648
 1048SOL     OW 4713   1.032   4.273   0.016
 1048SOL    HW1 4714   0.991   4.355  -0.023
 1048SOL    HW2 4715   1.096   4.299   0.089
 1049SOL     OW 4716   0.078   4.280   1.386
 1049SOL    HW1 4717   0.170   4.279   1.345
 1049SOL    HW2 4718   0.072   4.354   1.453
 1050SOL     OW 4719   0.561   3.946   1.147
 1050SOL    HW1 4720   0.599   3.862   1.184
 1050SOL    HW2 4721   0.473   3.965   1.191
 1051SOL     OW 4722   1.429   4.897   0.867
 1051SOL    HW1 4723   1.374   4.813   0.860
 1051SOL    HW2 4724   1.455   4.926   0.775
 1052SOL     OW 4725   1.664   5.004   0.657
 1052SOL    HW1 4726   1.763   5.012   0.671
 1052SOL    HW2 4727   1.619   5.088   0.688
 1053SOL     OW 4728   1.390   4.299   0.078
 1053SOL    HW1 4729   1.336   4.278   0.159
 1053SOL    HW2 4730   1.481   4.258   0.087
 1054SOL     OW 4731   0.527   3.980   0.328
 1054SOL    HW1 4732   0.554   3.921   0.253
 1054SOL    HW2 4733   0.527   4.075   0.297
 1055SOL     OW 4734   1.638   4.823   1.079
 1055SOL    HW1 4735   1.643   4.904   1.138
 1055SOL    HW2 4736   1.552   4.825   1.028
 1056SOL     OW 4737   0.915   3.813   1.402
 1056SOL    HW1 4738   0.940   3.793   1.307
 1056SOL    HW2 4739   0.987   3.869   1.444
 1057SOL     OW 4740   0.980   4.840   1.719
 1057SOL    HW1 4741   0.881   4.846   1.729
 1057SOL    HW2 4742   1.003   4.760   1.663
 1058SOL     OW 4743   0.705   4.774   0.368
 1058SOL    HW1 4744   0.691   4.781   0.467
 1058SOL    HW2 4745   0.789   4.723   0.350
 1059SOL     OW 4746   0.410   4.537   1.251
 1059SOL    HW1 4747   0.496   4.549   1.301
 1059SOL    HW2 4748   0.368   4.450   1.278
 1060SOL     OW 4749   0.367   4.824   0.501
 1060SOL    HW1 4750   0.360   4.907   0.445
 1060SOL    HW2 4751   0.371   4.744   0.441
 1061SOL     OW 4752   0.566   4.261   0.865
 1061SOL    HW1 4753   0.578   4.327   0.791
 1061SOL    HW2 4754   0.612   4.295   0.948
 1062SOL     OW 4755   0.402   4.475   1.598
 1062SOL    HW1 4756   0.470   4.530   1.551
 1062SOL    HW2 4757   0.442   4.387   1.625
 1063SOL     OW 4758   1.013   3.829   1.770
 1063SOL    HW1 4759   1.019   3.914   1.718
 1063SOL    HW2 4760   1.045   3.753   1.713
 1064SOL     OW 4761   0.504   3.774   1.740
 1064SOL    HW1 4762   0.462   3.717   1.670
 1064SOL    HW2 4763   0.438   3.843   1.772
 1065SOL     OW 4764   0.573   4.594   1.029
 1065SOL    HW1 4765   0.617   4.683   1.020
 1065SOL    HW2 4766   0.510   4.594   1.106
 1066SOL     OW 4767   1.360   4.586   1.045
 1066SOL    HW1 4768   1.285   4.586   0.979
 1066SOL    HW2 4769   1.397   4.494   1.054
 1067SOL     OW 4770   1.209   4.249   0.275
 1067SOL    HW1 4771   1.222   4.165   0.329
 1067SOL    HW2 4772   1.180   4.323   0.335
 1068SOL     OW 4773   0.307   3.937   1.231
 1068SOL    HW1 4774   0.284   3.974   1.321
 1068SOL    HW2 4775   0.277   3.842   1.225
 1069SOL     OW 4776   0.037   5.034   1.282
 1069SOL    HW1 4777   0.090   4.985   1.350
 1069SOL    HW2 4778   0.059   5.132   1.287
 1070SOL     OW 4779   0.307   3.787   0.618
 1070SOL    HW1 4780   0.296   3.881   0.651
 1070SOL    HW2 4781   0.302   3.724   0.695
 1071SOL     OW 4782   1.622   4.091   0.374
 1071SOL    HW1 4783   1.624   4.015   0.438
 1071SOL    HW2 4784   1.574   4.168   0.414
 1072SOL     OW 4785   1.859   5.242   1.605
 1072SOL    HW1 4786   1.873   5.269   1.510
 1072SOL    HW2 4787   1.942   5.264   1.658
 1073SOL     OW 4788   0.350   4.622   1.804
 1073SOL    HW1 4789   0.426   4.666   1.852
 1073SOL    HW2 4790   0.385   4.575   1.722
 1074SOL     OW 4791   1.540   3.998   0.125
 1074SOL    HW1 4792   1.479   3.923   0.148
 1074SOL    HW2 4793   1.562   4.050   0.208
 1075SOL     OW 4794   1.303   4.562   0.042
 1075SOL    HW1 4795   1.337   4.469   0.057
 1075SOL    HW2 4796   1.321   4.589  -0.053
 1076SOL     OW 4797   0.319   4.534   0.949
 1076SOL    HW1 4798   0.412   4.570   0.954
 1076SOL    HW2 4799   0.313   4.449   1.001
 1077SOL     OW 4800   0.339   4.233   1.006
 1077SOL    HW1 4801   0.287   4.150   0.989
 1077SOL    HW2 4802   0.416   4.238   0.942
 1078SOL     OW 4803   0.008   5.050   0.200
 1078SOL    HW1 4804  -0.085   5.071   0.169
 1078SOL    HW2 4805   0.018   4.951   0.213
 1079SOL     OW 4806   0.040   4.268   1.114
 1079SOL    HW1 4807   0.125   4.235   1.073
 1079SOL    HW2 4808   0.053   4.283   1.212
 1080SOL     OW 4809   0.189   4.244   1.722
 1080SOL    HW1 4810   0.248   4.204   1.652
 1080SOL    HW2 4811   0.131   4.315   1.681
 1081SOL     OW 4812   0.815   4.296   0.325
 1081SOL    HW1 4813   0.822   4.207   0.279
 1081SOL    HW2 4814   0.721   4.330   0.317
 1082SOL     OW 4815   1.657   4.328   1.206
 1082SOL    HW1 4816   1.619   4.259   1.268
 1082SOL    HW2 4817   1.739   4.292   1.162
 1083SOL     OW 4818   0.671   4.188   1.269
 1083SOL    HW1 4819   0.637   4.099   1.239
 1083SOL    HW2 4820   0.697   4.242   1.189
 1084SOL     OW 4821   0.473   4.224   0.191
 1084SOL    HW1 4822   0.534   4.304   0.195
 1084SOL    HW2 4823   0.378   4.255   0.198
 1085SOL     OW 4824   0.159   4.861   1.466
 1085SOL    HW1 4825   0.181   4.800   1.542
 1085SOL    HW2 4826   0.169   4.812   1.380
 1086SOL     OW 4827   0.083   4.982   1.022
 1086SOL    HW1 4828   0.078   4.981   1.122
 1086SOL    HW2 4829   0.000   4.941   0.984
 1087SOL     OW 4830   0.903   3.810   0.133
 1087SOL    HW1 4831   0.954   3.811   0.047
 1087SOL    HW2 4832   0.959   3.768   0.204
 1088SOL     OW 4833   1.726   3.859   0.523
 1088SOL    HW1 4834   1.799   3.842   0.456
 1088SOL    HW2 4835   1.695   3.772   0.561
 1089SOL     OW 4836   0.830   4.997   1.422
 1089SOL    HW1 4837   0.825   5.030   1.517
 1089SOL    HW2 4838   0.744   5.016   1.376
 1090SOL     OW 4839   1.841   3.899   0.963
 1090SOL    HW1 4840   1.880   3.814   0.927
 1090SOL    HW2 4841   1.743   3.901   0.944
 1091SOL     OW 4842   0.263   4.050   0.720
 1091SOL    HW1 4843   0.184   4.101   0.686
 1091SOL    HW2 4844   0.254   4.035   0.818
 1092SOL     OW 4845   0.822   4.726   1.372
 1092SOL    HW1 4846   0.862   4.725   1.280
 1092SOL    HW2 4847   0.832   4.818   1.412
 1093SOL     OW 4848   0.916   4.634   0.291
 1093SOL    HW1 4849   0.979   4.672   0.223
 1093SOL    HW2 4850   0.956   4.551   0.330
 1094SOL     OW 4851   0.372   5.012   1.490
 1094SOL    HW1 4852   0.359   5.105   1.456
 1094SOL    HW2 4853   0.288   4.960   1.477
 1095SOL     OW 4854   1.039   4.822   0.696
 1095SOL    HW1 4855   0.969   4.775   0.750
 1095SOL    HW2 4856   1.098   4.754   0.653
 1096SOL     OW 4857   1.709   4.109   1.381
 1096SOL    HW1 4858   1.782   4.178   1.385
 1096SOL    HW2 4859   1.737   4.034   1.322
 1097SOL     OW 4860   0.105   4.737   1.726
 1097SOL    HW1 4861   0.028   4.704   1.780
 1097SOL    HW2 4862   0.190   4.707   1.768
 1098SOL     OW 4863   0.672   3.927   1.489
 1098SOL    HW1 4864   0.762   3.911   1.449
 1098SOL    HW2 4865   0.680   3.932   1.588
 1099SOL     OW 4866   0.075   4.069   0.033
 1099SOL    HW1 4867  -0.017   4.041   0.004
 1099SOL    HW2 4868   0.106   4.146  -0.023
 1100SOL     OW 4869   1.440   4.580   1.398
 1100SOL    HW1 4870   1.383   4.632   1.335
 1100SOL    HW2 4871   1.536   4.592   1.374
 1101SOL     OW 4872   0.072   3.890   0.318
 1101SOL    HW1 4873   0.055   3.973   0.264
 1101SOL    HW2 4874   0.162   3.853   0.296
 1102SOL     OW 4875   0.613   4.566   1.431
 1102SOL    HW1 4876   0.669   4.647   1.414
 1102SOL    HW2 4877   0.672   4.486   1.434
 1103SOL     OW 4878   0.716   4.289   1.708
 1103SOL    HW1 4879   0.735   4.354   1.782
 1103SOL    HW2 4880   0.776   4.209   1.717
 1104SOL     OW 4881   1.674   4.607   1.254
 1104SOL    HW1 4882   1.647   4.518   1.217
 1104SOL    HW2 4883   1.675   4.675   1.181
 1105SOL     OW 4884   1.225   4.049   0.449
 1105SOL    HW1 4885   1.290   3.975   0.438
 1105SOL    HW2 4886   1.245   4.099   0.533
 1106SOL     OW 4887   0.594   4.469   0.652
 1106SOL    HW1 4888   0.644   4.554   0.633
 1106SOL    HW2 4889   0.506   4.471   0.604
 1107SOL     OW 4890   1.777   4.066   1.642
 1107SOL    HW1 4891   1.760   4.097   1.548
 1107SOL    HW2 4892   1.693   4.029   1.680
 1108SOL     OW 4893   0.859   4.680   0.861
 1108SOL    HW1 4894   0.913   4.611   0.909
 1108SOL    HW2 4895   0.827   4.749   0.927
 1109SOL     OW 4896   1.083   4.708   0.087
 1109SOL    HW1 4897   1.060   4.761   0.005
 1109SOL    HW2 4898   1.164   4.652   0.068
 1110SOL     OW 4899   0.079   4.964   0.653
 1110SOL    HW1 4900   0.078   4.917   0.741
 1110SOL    HW2 4901   0.161   4.936   0.602
 1111SOL     OW 4902   1.824   3.916   1.227
 1111SOL    HW1 4903   1.820   3.826   1.271
 1111SOL    HW2 4904   1.827   3.905   1.128
 1112SOL     OW 4905   0.428   4.148   0.520
 1112SOL    HW1 4906   0.458   4.076   0.458
 1112SOL    HW2 4907   0.389   4.108   0.603
 1113SOL     OW 4908   0.317   4.271   1.280
 1113SOL    HW1 4909   0.355   4.212   1.352
 1113SOL    HW2 4910   0.357   4.245   1.192
 1114SOL     OW 4911   1.424   3.938   1.112
 1114SOL    HW1 4912   1.476   3.873   1.167
 1114SOL    HW2 4913   1.375   4.001   1.173
 1115SOL     OW 4914   0.770   5.054   0.301
 1115SOL    HW1 4915   0.724   4.967   0.318
 1115SOL    HW2 4916   0.861   5.051   0.342
 1116SOL     OW 4917   1.352   3.776   0.168
 1116SOL    HW1 4918   1.387   3.735   0.084
 1116SOL    HW2 4919   1.262   3.738   0.188
 1117SOL     OW 4920   1.300   4.177   0.691
 1117SOL    HW1 4921   1.241   4.257   0.695
 1117SOL    HW2 4922   1.315   4.142   0.784
 1118SOL     OW 4923   1.593   3.945   0.882
 1118SOL    HW1 4924   1.509   3.944   0.936
 1118SOL    HW2 4925   1.595   4.028   0.826
 1119SOL     OW 4926   0.039   4.801   0.300
 1119SOL    HW1 4927   0.138   4.790   0.291
 1119SOL    HW2 4928  -0.001   4.715   0.332
 1120SOL     OW 4929   0.230   4.352   1.975
 1120SOL    HW1 4930   0.137   4.350   2.012
 1120SOL    HW2 4931   0.231   4.313   1.883
 1121SOL     OW 4932   0.225   3.999   2.858
 1121SOL    HW1 4933   0.260   3.982   2.950
 1121SOL    HW2 4934   0.137   3.954   2.846
 1122SOL     OW 4935   0.019   4.092   2.509
 1122SOL    HW1 4936  -0.063   4.135   2.548
 1122SOL    HW2 4937  -0.009   4.019   2.446
 1123SOL     OW 4938   0.569   4.999   3.027
 1123SOL    HW1 4939   0.476   4.992   2.990
 1123SOL    HW2 4940   0.580   5.088   3.071
 1124SOL     OW 4941   1.555   5.235   2.565
 1124SOL    HW1 4942   1.498   5.219   2.646
 1124SOL    HW2 4943   1.496   5.245   2.485
 1125SOL     OW 4944   1.135   4.427   2.579
 1125SOL    HW1 4945   1.192   4.505   2.554
 1125SOL    HW2 4946   1.075   4.453   2.655
 1126SOL     OW 4947   1.755   4.331   2.093
 1126SOL    HW1 4948   1.743   4.318   1.994
 1126SOL    HW2 4949   1.725   4.250   2.142
 1127SOL     OW 4950   0.768   4.868   2.885
 1127SOL    HW1 4951   0.690   4.885   2.945
 1127SOL    HW2 4952   0.802   4.955   2.849
 1128SOL     OW 4953   0.685   4.736   2.527
 1128SOL    HW1 4954   0.754   4.720   2.597
 1128SOL    HW2 4955   0.612   4.793   2.565
 1129SOL     OW 4956   0.686   4.885   3.665
 1129SOL    HW1 4957   0.746   4.964   3.679
 1129SOL    HW2 4958   0.600   4.916   3.624
 1130SOL     OW 4959   0.335   5.159   2.923
 1130SOL    HW1 4960   0.257   5.128   2.870
 1130SOL    HW2 4961   0.393   5.217   2.866
 1131SOL     OW 4962   0.438   4.116   3.361
 1131SOL    HW1 4963   0.520   4.060   3.370
 1131SOL    HW2 4964   0.357   4.058   3.365
 1132SOL     OW 4965   1.603   4.171   2.599
 1132SOL    HW1 4966   1.529   4.217   2.549
 1132SOL    HW2 4967   1.654   4.239   2.652
 1133SOL     OW 4968   0.240   4.815   2.748
 1133SOL    HW1 4969   0.254   4.731   2.800
 1133SOL    HW2 4970   0.185   4.879   2.803
 1134SOL     OW 4971   0.606   4.688   1.985
 1134SOL    HW1 4972   0.613   4.772   1.931
 1134SOL    HW2 4973   0.652   4.701   2.073
 1135SOL     OW 4974   0.122   4.367   2.425
 1135SOL    HW1 4975   0.077   4.279   2.442
 1135SOL    HW2 4976   0.121   4.421   2.509
 1136SOL     OW 4977   1.689   4.646   2.474
 1136SOL    HW1 4978   1.784   4.617   2.482
 1136SOL    HW2 4979   1.681   4.711   2.399
 1137SOL     OW 4980   0.113   4.461   3.459
 1137SOL    HW1 4981   0.201   4.448   3.504
 1137SOL    HW2 4982   0.100   4.558   3.437
 1138SOL     OW 4983   0.809   3.728   2.364
 1138SOL    HW1 4984   0.849   3.819   2.355
 1138SOL    HW2 4985   0.709   3.736   2.370
 1139SOL     OW 4986   0.197   4.700   3.126
 1139SOL    HW1 4987   0.286   4.655   3.112
 1139SOL    HW2 4988   0.124   4.635   3.107
 1140SOL     OW 4989   1.525   4.723   2.052
 1140SOL    HW1 4990   1.462   4.647   2.065
 1140SOL    HW2 4991   1.573   4.741   2.138
 1141SOL     OW 4992   0.317   3.975   3.663
 1141SOL    HW1 4993   0.388   4.046   3.669
 1141SOL    HW2 4994   0.229   4.014   3.691
 1142SOL     OW 4995   0.598   4.453   2.132
 1142SOL    HW1 4996   0.622   4.522   2.064
 1142SOL    HW2 4997   0.520   4.486   2.186
 1143SOL     OW 4998   1.281   4.069   2.806
 1143SOL    HW1 4999   1.195   4.019   2.793
 1143SOL    HW2 5000   1.343   4.015   2.862
 1144SOL     OW 5001   0.807   4.329   3.327
 1144SOL    HW1 5002   0.760   4.326   3.416
 1144SOL    HW2 5003   0.756   4.274   3.261
 1145SOL     OW 5004   1.394   4.193   3.536
 1145SOL    HW1 5005   1.374   4.236   3.624
 1145SOL    HW2 5006   1.472   4.131   3.545
 1146SOL     OW 5007   0.973   4.614   3.434
 1146SOL    HW1 5008   1.019   4.530   3.405
 1146SOL    HW2 5009   0.917   4.648   3.359
 1147SOL     OW 5010   0.991   4.134   3.104
 1147SOL    HW1 5011   0.914   4.168   3.158
 1147SOL    HW2 5012   0.957   4.083   3.025
 1148SOL     OW 5013   1.041   4.425   2.291
 1148SOL    HW1 5014   1.067   4.421   2.387
 1148SOL    HW2 5015   0.956   4.374   2.277
 1149SOL     OW 5016   0.076   4.535   2.651
 1149SOL    HW1 5017   0.175   4.523   2.660
 1149SOL    HW2 5018   0.052   4.630   2.672
 1150SOL     OW 5019   0.865   4.072   2.057
 1150SOL    HW1 5020   0.924   4.135   2.008
 1150SOL    HW2 5021   0.884   3.978   2.028
 1151SOL     OW 5022   1.719   4.309   3.693
 1151SOL    HW1 5023   1.693   4.398   3.657
 1151SOL    HW2 5024   1.717   4.241   3.620
 1152SOL     OW 5025   1.362   4.868   2.407
 1152SOL    HW1 5026   1.445   4.839   2.359
 1152SOL    HW2 5027   1.313   4.935   2.351
 1153SOL     OW 5028   0.550   3.920   2.747
 1153SOL    HW1 5029   0.545   3.915   2.847
 1153SOL    HW2 5030   0.552   4.016   2.718
 1154SOL     OW 5031   1.795   4.790   2.735
 1154SOL    HW1 5032   1.733   4.775   2.659
 1154SOL    HW2 5033   1.743   4.801   2.820
 1155SOL     OW 5034   0.321   4.667   2.104
 1155SOL    HW1 5035   0.403   4.706   2.062
 1155SOL    HW2 5036   0.294   4.585   2.055
 1156SOL     OW 5037   1.458   4.459   2.590
 1156SOL    HW1 5038   1.453   4.394   2.665
 1156SOL    HW2 5039   1.538   4.518   2.603
 1157SOL     OW 5040   0.202   4.009   3.360
 1157SOL    HW1 5041   0.122   4.069   3.347
 1157SOL    HW2 5042   0.192   3.960   3.446
 1158SOL     OW 5043   1.632   5.101   1.943
 1158SOL    HW1 5044   1.600   5.195   1.933
 1158SOL    HW2 5045   1.556   5.038   1.931
 1159SOL     OW 5046   1.400   3.831   2.288
 1159SOL    HW1 5047   1.376   3.794   2.198
 1159SOL    HW2 5048   1.499   3.847   2.292
 1160SOL     OW 5049   0.382   4.424   2.342
 1160SOL    HW1 5050   0.427   4.334   2.339
 1160SOL    HW2 5051   0.288   4.413   2.375
 1161SOL     OW 5052   0.614   3.846   1.979
 1161SOL    HW1 5053   0.712   3.824   1.986
 1161SOL    HW2 5054   0.583   3.829   1.886
 1162SOL     OW 5055   0.781   3.988   3.611
 1162SOL    HW1 5056   0.848   3.927   3.654
 1162SOL    HW2 5057   0.708   4.007   3.676
 1163SOL     OW 5058   1.351   4.314   3.295
 1163SOL    HW1 5059   1.379   4.271   3.380
 1163SOL    HW2 5060   1.376   4.410   3.296
 1164SOL     OW 5061   0.803   5.126   2.786
 1164SOL    HW1 5062   0.893   5.140   2.744
 1164SOL    HW2 5063   0.732   5.128   2.715
 1165SOL     OW 5064   0.922   4.227   2.761
 1165SOL    HW1 5065   0.897   4.218   2.665
 1165SOL    HW2 5066   0.970   4.145   2.792
 1166SOL     OW 5067   0.539   3.788   2.374
 1166SOL    HW1 5068   0.458   3.789   2.432
 1166SOL    HW2 5069   0.542   3.871   2.319
 1167SOL     OW 5070   1.434   4.912   1.903
 1167SOL    HW1 5071   1.466   4.836   1.960
 1167SOL    HW2 5072   1.342   4.939   1.933
 1168SOL     OW 5073   0.297   3.759   2.033
 1168SOL    HW1 5074   0.346   3.843   2.012
 1168SOL    HW2 5075   0.359   3.694   2.078
 1169SOL     OW 5076   0.935   3.960   2.342
 1169SOL    HW1 5077   0.887   4.001   2.264
 1169SOL    HW2 5078   1.034   3.958   2.323
 1170SOL     OW 5079   1.076   4.407   3.326
 1170SOL    HW1 5080   0.996   4.346   3.329
 1170SOL    HW2 5081   1.157   4.354   3.302
 1171SOL     OW 5082   1.227   5.294   2.655
 1171SOL    HW1 5083   1.248   5.368   2.590
 1171SOL    HW2 5084   1.295   5.294   2.728
 1172SOL     OW 5085   0.459   4.876   2.603
 1172SOL    HW1 5086   0.388   4.849   2.668
 1172SOL    HW2 5087   0.433   4.848   2.510
 1173SOL     OW 5088   1.032   4.273   1.878
 1173SOL    HW1 5089   0.991   4.355   1.839
 1173SOL    HW2 5090   1.096   4.299   1.951
 1174SOL     OW 5091   0.078   4.280   3.248
 1174SOL    HW1 5092   0.170   4.279   3.207
 1174SOL    HW2 5093   0.072   4.354   3.315
 1175SOL     OW 5094   0.561   3.946   3.009
 1175SOL    HW1 5095   0.599   3.862   3.046
 1175SOL    HW2 5096   0.473   3.965   3.053
 1176SOL     OW 5097   0.866   4.178   2.504
 1176SOL    HW1 5098   0.834   4.250   2.442
 1176SOL    HW2 5099   0.890   4.097   2.451
 1177SOL     OW 5100   1.017   3.763   2.615
 1177SOL    HW1 5101   0.945   3.768   2.546
 1177SOL    HW2 5102   0.993   3.694   2.684
 1178SOL     OW 5103   1.429   4.897   2.729
 1178SOL    HW1 5104   1.374   4.813   2.722
 1178SOL    HW2 5105   1.455   4.926   2.637
 1179SOL     OW 5106   1.466   4.314   2.854
 1179SOL    HW1 5107   1.436   4.219   2.861
 1179SOL    HW2 5108   1.539   4.330   2.920
 1180SOL     OW 5109   1.857   4.557   2.239
 1180SOL    HW1 5110   1.899   4.493   2.303
 1180SOL    HW2 5111   1.819   4.506   2.161
 1181SOL     OW 5112   1.664   5.004   2.519
 1181SOL    HW1 5113   1.763   5.012   2.533
 1181SOL    HW2 5114   1.619   5.088   2.550
 1182SOL     OW 5115   0.527   3.980   2.190
 1182SOL    HW1 5116   0.554   3.921   2.115
 1182SOL    HW2 5117   0.527   4.075   2.159
 1183SOL     OW 5118   1.638   4.823   2.941
 1183SOL    HW1 5119   1.643   4.904   3.000
 1183SOL    HW2 5120   1.552   4.825   2.890
 1184SOL     OW 5121   0.915   3.813   3.264
 1184SOL    HW1 5122   0.940   3.793   3.169
 1184SOL    HW2 5123   0.987   3.869   3.306
 1185SOL     OW 5124   0.980   4.840   3.581
 1185SOL    HW1 5125   0.881   4.846   3.591
 1185SOL    HW2 5126   1.003   4.760   3.525
 1186SOL     OW 5127   0.705   4.774   2.230
 1186SOL    HW1 5128   0.691   4.781   2.329
 1186SOL    HW2 5129   0.789   4.723   2.212
 1187SOL     OW 5130   0.410   4.537   3.113
 1187SOL    HW1 5131   0.496   4.549   3.163
 1187SOL    HW2 5132   0.368   4.450   3.140
 1188SOL     OW 5133   1.274   4.110   3.124
 1188SOL    HW1 5134   1.295   4.184   3.188
 1188SOL    HW2 5135   1.185   4.127   3.081
 1189SOL     OW 5136   0.367   4.824   2.363
 1189SOL    HW1 5137   0.360   4.907   2.307
 1189SOL    HW2 5138   0.371   4.744   2.303
 1190SOL     OW 5139   0.566   4.261   2.727
 1190SOL    HW1 5140   0.578   4.327   2.653
 1190SOL    HW2 5141   0.612   4.295   2.810
 1191SOL     OW 5142   1.582   4.363   2.334
 1191SOL    HW1 5143   1.551   4.424   2.407
 1191SOL    HW2 5144   1.632   4.415   2.265
 1192SOL     OW 5145   0.402   4.475   3.460
 1192SOL    HW1 5146   0.470   4.530   3.413
 1192SOL    HW2 5147   0.442   4.387   3.487
 1193SOL     OW 5148   1.013   3.829   3.632
 1193SOL    HW1 5149   1.019   3.914   3.580
 1193SOL    HW2 5150   1.045   3.753   3.575
 1194SOL     OW 5151   0.504   3.774   3.602
 1194SOL    HW1 5152   0.462   3.717   3.532
 1194SOL    HW2 5153   0.438   3.843   3.634
 1195SOL     OW 5154   0.573   4.594   2.891
 1195SOL    HW1 5155   0.617   4.683   2.882
 1195SOL    HW2 5156   0.510   4.594   2.968
 1196SOL     OW 5157   1.360   4.586   2.907
 1196SOL    HW1 5158   1.285   4.586   2.841
 1196SOL    HW2 5159   1.397   4.494   2.916
 1197SOL     OW 5160   1.209   4.249   2.137
 1197SOL    HW1 5161   1.222   4.165   2.191
 1197SOL    HW2 5162   1.180   4.323   2.197
 1198SOL     OW 5163   0.307   3.937   3.093
 1198SOL    HW1 5164   0.284   3.974   3.183
 1198SOL    HW2 5165   0.277   3.842   3.087
 1199SOL     OW 5166   0.732   4.358   2.926
 1199SOL    HW1 5167   0.791   4.332   2.850
 1199SOL    HW2 5168   0.704   4.454   2.915
 1200SOL     OW 5169   1.728   4.659   3.716
 1200SOL    HW1 5170   1.682   4.652   3.627
 1200SOL    HW2 5171   1.666   4.703   3.782
 1201SOL     OW 5172   0.307   3.787   2.480
 1201SOL    HW1 5173   0.296   3.881   2.513
 1201SOL    HW2 5174   0.302   3.724   2.557
 1202SOL     OW 5175   1.622   4.091   2.236
 1202SOL    HW1 5176   1.624   4.015   2.300
 1202SOL    HW2 5177   1.574   4.168   2.276
 1203SOL     OW 5178   1.023   4.490   2.828
 1203SOL    HW1 5179   1.038   4.511   2.924
 1203SOL    HW2 5180   0.993   4.395   2.819
 1204SOL     OW 5181   0.350   4.622   3.666
 1204SOL    HW1 5182   0.426   4.666   3.714
 1204SOL    HW2 5183   0.385   4.575   3.584
 1205SOL     OW 5184   1.540   3.998   1.987
 1205SOL    HW1 5185   1.479   3.923   2.010
 1205SOL    HW2 5186   1.562   4.050   2.070
 1206SOL     OW 5187   1.303   4.562   1.904
 1206SOL    HW1 5188   1.337   4.469   1.919
 1206SOL    HW2 5189   1.321   4.589   1.809
 1207SOL     OW 5190   0.319   4.534   2.811
 1207SOL    HW1 5191   0.412   4.570   2.816
 1207SOL    HW2 5192   0.313   4.449   2.863
 1208SOL     OW 5193   0.339   4.233   2.868
 1208SOL    HW1 5194   0.287   4.150   2.851
 1208SOL    HW2 5195   0.416   4.238   2.804
 1209SOL     OW 5196   1.138   4.104   3.540
 1209SOL    HW1 5197   1.093   4.167   3.604
 1209SOL    HW2 5198   1.231   4.135   3.523
 1210SOL     OW 5199   1.160   3.931   3.339
 1210SOL    HW1 5200   1.160   3.995   3.416
 1210SOL    HW2 5201   1.188   3.979   3.256
 1211SOL     OW 5202   0.008   5.050   2.062
 1211SOL    HW1 5203  -0.085   5.071   2.031
 1211SOL    HW2 5204   0.018   4.951   2.075
 1212SOL     OW 5205   1.002   4.520   3.100
 1212SOL    HW1 5206   1.043   4.488   3.186
 1212SOL    HW2 5207   0.906   4.493   3.097
 1213SOL     OW 5208   0.040   4.268   2.976
 1213SOL    HW1 5209   0.125   4.235   2.935
 1213SOL    HW2 5210   0.053   4.283   3.074
 1214SOL     OW 5211   0.189   4.244   3.584
 1214SOL    HW1 5212   0.248   4.204   3.514
 1214SOL    HW2 5213   0.131   4.315   3.543
 1215SOL     OW 5214   1.369   4.674   3.522
 1215SOL    HW1 5215   1.408   4.763   3.542
 1215SOL    HW2 5216   1.379   4.654   3.425
 1216SOL     OW 5217   0.815   4.296   2.187
 1216SOL    HW1 5218   0.822   4.207   2.141
 1216SOL    HW2 5219   0.721   4.330   2.179
 1217SOL     OW 5220   1.657   4.328   3.068
 1217SOL    HW1 5221   1.619   4.259   3.130
 1217SOL    HW2 5222   1.739   4.292   3.024
 1218SOL     OW 5223   0.671   4.188   3.131
 1218SOL    HW1 5224   0.637   4.099   3.101
 1218SOL    HW2 5225   0.697   4.242   3.051
 1219SOL     OW 5226   0.473   4.224   2.053
 1219SOL    HW1 5227   0.534   4.304   2.057
 1219SOL    HW2 5228   0.378   4.255   2.060
 1220SOL     OW 5229   0.159   4.861   3.328
 1220SOL    HW1 5230   0.181   4.800   3.404
 1220SOL    HW2 5231   0.169   4.812   3.242
 1221SOL     OW 5232   1.347   4.783   3.096
 1221SOL    HW1 5233   1.371   4.720   3.022
 1221SOL    HW2 5234   1.257   4.823   3.078
 1222SOL     OW 5235   1.302   4.579   2.171
 1222SOL    HW1 5236   1.216   4.548   2.213
 1222SOL    HW2 5237   1.298   4.565   2.072
 1223SOL     OW 5238   0.083   4.982   2.884
 1223SOL    HW1 5239   0.078   4.981   2.984
 1223SOL    HW2 5240   0.000   4.941   2.846
 1224SOL     OW 5241   1.726   3.859   2.385
 1224SOL    HW1 5242   1.799   3.842   2.318
 1224SOL    HW2 5243   1.695   3.772   2.423
 1225SOL     OW 5244   1.280   4.651   2.534
 1225SOL    HW1 5245   1.340   4.570   2.536
 1225SOL    HW2 5246   1.320   4.720   2.474
 1226SOL     OW 5247   0.830   4.997   3.284
 1226SOL    HW1 5248   0.825   5.030   3.379
 1226SOL    HW2 5249   0.744   5.016   3.238
 1227SOL     OW 5250   1.841   3.899   2.825
 1227SOL    HW1 5251   1.880   3.814   2.789
 1227SOL    HW2 5252   1.743   3.901   2.806
 1228SOL     OW 5253   0.263   4.050   2.582
 1228SOL    HW1 5254   0.184   4.101   2.548
 1228SOL    HW2 5255   0.254   4.035   2.680
 1229SOL     OW 5256   1.194   5.336   1.893
 1229SOL    HW1 5257   1.200   5.243   1.930
 1229SOL    HW2 5258   1.135   5.336   1.813
 1230SOL     OW 5259   0.822   4.726   3.234
 1230SOL    HW1 5260   0.862   4.725   3.142
 1230SOL    HW2 5261   0.832   4.818   3.274
 1231SOL     OW 5262   0.916   4.634   2.153
 1231SOL    HW1 5263   0.979   4.672   2.085
 1231SOL    HW2 5264   0.956   4.551   2.192
 1232SOL     OW 5265   0.372   5.012   3.352
 1232SOL    HW1 5266   0.359   5.105   3.318
 1232SOL    HW2 5267   0.288   4.960   3.339
 1233SOL     OW 5268   1.039   4.822   2.558
 1233SOL    HW1 5269   0.969   4.775   2.612
 1233SOL    HW2 5270   1.098   4.754   2.515
 1234SOL     OW 5271   1.014   3.960   2.833
 1234SOL    HW1 5272   1.006   3.924   2.740
 1234SOL    HW2 5273   1.012   3.884   2.898
 1235SOL     OW 5274   1.709   4.109   3.243
 1235SOL    HW1 5275   1.782   4.178   3.247
 1235SOL    HW2 5276   1.737   4.034   3.184
 1236SOL     OW 5277   0.105   4.737   3.588
 1236SOL    HW1 5278   0.028   4.704   3.642
 1236SOL    HW2 5279   0.190   4.707   3.630
 1237SOL     OW 5280   0.672   3.927   3.351
 1237SOL    HW1 5281   0.762   3.911   3.311
 1237SOL    HW2 5282   0.680   3.932   3.450
 1238SOL     OW 5283   0.075   4.069   1.895
 1238SOL    HW1 5284  -0.017   4.041   1.866
 1238SOL    HW2 5285   0.106   4.146   1.839
 1239SOL     OW 5286   1.440   4.580   3.260
 1239SOL    HW1 5287   1.383   4.632   3.197
 1239SOL    HW2 5288   1.536   4.592   3.236
 1240SOL     OW 5289   0.072   3.890   2.180
 1240SOL    HW1 5290   0.055   3.973   2.126
 1240SOL    HW2 5291   0.162   3.853   2.158
 1241SOL     OW 5292   0.613   4.566   3.293
 1241SOL    HW1 5293   0.669   4.647   3.276
 1241SOL    HW2 5294   0.672   4.486   3.296
 1242SOL     OW 5295   0.716   4.289   3.570
 1242SOL    HW1 5296   0.735   4.354   3.644
 1242SOL    HW2 5297   0.776   4.209   3.579
 1243SOL     OW 5298   1.674   4.607   3.116
 1243SOL    HW1 5299   1.647   4.518   3.079
 1243SOL    HW2 5300   1.675   4.675   3.043
 1244SOL     OW 5301   1.225   4.049   2.311
 1244SOL    HW1 5302   1.290   3.975   2.300
 1244SOL    HW2 5303   1.245   4.099   2.395
 1245SOL     OW 5304   0.594   4.469   2.514
 1245SOL    HW1 5305   0.644   4.554   2.495
 1245SOL    HW2 5306   0.506   4.471   2.466
 1246SOL     OW 5307   1.730   4.658   3.379
 1246SOL    HW1 5308   1.768   4.749   3.394
 1246SOL    HW2 5309   1.722   4.641   3.280
 1247SOL     OW 5310   0.859   4.680   2.723
 1247SOL    HW1 5311   0.913   4.611   2.771
 1247SOL    HW2 5312   0.827   4.749   2.789
 1248SOL     OW 5313   1.083   4.708   1.949
 1248SOL    HW1 5314   1.060   4.761   1.867
 1248SOL    HW2 5315   1.164   4.652   1.930
 1249SOL     OW 5316   0.079   4.964   2.515
 1249SOL    HW1 5317   0.078   4.917   2.603
 1249SOL    HW2 5318   0.161   4.936   2.464
 1250SOL     OW 5319   1.824   3.916   3.089
 1250SOL    HW1 5320   1.820   3.826   3.133
 1250SOL    HW2 5321   1.827   3.905   2.990
 1251SOL     OW 5322   0.428   4.148   2.382
 1251SOL    HW1 5323   0.458   4.076   2.320
 1251SOL    HW2 5324   0.389   4.108   2.465
 1252SOL     OW 5325   0.317   4.271   3.142
 1252SOL    HW1 5326   0.355   4.212   3.214
 1252SOL    HW2 5327   0.357   4.245   3.054
 1253SOL     OW 5328   1.424   3.938   2.974
 1253SOL    HW1 5329   1.476   3.873   3.029
 1253SOL    HW2 5330   1.375   4.001   3.035
 1254SOL     OW 5331   1.001   3.758   3.016
 1254SOL    HW1 5332   0.938   3.686   2.985
 1254SOL    HW2 5333   1.094   3.722   3.016
 1255SOL     OW 5334   0.770   5.054   2.163
 1255SOL    HW1 5335   0.724   4.967   2.180
 1255SOL    HW2 5336   0.861   5.051   2.204
 1256SOL     OW 5337   1.352   3.776   2.030
 1256SOL    HW1 5338   1.387   3.735   1.946
 1256SOL    HW2 5339   1.262   3.738   2.050
 1257SOL     OW 5340   1.300   4.177   2.553
 1257SOL    HW1 5341   1.241   4.257   2.557
 1257SOL    HW2 5342   1.315   4.142   2.646
 1258SOL     OW 5343   1.593   3.945   2.744
 1258SOL    HW1 5344   1.509   3.944   2.798
 1258SOL    HW2 5345   1.595   4.028   2.688
 1259SOL     OW 5346   0.039   4.801   2.162
 1259SOL    HW1 5347   0.138   4.790   2.153
 1259SOL    HW2 5348  -0.001   4.715   2.194
 1260SOL     OW 5349   0.019   4.092   4.371
 1260SOL    HW1 5350  -0.063   4.135   4.410
 1260SOL    HW2 5351  -0.009   4.019   4.308
 1261SOL     OW 5352   1.555   5.235   4.427
 1261SOL    HW1 5353   1.498   5.219   4.508
 1261SOL    HW2 5354   1.496   5.245   4.347
 1262SOL     OW 5355   1.135   4.427   4.441
 1262SOL    HW1 5356   1.192   4.505   4.416
 1262SOL    HW2 5357   1.075   4.453   4.517
 1263SOL     OW 5358   1.755   4.331   3.955
 1263SOL    HW1 5359   1.743   4.318   3.856
 1263SOL    HW2 5360   1.725   4.250   4.004
 1264SOL     OW 5361   0.768   4.868   4.747
 1264SOL    HW1 5362   0.690   4.885   4.807
 1264SOL    HW2 5363   0.802   4.955   4.711
 1265SOL     OW 5364   0.685   4.736   4.389
 1265SOL    HW1 5365   0.754   4.720   4.459
 1265SOL    HW2 5366   0.612   4.793   4.427
 1266SOL     OW 5367   0.606   4.688   3.847
 1266SOL    HW1 5368   0.613   4.772   3.793
 1266SOL    HW2 5369   0.652   4.701   3.935
 1267SOL     OW 5370   1.689   4.646   4.336
 1267SOL    HW1 5371   1.784   4.617   4.344
 1267SOL    HW2 5372   1.681   4.711   4.261
 1268SOL     OW 5373   1.641   4.832   4.156
 1268SOL    HW1 5374   1.727   4.834   4.104
 1268SOL    HW2 5375   1.655   4.879   4.244
 1269SOL     OW 5376   0.809   3.728   4.226
 1269SOL    HW1 5377   0.849   3.819   4.217
 1269SOL    HW2 5378   0.709   3.736   4.232
 1270SOL     OW 5379   1.466   5.141   4.677
 1270SOL    HW1 5380   1.407   5.147   4.757
 1270SOL    HW2 5381   1.451   5.053   4.631
 1271SOL     OW 5382   0.598   4.453   3.994
 1271SOL    HW1 5383   0.622   4.522   3.926
 1271SOL    HW2 5384   0.520   4.486   4.048
 1272SOL     OW 5385   0.991   4.134   4.966
 1272SOL    HW1 5386   0.914   4.168   5.020
 1272SOL    HW2 5387   0.957   4.083   4.887
 1273SOL     OW 5388   0.865   4.072   3.919
 1273SOL    HW1 5389   0.924   4.135   3.870
 1273SOL    HW2 5390   0.884   3.978   3.890
 1274SOL     OW 5391   1.362   4.868   4.269
 1274SOL    HW1 5392   1.445   4.839   4.221
 1274SOL    HW2 5393   1.313   4.935   4.213
 1275SOL     OW 5394   1.795   4.790   4.597
 1275SOL    HW1 5395   1.733   4.775   4.521
 1275SOL    HW2 5396   1.743   4.801   4.682
 1276SOL     OW 5397   0.321   4.667   3.966
 1276SOL    HW1 5398   0.403   4.706   3.924
 1276SOL    HW2 5399   0.294   4.585   3.917
 1277SOL     OW 5400   1.632   5.101   3.805
 1277SOL    HW1 5401   1.600   5.195   3.795
 1277SOL    HW2 5402   1.556   5.038   3.793
 1278SOL     OW 5403   0.614   3.846   3.841
 1278SOL    HW1 5404   0.712   3.824   3.848
 1278SOL    HW2 5405   0.583   3.829   3.748
 1279SOL     OW 5406   0.803   5.126   4.648
 1279SOL    HW1 5407   0.893   5.140   4.606
 1279SOL    HW2 5408   0.732   5.128   4.577
 1280SOL     OW 5409   0.922   4.227   4.623
 1280SOL    HW1 5410   0.897   4.218   4.527
 1280SOL    HW2 5411   0.970   4.145   4.654
 1281SOL     OW 5412   0.539   3.788   4.236
 1281SOL    HW1 5413   0.458   3.789   4.294
 1281SOL    HW2 5414   0.542   3.871   4.181
 1282SOL     OW 5415   0.297   3.759   3.895
 1282SOL    HW1 5416   0.346   3.843   3.874
 1282SOL    HW2 5417   0.359   3.694   3.940
 1283SOL     OW 5418   0.935   3.960   4.204
 1283SOL    HW1 5419   0.887   4.001   4.126
 1283SOL    HW2 5420   1.034   3.958   4.185
 1284SOL     OW 5421   1.227   5.294   4.517
 1284SOL    HW1 5422   1.248   5.368   4.452
 1284SOL    HW2 5423   1.295   5.294   4.590
 1285SOL     OW 5424   1.032   4.273   3.740
 1285SOL    HW1 5425   0.991   4.355   3.701
 1285SOL    HW2 5426   1.096   4.299   3.813
 1286SOL     OW 5427   0.561   3.946   4.871
 1286SOL    HW1 5428   0.599   3.862   4.908
 1286SOL    HW2 5429   0.473   3.965   4.915
 1287SOL     OW 5430   0.866   4.178   4.366
 1287SOL    HW1 5431   0.834   4.250   4.304
 1287SOL    HW2 5432   0.890   4.097   4.313
 1288SOL     OW 5433   1.017   3.763   4.477
 1288SOL    HW1 5434   0.945   3.768   4.408
 1288SOL    HW2 5435   0.993   3.694   4.546
 1289SOL     OW 5436   1.429   4.897   4.591
 1289SOL    HW1 5437   1.374   4.813   4.584
 1289SOL    HW2 5438   1.455   4.926   4.499
 1290SOL     OW 5439   1.466   4.314   4.716
 1290SOL    HW1 5440   1.436   4.219   4.723
 1290SOL    HW2 5441   1.539   4.330   4.782
 1291SOL     OW 5442   1.857   4.557   4.101
 1291SOL    HW1 5443   1.899   4.493   4.165
 1291SOL    HW2 5444   1.819   4.506   4.023
 1292SOL     OW 5445   1.664   5.004   4.381
 1292SOL    HW1 5446   1.763   5.012   4.395
 1292SOL    HW2 5447   1.619   5.088   4.412
 1293SOL     OW 5448   1.390   4.299   3.802
 1293SOL    HW1 5449   1.336   4.278   3.883
 1293SOL    HW2 5450   1.481   4.258   3.811
 1294SOL     OW 5451   0.527   3.980   4.052
 1294SOL    HW1 5452   0.554   3.921   3.977
 1294SOL    HW2 5453   0.527   4.075   4.021
 1295SOL     OW 5454   1.638   4.823   4.803
 1295SOL    HW1 5455   1.643   4.904   4.862
 1295SOL    HW2 5456   1.552   4.825   4.752
 1296SOL     OW 5457   0.367   4.824   4.225
 1296SOL    HW1 5458   0.360   4.907   4.169
 1296SOL    HW2 5459   0.371   4.744   4.165
 1297SOL     OW 5460   0.573   4.594   4.753
 1297SOL    HW1 5461   0.617   4.683   4.744
 1297SOL    HW2 5462   0.510   4.594   4.830
 1298SOL     OW 5463   0.307   3.937   4.955
 1298SOL    HW1 5464   0.284   3.974   5.045
 1298SOL    HW2 5465   0.277   3.842   4.949
 1299SOL     OW 5466   0.037   5.034   5.006
 1299SOL    HW1 5467   0.090   4.985   5.074
 1299SOL    HW2 5468   0.059   5.132   5.011
 1300SOL     OW 5469   0.732   4.358   4.788
 1300SOL    HW1 5470   0.791   4.332   4.712
 1300SOL    HW2 5471   0.704   4.454   4.777
 1301SOL     OW 5472   0.307   3.787   4.342
 1301SOL    HW1 5473   0.296   3.881   4.375
 1301SOL    HW2 5474   0.302   3.724   4.419
 1302SOL     OW 5475   1.622   4.091   4.098
 1302SOL    HW1 5476   1.624   4.015   4.162
 1302SOL    HW2 5477   1.574   4.168   4.138
 1303SOL     OW 5478   1.023   4.490   4.690
 1303SOL    HW1 5479   1.038   4.511   4.786
 1303SOL    HW2 5480   0.993   4.395   4.681
 1304SOL     OW 5481   0.319   4.534   4.673
 1304SOL    HW1 5482   0.412   4.570   4.678
 1304SOL    HW2 5483   0.313   4.449   4.725
 1305SOL     OW 5484   1.160   3.931   5.201
 1305SOL    HW1 5485   1.160   3.995   5.278
 1305SOL    HW2 5486   1.188   3.979   5.118
 1306SOL     OW 5487   1.002   4.520   4.962
 1306SOL    HW1 5488   1.043   4.488   5.048
 1306SOL    HW2 5489   0.906   4.493   4.959
 1307SOL     OW 5490   0.040   4.268   4.838
 1307SOL    HW1 5491   0.125   4.235   4.797
 1307SOL    HW2 5492   0.053   4.283   4.936
 1308SOL     OW 5493   0.815   4.296   4.049
 1308SOL    HW1 5494   0.822   4.207   4.003
 1308SOL    HW2 5495   0.721   4.330   4.041
 1309SOL     OW 5496   0.671   4.188   4.993
 1309SOL    HW1 5497   0.637   4.099   4.963
 1309SOL    HW2 5498   0.697   4.242   4.913
 1310SOL     OW 5499   1.726   3.859   4.247
 1310SOL    HW1 5500   1.799   3.842   4.180
 1310SOL    HW2 5501   1.695   3.772   4.285
 1311SOL     OW 5502   0.830   4.997   5.146
 1311SOL    HW1 5503   0.825   5.030   5.241
 1311SOL    HW2 5504   0.744   5.016   5.100
 1312SOL     OW 5505   1.194   5.336   3.755
 1312SOL    HW1 5506   1.200   5.243   3.792
 1312SOL    HW2 5507   1.135   5.336   3.675
 1313SOL     OW 5508   0.822   4.726   5.096
 1313SOL    HW1 5509   0.862   4.725   5.004
 1313SOL    HW2 5510   0.832   4.818   5.136
 1314SOL     OW 5511   1.039   4.822   4.420
 1314SOL    HW1 5512   0.969   4.775   4.474
 1314SOL    HW2 5513   1.098   4.754   4.377
 1315SOL     OW 5514   0.075   4.069   3.757
 1315SOL    HW1 5515  -0.017   4.041   3.728
 1315SOL    HW2 5516   0.106   4.146   3.701
 1316SOL     OW 5517   0.072   3.890   4.042
 1316SOL    HW1 5518   0.055   3.973   3.988
 1316SOL    HW2 5519   0.162   3.853   4.020
 1317SOL     OW 5520   1.225   4.049   4.173
 1317SOL    HW1 5521   1.290   3.975   4.162
 1317SOL    HW2 5522   1.245   4.099   4.257
 1318SOL     OW 5523   0.859   4.680   4.585
 1318SOL    HW1 5524   0.913   4.611   4.633
 1318SOL    HW2 5525   0.827   4.749   4.651
 1319SOL     OW 5526   0.079   4.964   4.377
 1319SOL    HW1 5527   0.078   4.917   4.465
 1319SOL    HW2 5528   0.161   4.936   4.326
 1320SOL     OW 5529   1.001   3.758   4.878
 1320SOL    HW1 5530   0.938   3.686   4.847
 1320SOL    HW2 5531   1.094   3.722   4.878
 1321SOL     OW 5532   0.770   5.054   4.025
 1321SOL    HW1 5533   0.724   4.967   4.042
 1321SOL    HW2 5534   0.861   5.051   4.066
 1322SOL     OW 5535   0.039   4.801   4.024
 1322SOL    HW1 5536   0.138   4.790   4.015
 1322SOL    HW2 5537  -0.001   4.715   4.056
 1323SOL     OW 5538   2.092   0.628   0.113
 1323SOL    HW1 5539   1.999   0.626   0.150
 1323SOL    HW2 5540   2.093   0.589   0.021
 1324SOL     OW 5541   2.087   0.275   0.996
 1324SOL    HW1 5542   2.122   0.258   1.088
 1324SOL    HW2 5543   1.999   0.230   0.984
 1325SOL     OW 5544   1.881   0.368   0.647
 1325SOL    HW1 5545   1.799   0.411   0.686
 1325SOL    HW2 5546   1.853   0.295   0.584
 1326SOL     OW 5547   2.431   1.275   1.165
 1326SOL    HW1 5548   2.338   1.268   1.128
 1326SOL    HW2 5549   2.442   1.364   1.209
 1327SOL     OW 5550   3.417   1.511   0.703
 1327SOL    HW1 5551   3.360   1.495   0.784
 1327SOL    HW2 5552   3.358   1.521   0.623
 1328SOL     OW 5553   2.997   0.703   0.717
 1328SOL    HW1 5554   3.054   0.781   0.692
 1328SOL    HW2 5555   2.937   0.729   0.793
 1329SOL     OW 5556   2.630   1.144   1.023
 1329SOL    HW1 5557   2.552   1.161   1.083
 1329SOL    HW2 5558   2.664   1.231   0.987
 1330SOL     OW 5559   2.712   0.798   1.823
 1330SOL    HW1 5560   2.708   0.874   1.888
 1330SOL    HW2 5561   2.734   0.834   1.732
 1331SOL     OW 5562   2.547   1.012   0.665
 1331SOL    HW1 5563   2.616   0.996   0.735
 1331SOL    HW2 5564   2.474   1.069   0.703
 1332SOL     OW 5565   2.548   1.161   1.803
 1332SOL    HW1 5566   2.608   1.240   1.817
 1332SOL    HW2 5567   2.462   1.192   1.762
 1333SOL     OW 5568   2.197   1.435   1.061
 1333SOL    HW1 5569   2.119   1.404   1.008
 1333SOL    HW2 5570   2.255   1.493   1.004
 1334SOL     OW 5571   3.322   1.505   1.339
 1334SOL    HW1 5572   3.346   1.599   1.365
 1334SOL    HW2 5573   3.306   1.451   1.421
 1335SOL     OW 5574   2.300   0.392   1.499
 1335SOL    HW1 5575   2.382   0.336   1.508
 1335SOL    HW2 5576   2.219   0.334   1.503
 1336SOL     OW 5577   3.465   0.447   0.737
 1336SOL    HW1 5578   3.391   0.493   0.687
 1336SOL    HW2 5579   3.516   0.515   0.790
 1337SOL     OW 5580   2.093   1.713   0.483
 1337SOL    HW1 5581   2.127   1.790   0.537
 1337SOL    HW2 5582   2.137   1.713   0.393
 1338SOL     OW 5583   2.989   1.341   1.690
 1338SOL    HW1 5584   3.036   1.341   1.778
 1338SOL    HW2 5585   2.941   1.254   1.679
 1339SOL     OW 5586   2.092   1.434   0.538
 1339SOL    HW1 5587   2.066   1.530   0.538
 1339SOL    HW2 5588   2.021   1.380   0.583
 1340SOL     OW 5589   2.102   1.091   0.886
 1340SOL    HW1 5590   2.116   1.007   0.938
 1340SOL    HW2 5591   2.047   1.155   0.941
 1341SOL     OW 5592   2.482   1.786   1.439
 1341SOL    HW1 5593   2.390   1.769   1.474
 1341SOL    HW2 5594   2.510   1.878   1.465
 1342SOL     OW 5595   2.468   0.964   0.123
 1342SOL    HW1 5596   2.475   1.048   0.069
 1342SOL    HW2 5597   2.514   0.977   0.211
 1343SOL     OW 5598   1.984   0.643   0.563
 1343SOL    HW1 5599   1.939   0.555   0.580
 1343SOL    HW2 5600   1.983   0.697   0.647
 1344SOL     OW 5601   3.704   1.767   0.359
 1344SOL    HW1 5602   3.758   1.738   0.439
 1344SOL    HW2 5603   3.734   1.857   0.330
 1345SOL     OW 5604   1.889   1.596   0.117
 1345SOL    HW1 5605   1.870   1.500   0.138
 1345SOL    HW2 5606   1.856   1.654   0.192
 1346SOL     OW 5607   3.551   0.922   0.612
 1346SOL    HW1 5608   3.646   0.893   0.620
 1346SOL    HW2 5609   3.543   0.987   0.537
 1347SOL     OW 5610   3.503   1.108   0.432
 1347SOL    HW1 5611   3.589   1.110   0.380
 1347SOL    HW2 5612   3.517   1.155   0.520
 1348SOL     OW 5613   1.975   0.737   1.597
 1348SOL    HW1 5614   2.063   0.724   1.642
 1348SOL    HW2 5615   1.962   0.834   1.575
 1349SOL     OW 5616   2.475   1.365   0.726
 1349SOL    HW1 5617   2.426   1.278   0.735
 1349SOL    HW2 5618   2.452   1.408   0.639
 1350SOL     OW 5619   3.155   1.228   1.423
 1350SOL    HW1 5620   3.192   1.155   1.365
 1350SOL    HW2 5621   3.207   1.233   1.508
 1351SOL     OW 5622   2.059   0.976   1.264
 1351SOL    HW1 5623   2.148   0.931   1.250
 1351SOL    HW2 5624   1.986   0.911   1.245
 1352SOL     OW 5625   3.387   0.999   0.190
 1352SOL    HW1 5626   3.324   0.923   0.203
 1352SOL    HW2 5627   3.435   1.017   0.276
 1353SOL     OW 5628   3.049   1.792   1.616
 1353SOL    HW1 5629   3.073   1.852   1.540
 1353SOL    HW2 5630   3.056   1.697   1.586
 1354SOL     OW 5631   2.179   0.251   1.801
 1354SOL    HW1 5632   2.250   0.322   1.807
 1354SOL    HW2 5633   2.091   0.290   1.829
 1355SOL     OW 5634   3.328   1.417   0.953
 1355SOL    HW1 5635   3.269   1.423   1.033
 1355SOL    HW2 5636   3.313   1.329   0.907
 1356SOL     OW 5637   3.529   1.714   0.572
 1356SOL    HW1 5638   3.488   1.691   0.484
 1356SOL    HW2 5639   3.511   1.640   0.637
 1357SOL     OW 5640   3.143   0.345   0.944
 1357SOL    HW1 5641   3.057   0.295   0.931
 1357SOL    HW2 5642   3.205   0.291   1.000
 1358SOL     OW 5643   3.438   1.662   0.307
 1358SOL    HW1 5644   3.527   1.708   0.310
 1358SOL    HW2 5645   3.417   1.638   0.212
 1359SOL     OW 5646   2.669   0.605   1.465
 1359SOL    HW1 5647   2.622   0.602   1.554
 1359SOL    HW2 5648   2.618   0.550   1.399
 1360SOL     OW 5649   2.835   0.890   1.572
 1360SOL    HW1 5650   2.881   0.806   1.543
 1360SOL    HW2 5651   2.779   0.924   1.497
 1361SOL     OW 5652   2.853   0.410   1.242
 1361SOL    HW1 5653   2.776   0.444   1.296
 1361SOL    HW2 5654   2.819   0.359   1.163
 1362SOL     OW 5655   1.938   0.811   0.789
 1362SOL    HW1 5656   2.037   0.799   0.798
 1362SOL    HW2 5657   1.914   0.906   0.810
 1363SOL     OW 5658   1.992   1.821   1.571
 1363SOL    HW1 5659   1.982   1.806   1.670
 1363SOL    HW2 5660   1.906   1.857   1.535
 1364SOL     OW 5661   2.727   0.348   0.195
 1364SOL    HW1 5662   2.786   0.411   0.146
 1364SOL    HW2 5663   2.746   0.254   0.166
 1365SOL     OW 5664   3.581   0.585   1.831
 1365SOL    HW1 5665   3.555   0.674   1.795
 1365SOL    HW2 5666   3.579   0.517   1.758
 1366SOL     OW 5667   3.224   1.144   0.545
 1366SOL    HW1 5668   3.307   1.115   0.497
 1366SOL    HW2 5669   3.175   1.211   0.489
 1367SOL     OW 5670   2.412   0.196   0.885
 1367SOL    HW1 5671   2.407   0.191   0.985
 1367SOL    HW2 5672   2.414   0.292   0.856
 1368SOL     OW 5673   2.870   1.456   0.477
 1368SOL    HW1 5674   2.824   1.528   0.425
 1368SOL    HW2 5675   2.866   1.476   0.575
 1369SOL     OW 5676   2.213   1.801   0.853
 1369SOL    HW1 5677   2.263   1.715   0.859
 1369SOL    HW2 5678   2.278   1.878   0.850
 1370SOL     OW 5679   3.657   1.066   0.873
 1370SOL    HW1 5680   3.595   1.051   0.797
 1370SOL    HW2 5681   3.605   1.077   0.958
 1371SOL     OW 5682   3.089   1.550   1.506
 1371SOL    HW1 5683   3.095   1.473   1.570
 1371SOL    HW2 5684   3.037   1.524   1.426
 1372SOL     OW 5685   2.183   0.943   0.242
 1372SOL    HW1 5686   2.265   0.982   0.200
 1372SOL    HW2 5687   2.156   0.861   0.193
 1373SOL     OW 5688   3.320   0.735   0.728
 1373SOL    HW1 5689   3.315   0.670   0.803
 1373SOL    HW2 5690   3.400   0.794   0.741
 1374SOL     OW 5691   2.323   1.266   1.727
 1374SOL    HW1 5692   2.273   1.267   1.641
 1374SOL    HW2 5693   2.260   1.248   1.803
 1375SOL     OW 5694   2.973   1.776   0.237
 1375SOL    HW1 5695   2.913   1.714   0.287
 1375SOL    HW2 5696   3.004   1.732   0.152
 1376SOL     OW 5697   2.064   0.285   1.498
 1376SOL    HW1 5698   1.984   0.345   1.485
 1376SOL    HW2 5699   2.054   0.236   1.584
 1377SOL     OW 5700   3.494   1.377   0.081
 1377SOL    HW1 5701   3.462   1.471   0.071
 1377SOL    HW2 5702   3.418   1.314   0.069
 1378SOL     OW 5703   3.262   0.107   0.426
 1378SOL    HW1 5704   3.238   0.070   0.336
 1378SOL    HW2 5705   3.361   0.123   0.430
 1379SOL     OW 5706   2.111   1.785   1.241
 1379SOL    HW1 5707   2.168   1.720   1.291
 1379SOL    HW2 5708   2.095   1.752   1.148
 1380SOL     OW 5709   2.802   1.698   0.904
 1380SOL    HW1 5710   2.882   1.641   0.925
 1380SOL    HW2 5711   2.753   1.658   0.827
 1381SOL     OW 5712   2.244   0.700   0.480
 1381SOL    HW1 5713   2.289   0.610   0.477
 1381SOL    HW2 5714   2.150   0.689   0.513
 1382SOL     OW 5715   3.409   0.222   1.729
 1382SOL    HW1 5716   3.404   0.259   1.821
 1382SOL    HW2 5717   3.337   0.153   1.717
 1383SOL     OW 5718   2.476   0.122   0.117
 1383SOL    HW1 5719   2.574   0.100   0.124
 1383SOL    HW2 5720   2.445   0.105   0.024
 1384SOL     OW 5721   2.643   0.264   1.749
 1384SOL    HW1 5722   2.710   0.203   1.792
 1384SOL    HW2 5723   2.570   0.283   1.814
 1385SOL     OW 5724   2.750   1.514   1.195
 1385SOL    HW1 5725   2.727   1.489   1.101
 1385SOL    HW2 5726   2.811   1.445   1.234
 1386SOL     OW 5727   2.665   1.402   0.924
 1386SOL    HW1 5728   2.755   1.416   0.882
 1386SOL    HW2 5729   2.594   1.404   0.853
 1387SOL     OW 5730   2.784   0.503   0.899
 1387SOL    HW1 5731   2.759   0.494   0.803
 1387SOL    HW2 5732   2.832   0.421   0.930
 1388SOL     OW 5733   3.296   1.188   0.041
 1388SOL    HW1 5734   3.328   1.112   0.098
 1388SOL    HW2 5735   3.204   1.215   0.071
 1389SOL     OW 5736   2.159   0.035   0.171
 1389SOL    HW1 5737   2.208   0.119   0.150
 1389SOL    HW2 5738   2.221  -0.030   0.216
 1390SOL     OW 5739   2.938   0.683   1.464
 1390SOL    HW1 5740   2.858   0.622   1.467
 1390SOL    HW2 5741   3.019   0.630   1.440
 1391SOL     OW 5742   3.089   1.570   0.793
 1391SOL    HW1 5743   3.110   1.644   0.728
 1391SOL    HW2 5744   3.157   1.570   0.866
 1392SOL     OW 5745   2.321   1.152   0.741
 1392SOL    HW1 5746   2.250   1.125   0.806
 1392SOL    HW2 5747   2.295   1.124   0.648
 1393SOL     OW 5748   3.133   1.797   0.591
 1393SOL    HW1 5749   3.177   1.861   0.527
 1393SOL    HW2 5750   3.083   1.849   0.661
 1394SOL     OW 5751   1.940   0.556   1.386
 1394SOL    HW1 5752   2.032   0.555   1.345
 1394SOL    HW2 5753   1.934   0.630   1.453
 1395SOL     OW 5754   2.423   0.222   1.147
 1395SOL    HW1 5755   2.461   0.138   1.184
 1395SOL    HW2 5756   2.335   0.241   1.191
 1396SOL     OW 5757   3.291   1.173   0.867
 1396SOL    HW1 5758   3.236   1.089   0.860
 1396SOL    HW2 5759   3.317   1.202   0.775
 1397SOL     OW 5760   3.328   0.590   0.992
 1397SOL    HW1 5761   3.298   0.495   0.999
 1397SOL    HW2 5762   3.401   0.606   1.058
 1398SOL     OW 5763   3.719   0.833   0.377
 1398SOL    HW1 5764   3.761   0.769   0.441
 1398SOL    HW2 5765   3.681   0.782   0.299
 1399SOL     OW 5766   2.350   1.385   0.174
 1399SOL    HW1 5767   2.263   1.370   0.221
 1399SOL    HW2 5768   2.333   1.411   0.079
 1400SOL     OW 5769   3.526   1.280   0.657
 1400SOL    HW1 5770   3.625   1.288   0.671
 1400SOL    HW2 5771   3.481   1.364   0.688
 1401SOL     OW 5772   3.616   1.223   1.588
 1401SOL    HW1 5773   3.707   1.184   1.575
 1401SOL    HW2 5774   3.624   1.319   1.612
 1402SOL     OW 5775   2.926   1.347   1.340
 1402SOL    HW1 5776   2.846   1.324   1.395
 1402SOL    HW2 5777   3.009   1.321   1.389
 1403SOL     OW 5778   3.454   1.629   1.625
 1403SOL    HW1 5779   3.481   1.663   1.535
 1403SOL    HW2 5780   3.533   1.591   1.671
 1404SOL     OW 5781   2.973   1.195   1.100
 1404SOL    HW1 5782   2.933   1.239   1.181
 1404SOL    HW2 5783   2.932   1.232   1.017
 1405SOL     OW 5784   3.500   1.099   1.079
 1405SOL    HW1 5785   3.505   1.180   1.138
 1405SOL    HW2 5786   3.414   1.101   1.028
 1406SOL     OW 5787   2.777   0.089   1.402
 1406SOL    HW1 5788   2.802   0.069   1.307
 1406SOL    HW2 5789   2.849   0.145   1.444
 1407SOL     OW 5790   2.842   1.116   1.719
 1407SOL    HW1 5791   2.743   1.122   1.729
 1407SOL    HW2 5792   2.865   1.036   1.663
 1408SOL     OW 5793   2.567   1.050   0.368
 1408SOL    HW1 5794   2.553   1.057   0.467
 1408SOL    HW2 5795   2.651   0.999   0.350
 1409SOL     OW 5796   2.272   0.813   1.251
 1409SOL    HW1 5797   2.358   0.825   1.301
 1409SOL    HW2 5798   2.230   0.726   1.278
 1410SOL     OW 5799   3.136   0.386   1.262
 1410SOL    HW1 5800   3.157   0.460   1.326
 1410SOL    HW2 5801   3.047   0.403   1.219
 1411SOL     OW 5802   1.926   1.564   1.331
 1411SOL    HW1 5803   1.880   1.646   1.297
 1411SOL    HW2 5804   2.024   1.583   1.340
 1412SOL     OW 5805   2.229   1.100   0.501
 1412SOL    HW1 5806   2.222   1.183   0.445
 1412SOL    HW2 5807   2.233   1.020   0.441
 1413SOL     OW 5808   2.428   0.537   0.865
 1413SOL    HW1 5809   2.440   0.603   0.791
 1413SOL    HW2 5810   2.474   0.571   0.948
 1414SOL     OW 5811   3.114   1.348   0.388
 1414SOL    HW1 5812   3.164   1.425   0.428
 1414SOL    HW2 5813   3.019   1.350   0.420
 1415SOL     OW 5814   3.134   1.445   1.142
 1415SOL    HW1 5815   3.181   1.458   1.229
 1415SOL    HW2 5816   3.068   1.371   1.151
 1416SOL     OW 5817   3.444   0.639   0.472
 1416SOL    HW1 5818   3.413   0.700   0.545
 1416SOL    HW2 5819   3.494   0.691   0.403
 1417SOL     OW 5820   2.216   1.510   1.329
 1417SOL    HW1 5821   2.195   1.466   1.242
 1417SOL    HW2 5822   2.313   1.536   1.332
 1418SOL     OW 5823   2.264   0.751   1.598
 1418SOL    HW1 5824   2.332   0.806   1.551
 1418SOL    HW2 5825   2.304   0.663   1.625
 1419SOL     OW 5826   3.449   0.779   1.670
 1419SOL    HW1 5827   3.357   0.817   1.665
 1419SOL    HW2 5828   3.509   0.826   1.605
 1420SOL     OW 5829   2.875   0.105   1.770
 1420SOL    HW1 5830   2.881   0.190   1.718
 1420SOL    HW2 5831   2.907   0.029   1.713
 1421SOL     OW 5832   2.366   0.050   1.740
 1421SOL    HW1 5833   2.324  -0.007   1.670
 1421SOL    HW2 5834   2.300   0.119   1.772
 1422SOL     OW 5835   2.435   0.870   1.029
 1422SOL    HW1 5836   2.479   0.959   1.020
 1422SOL    HW2 5837   2.372   0.870   1.106
 1423SOL     OW 5838   3.222   0.862   1.045
 1423SOL    HW1 5839   3.147   0.862   0.979
 1423SOL    HW2 5840   3.259   0.770   1.054
 1424SOL     OW 5841   2.169   0.213   1.231
 1424SOL    HW1 5842   2.146   0.250   1.321
 1424SOL    HW2 5843   2.139   0.118   1.225
 1425SOL     OW 5844   1.899   1.310   1.282
 1425SOL    HW1 5845   1.952   1.261   1.350
 1425SOL    HW2 5846   1.921   1.408   1.287
 1426SOL     OW 5847   2.594   0.634   1.064
 1426SOL    HW1 5848   2.653   0.608   0.988
 1426SOL    HW2 5849   2.566   0.730   1.053
 1427SOL     OW 5850   3.590   0.935   1.854
 1427SOL    HW1 5851   3.544   0.928   1.765
 1427SOL    HW2 5852   3.528   0.979   1.920
 1428SOL     OW 5853   2.169   0.063   0.618
 1428SOL    HW1 5854   2.158   0.157   0.651
 1428SOL    HW2 5855   2.164   0.000   0.695
 1429SOL     OW 5856   3.484   0.367   0.374
 1429SOL    HW1 5857   3.486   0.291   0.438
 1429SOL    HW2 5858   3.436   0.444   0.414
 1430SOL     OW 5859   2.885   0.766   0.966
 1430SOL    HW1 5860   2.900   0.787   1.062
 1430SOL    HW2 5861   2.855   0.671   0.957
 1431SOL     OW 5862   2.842   1.573   1.700
 1431SOL    HW1 5863   2.822   1.617   1.612
 1431SOL    HW2 5864   2.881   1.482   1.684
 1432SOL     OW 5865   3.721   1.518   1.605
 1432SOL    HW1 5866   3.735   1.545   1.510
 1432SOL    HW2 5867   3.804   1.540   1.658
 1433SOL     OW 5868   2.212   0.898   1.804
 1433SOL    HW1 5869   2.288   0.942   1.852
 1433SOL    HW2 5870   2.247   0.851   1.722
 1434SOL     OW 5871   3.402   0.274   0.125
 1434SOL    HW1 5872   3.341   0.199   0.148
 1434SOL    HW2 5873   3.424   0.326   0.208
 1435SOL     OW 5874   2.930   1.333   0.849
 1435SOL    HW1 5875   2.937   1.249   0.794
 1435SOL    HW2 5876   2.992   1.402   0.813
 1436SOL     OW 5877   2.181   0.810   0.949
 1436SOL    HW1 5878   2.274   0.846   0.954
 1436SOL    HW2 5879   2.175   0.725   1.001
 1437SOL     OW 5880   2.201   0.509   1.006
 1437SOL    HW1 5881   2.149   0.426   0.989
 1437SOL    HW2 5882   2.278   0.514   0.942
 1438SOL     OW 5883   3.022   0.207   1.477
 1438SOL    HW1 5884   3.022   0.271   1.554
 1438SOL    HW2 5885   3.050   0.255   1.394
 1439SOL     OW 5886   1.950   1.801   0.927
 1439SOL    HW1 5887   1.908   1.715   0.900
 1439SOL    HW2 5888   2.044   1.804   0.893
 1440SOL     OW 5889   2.366   1.568   0.910
 1440SOL    HW1 5890   2.432   1.642   0.919
 1440SOL    HW2 5891   2.410   1.489   0.868
 1441SOL     OW 5892   2.864   0.796   1.238
 1441SOL    HW1 5893   2.905   0.764   1.324
 1441SOL    HW2 5894   2.768   0.769   1.235
 1442SOL     OW 5895   1.902   0.544   1.114
 1442SOL    HW1 5896   1.987   0.511   1.073
 1442SOL    HW2 5897   1.915   0.559   1.212
 1443SOL     OW 5898   2.051   0.520   1.722
 1443SOL    HW1 5899   2.110   0.480   1.652
 1443SOL    HW2 5900   1.993   0.591   1.681
 1444SOL     OW 5901   3.231   0.950   1.660
 1444SOL    HW1 5902   3.270   1.039   1.680
 1444SOL    HW2 5903   3.241   0.930   1.563
 1445SOL     OW 5904   2.114   1.564   1.744
 1445SOL    HW1 5905   2.084   1.621   1.820
 1445SOL    HW2 5906   2.107   1.467   1.770
 1446SOL     OW 5907   2.533   0.464   1.269
 1446SOL    HW1 5908   2.499   0.375   1.239
 1446SOL    HW2 5909   2.559   0.518   1.189
 1447SOL     OW 5910   2.792   1.678   1.465
 1447SOL    HW1 5911   2.768   1.660   1.370
 1447SOL    HW2 5912   2.822   1.772   1.475
 1448SOL     OW 5913   2.335   0.500   0.191
 1448SOL    HW1 5914   2.396   0.580   0.195
 1448SOL    HW2 5915   2.240   0.531   0.198
 1449SOL     OW 5916   2.021   1.137   1.466
 1449SOL    HW1 5917   2.043   1.076   1.542
 1449SOL    HW2 5918   2.031   1.088   1.380
 1450SOL     OW 5919   3.209   1.059   1.234
 1450SOL    HW1 5920   3.233   0.996   1.160
 1450SOL    HW2 5921   3.119   1.099   1.216
 1451SOL     OW 5922   3.621   1.747   1.154
 1451SOL    HW1 5923   3.682   1.777   1.081
 1451SOL    HW2 5924   3.583   1.658   1.132
 1452SOL     OW 5925   3.114   1.731   1.128
 1452SOL    HW1 5926   3.198   1.736   1.074
 1452SOL    HW2 5927   3.091   1.635   1.146
 1453SOL     OW 5928   1.945   1.258   1.022
 1453SOL    HW1 5929   1.940   1.257   1.122
 1453SOL    HW2 5930   1.862   1.217   0.984
 1454SOL     OW 5931   2.550   1.662   1.716
 1454SOL    HW1 5932   2.494   1.743   1.725
 1454SOL    HW2 5933   2.602   1.666   1.630
 1455SOL     OW 5934   2.765   0.086   0.133
 1455SOL    HW1 5935   2.816   0.087   0.047
 1455SOL    HW2 5936   2.821   0.044   0.204
 1456SOL     OW 5937   3.588   0.135   0.523
 1456SOL    HW1 5938   3.661   0.118   0.456
 1456SOL    HW2 5939   3.557   0.048   0.561
 1457SOL     OW 5940   3.250   1.573   0.477
 1457SOL    HW1 5941   3.317   1.585   0.403
 1457SOL    HW2 5942   3.210   1.662   0.500
 1458SOL     OW 5943   1.992   1.794   1.851
 1458SOL    HW1 5944   1.951   1.720   1.904
 1458SOL    HW2 5945   2.056   1.845   1.909
 1459SOL     OW 5946   3.142   0.927   0.672
 1459SOL    HW1 5947   3.202   0.846   0.674
 1459SOL    HW2 5948   3.182   0.996   0.612
 1460SOL     OW 5949   2.692   1.273   1.422
 1460SOL    HW1 5950   2.687   1.306   1.517
 1460SOL    HW2 5951   2.606   1.292   1.376
 1461SOL     OW 5952   2.534   1.616   0.154
 1461SOL    HW1 5953   2.543   1.626   0.055
 1461SOL    HW2 5954   2.494   1.527   0.175
 1462SOL     OW 5955   3.512   1.720   1.394
 1462SOL    HW1 5956   3.565   1.730   1.310
 1462SOL    HW2 5957   3.485   1.810   1.428
 1463SOL     OW 5958   3.703   0.175   0.963
 1463SOL    HW1 5959   3.742   0.090   0.927
 1463SOL    HW2 5960   3.605   0.177   0.944
 1464SOL     OW 5961   2.125   0.326   0.720
 1464SOL    HW1 5962   2.046   0.377   0.686
 1464SOL    HW2 5963   2.116   0.311   0.818
 1465SOL     OW 5964   3.056   1.612   0.031
 1465SOL    HW1 5965   3.062   1.519   0.068
 1465SOL    HW2 5966   2.997   1.612  -0.049
 1466SOL     OW 5967   2.684   1.002   1.372
 1466SOL    HW1 5968   2.724   1.001   1.280
 1466SOL    HW2 5969   2.694   1.094   1.412
 1467SOL     OW 5970   3.366   1.607   0.044
 1467SOL    HW1 5971   3.274   1.644   0.051
 1467SOL    HW2 5972   3.404   1.627  -0.046
 1468SOL     OW 5973   2.234   1.288   1.490
 1468SOL    HW1 5974   2.221   1.381   1.456
 1468SOL    HW2 5975   2.150   1.236   1.477
 1469SOL     OW 5976   3.476   1.292   1.289
 1469SOL    HW1 5977   3.536   1.295   1.369
 1469SOL    HW2 5978   3.401   1.356   1.302
 1470SOL     OW 5979   2.901   1.098   0.696
 1470SOL    HW1 5980   2.831   1.051   0.750
 1470SOL    HW2 5981   2.960   1.030   0.653
 1471SOL     OW 5982   2.452   1.487   0.491
 1471SOL    HW1 5983   2.494   1.429   0.421
 1471SOL    HW2 5984   2.408   1.566   0.447
 1472SOL     OW 5985   2.117   1.348   0.290
 1472SOL    HW1 5986   2.021   1.349   0.263
 1472SOL    HW2 5987   2.129   1.401   0.374
 1473SOL     OW 5988   1.967   1.013   1.726
 1473SOL    HW1 5989   1.890   0.980   1.780
 1473SOL    HW2 5990   2.052   0.983   1.768
 1474SOL     OW 5991   2.534   0.203   1.489
 1474SOL    HW1 5992   2.624   0.187   1.449
 1474SOL    HW2 5993   2.542   0.208   1.588
 1475SOL     OW 5994   3.302   0.856   1.398
 1475SOL    HW1 5995   3.245   0.908   1.335
 1475SOL    HW2 5996   3.398   0.868   1.374
 1476SOL     OW 5997   1.934   0.166   0.318
 1476SOL    HW1 5998   1.917   0.249   0.264
 1476SOL    HW2 5999   2.024   0.129   0.296
 1477SOL     OW 6000   3.045   1.335   0.119
 1477SOL    HW1 6001   2.946   1.324   0.121
 1477SOL    HW2 6002   3.079   1.350   0.212
 1478SOL     OW 6003   2.475   0.842   1.431
 1478SOL    HW1 6004   2.531   0.923   1.414
 1478SOL    HW2 6005   2.534   0.762   1.434
 1479SOL     OW 6006   3.355   1.767   0.959
 1479SOL    HW1 6007   3.388   1.831   0.890
 1479SOL    HW2 6008   3.421   1.761   1.034
 1480SOL     OW 6009   2.578   0.565   1.708
 1480SOL    HW1 6010   2.597   0.630   1.782
 1480SOL    HW2 6011   2.638   0.485   1.717
 1481SOL     OW 6012   3.312   1.220   1.633
 1481SOL    HW1 6013   3.303   1.210   1.732
 1481SOL    HW2 6014   3.408   1.213   1.607
 1482SOL     OW 6015   2.252   1.741   1.560
 1482SOL    HW1 6016   2.161   1.782   1.558
 1482SOL    HW2 6017   2.245   1.647   1.592
 1483SOL     OW 6018   3.536   0.883   1.254
 1483SOL    HW1 6019   3.509   0.794   1.217
 1483SOL    HW2 6020   3.537   0.951   1.181
 1484SOL     OW 6021   2.456   0.745   0.652
 1484SOL    HW1 6022   2.506   0.830   0.633
 1484SOL    HW2 6023   2.368   0.747   0.604
 1485SOL     OW 6024   3.592   0.934   1.517
 1485SOL    HW1 6025   3.630   1.025   1.532
 1485SOL    HW2 6026   3.584   0.917   1.418
 1486SOL     OW 6027   2.721   1.374   0.016
 1486SOL    HW1 6028   2.675   1.389   0.104
 1486SOL    HW2 6029   2.765   1.459  -0.014
 1487SOL     OW 6030   2.523   1.790   0.953
 1487SOL    HW1 6031   2.477   1.878   0.940
 1487SOL    HW2 6032   2.622   1.802   0.946
 1488SOL     OW 6033   2.721   0.956   0.861
 1488SOL    HW1 6034   2.775   0.887   0.909
 1488SOL    HW2 6035   2.689   1.025   0.927
 1489SOL     OW 6036   3.723   1.569   0.851
 1489SOL    HW1 6037   3.652   1.557   0.781
 1489SOL    HW2 6038   3.724   1.490   0.911
 1490SOL     OW 6039   2.083   1.314   1.844
 1490SOL    HW1 6040   2.018   1.241   1.823
 1490SOL    HW2 6041   2.087   1.328   1.942
 1491SOL     OW 6042   1.941   1.240   0.653
 1491SOL    HW1 6043   1.940   1.193   0.741
 1491SOL    HW2 6044   2.023   1.212   0.602
 1492SOL     OW 6045   2.534   1.391   1.624
 1492SOL    HW1 6046   2.456   1.341   1.662
 1492SOL    HW2 6047   2.531   1.486   1.655
 1493SOL     OW 6048   2.290   0.424   0.520
 1493SOL    HW1 6049   2.320   0.352   0.458
 1493SOL    HW2 6050   2.251   0.384   0.603
 1494SOL     OW 6051   3.567   1.487   1.104
 1494SOL    HW1 6052   3.474   1.462   1.077
 1494SOL    HW2 6053   3.593   1.437   1.186
 1495SOL     OW 6054   2.179   0.547   1.280
 1495SOL    HW1 6055   2.217   0.488   1.352
 1495SOL    HW2 6056   2.219   0.521   1.192
 1496SOL     OW 6057   2.674   1.586   0.687
 1496SOL    HW1 6058   2.706   1.596   0.593
 1496SOL    HW2 6059   2.595   1.524   0.689
 1497SOL     OW 6060   3.286   0.214   1.112
 1497SOL    HW1 6061   3.338   0.149   1.167
 1497SOL    HW2 6062   3.237   0.277   1.173
 1498SOL     OW 6063   2.632   1.330   0.301
 1498SOL    HW1 6064   2.586   1.243   0.318
 1498SOL    HW2 6065   2.723   1.327   0.342
 1499SOL     OW 6066   2.480   1.567   1.284
 1499SOL    HW1 6067   2.475   1.649   1.341
 1499SOL    HW2 6068   2.569   1.564   1.239
 1500SOL     OW 6069   3.214   0.052   0.168
 1500SOL    HW1 6070   3.249   0.011   0.084
 1500SOL    HW2 6071   3.124   0.014   0.188
 1501SOL     OW 6072   3.162   0.453   0.691
 1501SOL    HW1 6073   3.103   0.533   0.695
 1501SOL    HW2 6074   3.177   0.418   0.784
 1502SOL     OW 6075   3.455   0.221   0.882
 1502SOL    HW1 6076   3.371   0.220   0.936
 1502SOL    HW2 6077   3.457   0.304   0.826
 1503SOL     OW 6078   1.901   1.077   0.300
 1503SOL    HW1 6079   2.000   1.066   0.291
 1503SOL    HW2 6080   1.861   0.991   0.332
 1504SOL     OW 6081   2.737   1.646   0.337
 1504SOL    HW1 6082   2.660   1.611   0.283
 1504SOL    HW2 6083   2.705   1.717   0.399
 1505SOL     OW 6084   2.092   0.628   1.975
 1505SOL    HW1 6085   1.999   0.626   2.012
 1505SOL    HW2 6086   2.093   0.589   1.883
 1506SOL     OW 6087   2.087   0.275   2.858
 1506SOL    HW1 6088   2.122   0.258   2.950
 1506SOL    HW2 6089   1.999   0.230   2.846
 1507SOL     OW 6090   1.881   0.368   2.509
 1507SOL    HW1 6091   1.799   0.411   2.548
 1507SOL    HW2 6092   1.853   0.295   2.446
 1508SOL     OW 6093   3.417   1.511   2.565
 1508SOL    HW1 6094   3.360   1.495   2.646
 1508SOL    HW2 6095   3.358   1.521   2.485
 1509SOL     OW 6096   2.997   0.703   2.579
 1509SOL    HW1 6097   3.054   0.781   2.554
 1509SOL    HW2 6098   2.937   0.729   2.655
 1510SOL     OW 6099   3.617   0.607   2.093
 1510SOL    HW1 6100   3.605   0.594   1.994
 1510SOL    HW2 6101   3.587   0.526   2.142
 1511SOL     OW 6102   2.630   1.144   2.885
 1511SOL    HW1 6103   2.552   1.161   2.945
 1511SOL    HW2 6104   2.664   1.231   2.849
 1512SOL     OW 6105   2.712   0.798   3.685
 1512SOL    HW1 6106   2.708   0.874   3.750
 1512SOL    HW2 6107   2.734   0.834   3.594
 1513SOL     OW 6108   2.547   1.012   2.527
 1513SOL    HW1 6109   2.616   0.996   2.597
 1513SOL    HW2 6110   2.474   1.069   2.565
 1514SOL     OW 6111   2.548   1.161   3.665
 1514SOL    HW1 6112   2.608   1.240   3.679
 1514SOL    HW2 6113   2.462   1.192   3.624
 1515SOL     OW 6114   2.197   1.435   2.923
 1515SOL    HW1 6115   2.119   1.404   2.870
 1515SOL    HW2 6116   2.255   1.493   2.866
 1516SOL     OW 6117   3.322   1.505   3.201
 1516SOL    HW1 6118   3.346   1.599   3.227
 1516SOL    HW2 6119   3.306   1.451   3.283
 1517SOL     OW 6120   2.300   0.392   3.361
 1517SOL    HW1 6121   2.382   0.336   3.370
 1517SOL    HW2 6122   2.219   0.334   3.365
 1518SOL     OW 6123   3.465   0.447   2.599
 1518SOL    HW1 6124   3.391   0.493   2.549
 1518SOL    HW2 6125   3.516   0.515   2.652
 1519SOL     OW 6126   2.093   1.713   2.345
 1519SOL    HW1 6127   2.127   1.790   2.399
 1519SOL    HW2 6128   2.137   1.713   2.255
 1520SOL     OW 6129   2.989   1.341   3.552
 1520SOL    HW1 6130   3.036   1.341   3.640
 1520SOL    HW2 6131   2.941   1.254   3.541
 1521SOL     OW 6132   2.092   1.434   2.400
 1521SOL    HW1 6133   2.066   1.530   2.400
 1521SOL    HW2 6134   2.021   1.380   2.445
 1522SOL     OW 6135   2.102   1.091   2.748
 1522SOL    HW1 6136   2.116   1.007   2.800
 1522SOL    HW2 6137   2.047   1.155   2.803
 1523SOL     OW 6138   2.468   0.964   1.985
 1523SOL    HW1 6139   2.475   1.048   1.931
 1523SOL    HW2 6140   2.514   0.977   2.073
 1524SOL     OW 6141   3.456   0.114   3.342
 1524SOL    HW1 6142   3.438   0.181   3.270
 1524SOL    HW2 6143   3.453   0.160   3.431
 1525SOL     OW 6144   1.984   0.643   2.425
 1525SOL    HW1 6145   1.939   0.555   2.442
 1525SOL    HW2 6146   1.983   0.697   2.509
 1526SOL     OW 6147   3.704   1.767   2.221
 1526SOL    HW1 6148   3.758   1.738   2.301
 1526SOL    HW2 6149   3.734   1.857   2.192
 1527SOL     OW 6150   1.889   1.596   1.979
 1527SOL    HW1 6151   1.870   1.500   2.000
 1527SOL    HW2 6152   1.856   1.654   2.054
 1528SOL     OW 6153   3.551   0.922   2.474
 1528SOL    HW1 6154   3.646   0.893   2.482
 1528SOL    HW2 6155   3.543   0.987   2.399
 1529SOL     OW 6156   3.503   1.108   2.294
 1529SOL    HW1 6157   3.589   1.110   2.242
 1529SOL    HW2 6158   3.517   1.155   2.382
 1530SOL     OW 6159   1.975   0.737   3.459
 1530SOL    HW1 6160   2.063   0.724   3.504
 1530SOL    HW2 6161   1.962   0.834   3.437
 1531SOL     OW 6162   2.475   1.365   2.588
 1531SOL    HW1 6163   2.426   1.278   2.597
 1531SOL    HW2 6164   2.452   1.408   2.501
 1532SOL     OW 6165   3.155   1.228   3.285
 1532SOL    HW1 6166   3.192   1.155   3.227
 1532SOL    HW2 6167   3.207   1.233   3.370
 1533SOL     OW 6168   2.059   0.976   3.126
 1533SOL    HW1 6169   2.148   0.931   3.112
 1533SOL    HW2 6170   1.986   0.911   3.107
 1534SOL     OW 6171   3.387   0.999   2.052
 1534SOL    HW1 6172   3.324   0.923   2.065
 1534SOL    HW2 6173   3.435   1.017   2.138
 1535SOL     OW 6174   3.049   1.792   3.478
 1535SOL    HW1 6175   3.073   1.852   3.402
 1535SOL    HW2 6176   3.056   1.697   3.448
 1536SOL     OW 6177   2.179   0.251   3.663
 1536SOL    HW1 6178   2.250   0.322   3.669
 1536SOL    HW2 6179   2.091   0.290   3.691
 1537SOL     OW 6180   3.328   1.417   2.815
 1537SOL    HW1 6181   3.269   1.423   2.895
 1537SOL    HW2 6182   3.313   1.329   2.769
 1538SOL     OW 6183   3.529   1.714   2.434
 1538SOL    HW1 6184   3.488   1.691   2.346
 1538SOL    HW2 6185   3.511   1.640   2.499
 1539SOL     OW 6186   2.460   0.729   2.132
 1539SOL    HW1 6187   2.484   0.798   2.064
 1539SOL    HW2 6188   2.382   0.762   2.186
 1540SOL     OW 6189   3.143   0.345   2.806
 1540SOL    HW1 6190   3.057   0.295   2.793
 1540SOL    HW2 6191   3.205   0.291   2.862
 1541SOL     OW 6192   2.669   0.605   3.327
 1541SOL    HW1 6193   2.622   0.602   3.416
 1541SOL    HW2 6194   2.618   0.550   3.261
 1542SOL     OW 6195   3.256   0.469   3.536
 1542SOL    HW1 6196   3.236   0.512   3.624
 1542SOL    HW2 6197   3.334   0.407   3.545
 1543SOL     OW 6198   2.835   0.890   3.434
 1543SOL    HW1 6199   2.881   0.806   3.405
 1543SOL    HW2 6200   2.779   0.924   3.359
 1544SOL     OW 6201   2.853   0.410   3.104
 1544SOL    HW1 6202   2.776   0.444   3.158
 1544SOL    HW2 6203   2.819   0.359   3.025
 1545SOL     OW 6204   2.903   0.701   2.291
 1545SOL    HW1 6205   2.929   0.697   2.387
 1545SOL    HW2 6206   2.818   0.650   2.277
 1546SOL     OW 6207   1.992   1.821   3.433
 1546SOL    HW1 6208   1.982   1.806   3.532
 1546SOL    HW2 6209   1.906   1.857   3.397
 1547SOL     OW 6210   2.727   0.348   2.057
 1547SOL    HW1 6211   2.786   0.411   2.008
 1547SOL    HW2 6212   2.746   0.254   2.028
 1548SOL     OW 6213   3.224   1.144   2.407
 1548SOL    HW1 6214   3.307   1.115   2.359
 1548SOL    HW2 6215   3.175   1.211   2.351
 1549SOL     OW 6216   2.412   0.196   2.747
 1549SOL    HW1 6217   2.407   0.191   2.847
 1549SOL    HW2 6218   2.414   0.292   2.718
 1550SOL     OW 6219   3.657   1.066   2.735
 1550SOL    HW1 6220   3.595   1.051   2.659
 1550SOL    HW2 6221   3.605   1.077   2.820
 1551SOL     OW 6222   3.089   1.550   3.368
 1551SOL    HW1 6223   3.095   1.473   3.432
 1551SOL    HW2 6224   3.037   1.524   3.288
 1552SOL     OW 6225   2.183   0.943   2.104
 1552SOL    HW1 6226   2.265   0.982   2.062
 1552SOL    HW2 6227   2.156   0.861   2.055
 1553SOL     OW 6228   3.320   0.735   2.590
 1553SOL    HW1 6229   3.315   0.670   2.665
 1553SOL    HW2 6230   3.400   0.794   2.603
 1554SOL     OW 6231   2.323   1.266   3.589
 1554SOL    HW1 6232   2.273   1.267   3.503
 1554SOL    HW2 6233   2.260   1.248   3.665
 1555SOL     OW 6234   2.973   1.776   2.099
 1555SOL    HW1 6235   2.913   1.714   2.149
 1555SOL    HW2 6236   3.004   1.732   2.014
 1556SOL     OW 6237   2.064   0.285   3.360
 1556SOL    HW1 6238   1.984   0.345   3.347
 1556SOL    HW2 6239   2.054   0.236   3.446
 1557SOL     OW 6240   2.326   1.743   2.185
 1557SOL    HW1 6241   2.359   1.782   2.271
 1557SOL    HW2 6242   2.402   1.736   2.120
 1558SOL     OW 6243   2.244   0.700   2.342
 1558SOL    HW1 6244   2.289   0.610   2.339
 1558SOL    HW2 6245   2.150   0.689   2.375
 1559SOL     OW 6246   3.409   0.222   3.591
 1559SOL    HW1 6247   3.404   0.259   3.683
 1559SOL    HW2 6248   3.337   0.153   3.579
 1560SOL     OW 6249   2.476   0.122   1.979
 1560SOL    HW1 6250   2.574   0.100   1.986
 1560SOL    HW2 6251   2.445   0.105   1.886
 1561SOL     OW 6252   2.643   0.264   3.611
 1561SOL    HW1 6253   2.710   0.203   3.654
 1561SOL    HW2 6254   2.570   0.283   3.676
 1562SOL     OW 6255   2.750   1.514   3.057
 1562SOL    HW1 6256   2.727   1.489   2.963
 1562SOL    HW2 6257   2.811   1.445   3.096
 1563SOL     OW 6258   3.213   0.590   3.295
 1563SOL    HW1 6259   3.241   0.547   3.380
 1563SOL    HW2 6260   3.238   0.686   3.296
 1564SOL     OW 6261   2.665   1.402   2.786
 1564SOL    HW1 6262   2.755   1.416   2.744
 1564SOL    HW2 6263   2.594   1.404   2.715
 1565SOL     OW 6264   2.784   0.503   2.761
 1565SOL    HW1 6265   2.759   0.494   2.665
 1565SOL    HW2 6266   2.832   0.421   2.792
 1566SOL     OW 6267   2.401   0.064   2.374
 1566SOL    HW1 6268   2.320   0.065   2.432
 1566SOL    HW2 6269   2.404   0.147   2.319
 1567SOL     OW 6270   2.159   0.035   2.033
 1567SOL    HW1 6271   2.208   0.119   2.012
 1567SOL    HW2 6272   2.221  -0.030   2.078
 1568SOL     OW 6273   2.797   0.236   2.342
 1568SOL    HW1 6274   2.749   0.277   2.264
 1568SOL    HW2 6275   2.896   0.234   2.323
 1569SOL     OW 6276   2.938   0.683   3.326
 1569SOL    HW1 6277   2.858   0.622   3.329
 1569SOL    HW2 6278   3.019   0.630   3.302
 1570SOL     OW 6279   3.089   1.570   2.655
 1570SOL    HW1 6280   3.110   1.644   2.590
 1570SOL    HW2 6281   3.157   1.570   2.728
 1571SOL     OW 6282   2.321   1.152   2.603
 1571SOL    HW1 6283   2.250   1.125   2.668
 1571SOL    HW2 6284   2.295   1.124   2.510
 1572SOL     OW 6285   2.894   0.549   1.878
 1572SOL    HW1 6286   2.853   0.631   1.839
 1572SOL    HW2 6287   2.958   0.575   1.951
 1573SOL     OW 6288   1.940   0.556   3.248
 1573SOL    HW1 6289   2.032   0.555   3.207
 1573SOL    HW2 6290   1.934   0.630   3.315
 1574SOL     OW 6291   2.423   0.222   3.009
 1574SOL    HW1 6292   2.461   0.138   3.046
 1574SOL    HW2 6293   2.335   0.241   3.053
 1575SOL     OW 6294   2.728   0.454   2.504
 1575SOL    HW1 6295   2.696   0.526   2.442
 1575SOL    HW2 6296   2.752   0.373   2.451
 1576SOL     OW 6297   2.879   0.039   2.615
 1576SOL    HW1 6298   2.807   0.044   2.546
 1576SOL    HW2 6299   2.855  -0.030   2.684
 1577SOL     OW 6300   3.291   1.173   2.729
 1577SOL    HW1 6301   3.236   1.089   2.722
 1577SOL    HW2 6302   3.317   1.202   2.637
 1578SOL     OW 6303   3.328   0.590   2.854
 1578SOL    HW1 6304   3.298   0.495   2.861
 1578SOL    HW2 6305   3.401   0.606   2.920
 1579SOL     OW 6306   3.719   0.833   2.239
 1579SOL    HW1 6307   3.761   0.769   2.303
 1579SOL    HW2 6308   3.681   0.782   2.161
 1580SOL     OW 6309   2.350   1.385   2.036
 1580SOL    HW1 6310   2.263   1.370   2.083
 1580SOL    HW2 6311   2.333   1.411   1.941
 1581SOL     OW 6312   3.526   1.280   2.519
 1581SOL    HW1 6313   3.625   1.288   2.533
 1581SOL    HW2 6314   3.481   1.364   2.550
 1582SOL     OW 6315   3.252   0.575   1.940
 1582SOL    HW1 6316   3.198   0.554   2.021
 1582SOL    HW2 6317   3.343   0.534   1.949
 1583SOL     OW 6318   2.389   0.256   2.190
 1583SOL    HW1 6319   2.416   0.197   2.115
 1583SOL    HW2 6320   2.389   0.351   2.159
 1584SOL     OW 6321   3.616   1.223   3.450
 1584SOL    HW1 6322   3.707   1.184   3.437
 1584SOL    HW2 6323   3.624   1.319   3.474
 1585SOL     OW 6324   2.926   1.347   3.202
 1585SOL    HW1 6325   2.846   1.324   3.257
 1585SOL    HW2 6326   3.009   1.321   3.251
 1586SOL     OW 6327   3.454   1.629   3.487
 1586SOL    HW1 6328   3.481   1.663   3.397
 1586SOL    HW2 6329   3.533   1.591   3.533
 1587SOL     OW 6330   2.973   1.195   2.962
 1587SOL    HW1 6331   2.933   1.239   3.043
 1587SOL    HW2 6332   2.932   1.232   2.879
 1588SOL     OW 6333   3.500   1.099   2.941
 1588SOL    HW1 6334   3.505   1.180   3.000
 1588SOL    HW2 6335   3.414   1.101   2.890
 1589SOL     OW 6336   2.777   0.089   3.264
 1589SOL    HW1 6337   2.802   0.069   3.169
 1589SOL    HW2 6338   2.849   0.145   3.306
 1590SOL     OW 6339   2.842   1.116   3.581
 1590SOL    HW1 6340   2.743   1.122   3.591
 1590SOL    HW2 6341   2.865   1.036   3.525
 1591SOL     OW 6342   2.567   1.050   2.230
 1591SOL    HW1 6343   2.553   1.057   2.329
 1591SOL    HW2 6344   2.651   0.999   2.212
 1592SOL     OW 6345   2.272   0.813   3.113
 1592SOL    HW1 6346   2.358   0.825   3.163
 1592SOL    HW2 6347   2.230   0.726   3.140
 1593SOL     OW 6348   3.136   0.386   3.124
 1593SOL    HW1 6349   3.157   0.460   3.188
 1593SOL    HW2 6350   3.047   0.403   3.081
 1594SOL     OW 6351   1.926   1.564   3.193
 1594SOL    HW1 6352   1.880   1.646   3.159
 1594SOL    HW2 6353   2.024   1.583   3.202
 1595SOL     OW 6354   2.229   1.100   2.363
 1595SOL    HW1 6355   2.222   1.183   2.307
 1595SOL    HW2 6356   2.233   1.020   2.303
 1596SOL     OW 6357   2.428   0.537   2.727
 1596SOL    HW1 6358   2.440   0.603   2.653
 1596SOL    HW2 6359   2.474   0.571   2.810
 1597SOL     OW 6360   3.134   1.445   3.004
 1597SOL    HW1 6361   3.181   1.458   3.091
 1597SOL    HW2 6362   3.068   1.371   3.013
 1598SOL     OW 6363   3.444   0.639   2.334
 1598SOL    HW1 6364   3.413   0.700   2.407
 1598SOL    HW2 6365   3.494   0.691   2.265
 1599SOL     OW 6366   2.264   0.751   3.460
 1599SOL    HW1 6367   2.332   0.806   3.413
 1599SOL    HW2 6368   2.304   0.663   3.487
 1600SOL     OW 6369   2.875   0.105   3.632
 1600SOL    HW1 6370   2.881   0.190   3.580
 1600SOL    HW2 6371   2.907   0.029   3.575
 1601SOL     OW 6372   2.366   0.050   3.602
 1601SOL    HW1 6373   2.324  -0.007   3.532
 1601SOL    HW2 6374   2.300   0.119   3.634
 1602SOL     OW 6375   2.435   0.870   2.891
 1602SOL    HW1 6376   2.479   0.959   2.882
 1602SOL    HW2 6377   2.372   0.870   2.968
 1603SOL     OW 6378   3.222   0.862   2.907
 1603SOL    HW1 6379   3.147   0.862   2.841
 1603SOL    HW2 6380   3.259   0.770   2.916
 1604SOL     OW 6381   3.071   0.525   2.137
 1604SOL    HW1 6382   3.084   0.441   2.191
 1604SOL    HW2 6383   3.042   0.599   2.197
 1605SOL     OW 6384   2.169   0.213   3.093
 1605SOL    HW1 6385   2.146   0.250   3.183
 1605SOL    HW2 6386   2.139   0.118   3.087
 1606SOL     OW 6387   1.899   1.310   3.144
 1606SOL    HW1 6388   1.952   1.261   3.212
 1606SOL    HW2 6389   1.921   1.408   3.149
 1607SOL     OW 6390   2.594   0.634   2.926
 1607SOL    HW1 6391   2.653   0.608   2.850
 1607SOL    HW2 6392   2.566   0.730   2.915
 1608SOL     OW 6393   3.590   0.935   3.716
 1608SOL    HW1 6394   3.544   0.928   3.627
 1608SOL    HW2 6395   3.528   0.979   3.782
 1609SOL     OW 6396   2.169   0.063   2.480
 1609SOL    HW1 6397   2.158   0.157   2.513
 1609SOL    HW2 6398   2.164   0.000   2.557
 1610SOL     OW 6399   3.484   0.367   2.236
 1610SOL    HW1 6400   3.486   0.291   2.300
 1610SOL    HW2 6401   3.436   0.444   2.276
 1611SOL     OW 6402   2.885   0.766   2.828
 1611SOL    HW1 6403   2.900   0.787   2.924
 1611SOL    HW2 6404   2.855   0.671   2.819
 1612SOL     OW 6405   2.842   1.573   3.562
 1612SOL    HW1 6406   2.822   1.617   3.474
 1612SOL    HW2 6407   2.881   1.482   3.546
 1613SOL     OW 6408   2.212   0.898   3.666
 1613SOL    HW1 6409   2.288   0.942   3.714
 1613SOL    HW2 6410   2.247   0.851   3.584
 1614SOL     OW 6411   3.402   0.274   1.987
 1614SOL    HW1 6412   3.341   0.199   2.010
 1614SOL    HW2 6413   3.424   0.326   2.070
 1615SOL     OW 6414   3.165   0.838   1.904
 1615SOL    HW1 6415   3.199   0.745   1.919
 1615SOL    HW2 6416   3.183   0.865   1.809
 1616SOL     OW 6417   2.930   1.333   2.711
 1616SOL    HW1 6418   2.937   1.249   2.656
 1616SOL    HW2 6419   2.992   1.402   2.675
 1617SOL     OW 6420   2.181   0.810   2.811
 1617SOL    HW1 6421   2.274   0.846   2.816
 1617SOL    HW2 6422   2.175   0.725   2.863
 1618SOL     OW 6423   2.201   0.509   2.868
 1618SOL    HW1 6424   2.149   0.426   2.851
 1618SOL    HW2 6425   2.278   0.514   2.804
 1619SOL     OW 6426   3.000   0.380   3.540
 1619SOL    HW1 6427   2.955   0.443   3.604
 1619SOL    HW2 6428   3.093   0.411   3.523
 1620SOL     OW 6429   3.022   0.207   3.339
 1620SOL    HW1 6430   3.022   0.271   3.416
 1620SOL    HW2 6431   3.050   0.255   3.256
 1621SOL     OW 6432   1.870   1.326   2.062
 1621SOL    HW1 6433   1.777   1.347   2.031
 1621SOL    HW2 6434   1.880   1.227   2.075
 1622SOL     OW 6435   1.950   1.801   2.789
 1622SOL    HW1 6436   1.908   1.715   2.762
 1622SOL    HW2 6437   2.044   1.804   2.755
 1623SOL     OW 6438   2.864   0.796   3.100
 1623SOL    HW1 6439   2.905   0.764   3.186
 1623SOL    HW2 6440   2.768   0.769   3.097
 1624SOL     OW 6441   1.902   0.544   2.976
 1624SOL    HW1 6442   1.987   0.511   2.935
 1624SOL    HW2 6443   1.915   0.559   3.074
 1625SOL     OW 6444   2.051   0.520   3.584
 1625SOL    HW1 6445   2.110   0.480   3.514
 1625SOL    HW2 6446   1.993   0.591   3.543
 1626SOL     OW 6447   3.231   0.950   3.522
 1626SOL    HW1 6448   3.270   1.039   3.542
 1626SOL    HW2 6449   3.241   0.930   3.425
 1627SOL     OW 6450   2.677   0.572   2.187
 1627SOL    HW1 6451   2.684   0.483   2.141
 1627SOL    HW2 6452   2.583   0.606   2.179
 1628SOL     OW 6453   2.114   1.564   3.606
 1628SOL    HW1 6454   2.084   1.621   3.682
 1628SOL    HW2 6455   2.107   1.467   3.632
 1629SOL     OW 6456   2.533   0.464   3.131
 1629SOL    HW1 6457   2.499   0.375   3.101
 1629SOL    HW2 6458   2.559   0.518   3.051
 1630SOL     OW 6459   2.792   1.678   3.327
 1630SOL    HW1 6460   2.768   1.660   3.232
 1630SOL    HW2 6461   2.822   1.772   3.337
 1631SOL     OW 6462   2.335   0.500   2.053
 1631SOL    HW1 6463   2.396   0.580   2.057
 1631SOL    HW2 6464   2.240   0.531   2.060
 1632SOL     OW 6465   2.021   1.137   3.328
 1632SOL    HW1 6466   2.043   1.076   3.404
 1632SOL    HW2 6467   2.031   1.088   3.242
 1633SOL     OW 6468   3.209   1.059   3.096
 1633SOL    HW1 6469   3.233   0.996   3.022
 1633SOL    HW2 6470   3.119   1.099   3.078
 1634SOL     OW 6471   3.164   0.855   2.171
 1634SOL    HW1 6472   3.078   0.824   2.213
 1634SOL    HW2 6473   3.160   0.841   2.072
 1635SOL     OW 6474   3.621   1.747   3.016
 1635SOL    HW1 6475   3.682   1.777   2.943
 1635SOL    HW2 6476   3.583   1.658   2.994
 1636SOL     OW 6477   3.114   1.731   2.990
 1636SOL    HW1 6478   3.198   1.736   2.936
 1636SOL    HW2 6479   3.091   1.635   3.008
 1637SOL     OW 6480   1.945   1.258   2.884
 1637SOL    HW1 6481   1.940   1.257   2.984
 1637SOL    HW2 6482   1.862   1.217   2.846
 1638SOL     OW 6483   2.550   1.662   3.578
 1638SOL    HW1 6484   2.494   1.743   3.587
 1638SOL    HW2 6485   2.602   1.666   3.492
 1639SOL     OW 6486   3.250   1.573   2.339
 1639SOL    HW1 6487   3.317   1.585   2.265
 1639SOL    HW2 6488   3.210   1.662   2.362
 1640SOL     OW 6489   1.992   1.794   3.713
 1640SOL    HW1 6490   1.951   1.720   3.766
 1640SOL    HW2 6491   2.056   1.845   3.771
 1641SOL     OW 6492   3.142   0.927   2.534
 1641SOL    HW1 6493   3.202   0.846   2.536
 1641SOL    HW2 6494   3.182   0.996   2.474
 1642SOL     OW 6495   2.692   1.273   3.284
 1642SOL    HW1 6496   2.687   1.306   3.379
 1642SOL    HW2 6497   2.606   1.292   3.238
 1643SOL     OW 6498   2.534   1.616   2.016
 1643SOL    HW1 6499   2.543   1.626   1.917
 1643SOL    HW2 6500   2.494   1.527   2.037
 1644SOL     OW 6501   3.512   1.720   3.256
 1644SOL    HW1 6502   3.565   1.730   3.172
 1644SOL    HW2 6503   3.485   1.810   3.290
 1645SOL     OW 6504   3.703   0.175   2.825
 1645SOL    HW1 6505   3.742   0.090   2.789
 1645SOL    HW2 6506   3.605   0.177   2.806
 1646SOL     OW 6507   2.125   0.326   2.582
 1646SOL    HW1 6508   2.046   0.377   2.548
 1646SOL    HW2 6509   2.116   0.311   2.680
 1647SOL     OW 6510   3.056   1.612   1.893
 1647SOL    HW1 6511   3.062   1.519   1.930
 1647SOL    HW2 6512   2.997   1.612   1.813
 1648SOL     OW 6513   2.684   1.002   3.234
 1648SOL    HW1 6514   2.724   1.001   3.142
 1648SOL    HW2 6515   2.694   1.094   3.274
 1649SOL     OW 6516   2.778   0.910   2.153
 1649SOL    HW1 6517   2.841   0.948   2.085
 1649SOL    HW2 6518   2.818   0.827   2.192
 1650SOL     OW 6519   2.234   1.288   3.352
 1650SOL    HW1 6520   2.221   1.381   3.318
 1650SOL    HW2 6521   2.150   1.236   3.339
 1651SOL     OW 6522   3.476   1.292   3.151
 1651SOL    HW1 6523   3.536   1.295   3.231
 1651SOL    HW2 6524   3.401   1.356   3.164
 1652SOL     OW 6525   2.901   1.098   2.558
 1652SOL    HW1 6526   2.831   1.051   2.612
 1652SOL    HW2 6527   2.960   1.030   2.515
 1653SOL     OW 6528   2.876   0.236   2.833
 1653SOL    HW1 6529   2.868   0.200   2.740
 1653SOL    HW2 6530   2.874   0.160   2.898
 1654SOL     OW 6531   2.452   1.487   2.353
 1654SOL    HW1 6532   2.494   1.429   2.283
 1654SOL    HW2 6533   2.408   1.566   2.309
 1655SOL     OW 6534   2.117   1.348   2.152
 1655SOL    HW1 6535   2.021   1.349   2.125
 1655SOL    HW2 6536   2.129   1.401   2.236
 1656SOL     OW 6537   1.967   1.013   3.588
 1656SOL    HW1 6538   1.890   0.980   3.642
 1656SOL    HW2 6539   2.052   0.983   3.630
 1657SOL     OW 6540   2.534   0.203   3.351
 1657SOL    HW1 6541   2.624   0.187   3.311
 1657SOL    HW2 6542   2.542   0.208   3.450
 1658SOL     OW 6543   1.937   0.345   1.895
 1658SOL    HW1 6544   1.845   0.317   1.866
 1658SOL    HW2 6545   1.968   0.422   1.839
 1659SOL     OW 6546   3.302   0.856   3.260
 1659SOL    HW1 6547   3.245   0.908   3.197
 1659SOL    HW2 6548   3.398   0.868   3.236
 1660SOL     OW 6549   1.934   0.166   2.180
 1660SOL    HW1 6550   1.917   0.249   2.126
 1660SOL    HW2 6551   2.024   0.129   2.158
 1661SOL     OW 6552   2.475   0.842   3.293
 1661SOL    HW1 6553   2.531   0.923   3.276
 1661SOL    HW2 6554   2.534   0.762   3.296
 1662SOL     OW 6555   3.355   1.767   2.821
 1662SOL    HW1 6556   3.388   1.831   2.752
 1662SOL    HW2 6557   3.421   1.761   2.896
 1663SOL     OW 6558   2.578   0.565   3.570
 1663SOL    HW1 6559   2.597   0.630   3.644
 1663SOL    HW2 6560   2.638   0.485   3.579
 1664SOL     OW 6561   3.312   1.220   3.495
 1664SOL    HW1 6562   3.303   1.210   3.594
 1664SOL    HW2 6563   3.408   1.213   3.469
 1665SOL     OW 6564   3.087   0.325   2.311
 1665SOL    HW1 6565   3.152   0.251   2.300
 1665SOL    HW2 6566   3.107   0.375   2.395
 1666SOL     OW 6567   2.456   0.745   2.514
 1666SOL    HW1 6568   2.506   0.830   2.495
 1666SOL    HW2 6569   2.368   0.747   2.466
 1667SOL     OW 6570   3.639   0.342   3.504
 1667SOL    HW1 6571   3.622   0.373   3.410
 1667SOL    HW2 6572   3.555   0.305   3.542
 1668SOL     OW 6573   3.592   0.934   3.379
 1668SOL    HW1 6574   3.630   1.025   3.394
 1668SOL    HW2 6575   3.584   0.917   3.280
 1669SOL     OW 6576   2.721   1.374   1.878
 1669SOL    HW1 6577   2.675   1.389   1.966
 1669SOL    HW2 6578   2.765   1.459   1.848
 1670SOL     OW 6579   2.721   0.956   2.723
 1670SOL    HW1 6580   2.775   0.887   2.771
 1670SOL    HW2 6581   2.689   1.025   2.789
 1671SOL     OW 6582   2.945   0.984   1.949
 1671SOL    HW1 6583   2.922   1.037   1.867
 1671SOL    HW2 6584   3.026   0.928   1.930
 1672SOL     OW 6585   3.723   1.569   2.713
 1672SOL    HW1 6586   3.652   1.557   2.643
 1672SOL    HW2 6587   3.724   1.490   2.773
 1673SOL     OW 6588   2.083   1.314   3.706
 1673SOL    HW1 6589   2.018   1.241   3.685
 1673SOL    HW2 6590   2.087   1.328   3.804
 1674SOL     OW 6591   1.941   1.240   2.515
 1674SOL    HW1 6592   1.940   1.193   2.603
 1674SOL    HW2 6593   2.023   1.212   2.464
 1675SOL     OW 6594   2.534   1.391   3.486
 1675SOL    HW1 6595   2.456   1.341   3.524
 1675SOL    HW2 6596   2.531   1.486   3.517
 1676SOL     OW 6597   3.686   0.192   3.089
 1676SOL    HW1 6598   3.682   0.102   3.133
 1676SOL    HW2 6599   3.689   0.181   2.990
 1677SOL     OW 6600   2.290   0.424   2.382
 1677SOL    HW1 6601   2.320   0.352   2.320
 1677SOL    HW2 6602   2.251   0.384   2.465
 1678SOL     OW 6603   3.567   1.487   2.966
 1678SOL    HW1 6604   3.474   1.462   2.939
 1678SOL    HW2 6605   3.593   1.437   3.048
 1679SOL     OW 6606   2.179   0.547   3.142
 1679SOL    HW1 6607   2.217   0.488   3.214
 1679SOL    HW2 6608   2.219   0.521   3.054
 1680SOL     OW 6609   2.674   1.586   2.549
 1680SOL    HW1 6610   2.706   1.596   2.455
 1680SOL    HW2 6611   2.595   1.524   2.551
 1681SOL     OW 6612   2.863   0.034   3.016
 1681SOL    HW1 6613   2.800  -0.038   2.985
 1681SOL    HW2 6614   2.956  -0.002   3.016
 1682SOL     OW 6615   2.632   1.330   2.163
 1682SOL    HW1 6616   2.586   1.243   2.180
 1682SOL    HW2 6617   2.723   1.327   2.204
 1683SOL     OW 6618   3.214   0.052   2.030
 1683SOL    HW1 6619   3.249   0.011   1.946
 1683SOL    HW2 6620   3.124   0.014   2.050
 1684SOL     OW 6621   3.162   0.453   2.553
 1684SOL    HW1 6622   3.103   0.533   2.557
 1684SOL    HW2 6623   3.177   0.418   2.646
 1685SOL     OW 6624   1.901   1.077   2.162
 1685SOL    HW1 6625   2.000   1.066   2.153
 1685SOL    HW2 6626   1.861   0.991   2.194
 1686SOL     OW 6627   2.737   1.646   2.199
 1686SOL    HW1 6628   2.660   1.611   2.145
 1686SOL    HW2 6629   2.705   1.717   2.261
 1687SOL     OW 6630   2.092   0.628   3.837
 1687SOL    HW1 6631   1.999   0.626   3.874
 1687SOL    HW2 6632   2.093   0.589   3.745
 1688SOL     OW 6633   2.087   0.275   4.720
 1688SOL    HW1 6634   2.122   0.258   4.812
 1688SOL    HW2 6635   1.999   0.230   4.708
 1689SOL     OW 6636   1.881   0.368   4.371
 1689SOL    HW1 6637   1.799   0.411   4.410
 1689SOL    HW2 6638   1.853   0.295   4.308
 1690SOL     OW 6639   2.431   1.275   4.889
 1690SOL    HW1 6640   2.338   1.268   4.852
 1690SOL    HW2 6641   2.442   1.364   4.933
 1691SOL     OW 6642   2.997   0.703   4.441
 1691SOL    HW1 6643   3.054   0.781   4.416
 1691SOL    HW2 6644   2.937   0.729   4.517
 1692SOL     OW 6645   3.617   0.607   3.955
 1692SOL    HW1 6646   3.605   0.594   3.856
 1692SOL    HW2 6647   3.587   0.526   4.004
 1693SOL     OW 6648   2.630   1.144   4.747
 1693SOL    HW1 6649   2.552   1.161   4.807
 1693SOL    HW2 6650   2.664   1.231   4.711
 1694SOL     OW 6651   2.547   1.012   4.389
 1694SOL    HW1 6652   2.616   0.996   4.459
 1694SOL    HW2 6653   2.474   1.069   4.427
 1695SOL     OW 6654   2.197   1.435   4.785
 1695SOL    HW1 6655   2.119   1.404   4.732
 1695SOL    HW2 6656   2.255   1.493   4.728
 1696SOL     OW 6657   3.465   0.447   4.461
 1696SOL    HW1 6658   3.391   0.493   4.411
 1696SOL    HW2 6659   3.516   0.515   4.514
 1697SOL     OW 6660   2.093   1.713   4.207
 1697SOL    HW1 6661   2.127   1.790   4.261
 1697SOL    HW2 6662   2.137   1.713   4.117
 1698SOL     OW 6663   2.092   1.434   4.262
 1698SOL    HW1 6664   2.066   1.530   4.262
 1698SOL    HW2 6665   2.021   1.380   4.307
 1699SOL     OW 6666   2.102   1.091   4.610
 1699SOL    HW1 6667   2.116   1.007   4.662
 1699SOL    HW2 6668   2.047   1.155   4.665
 1700SOL     OW 6669   2.468   0.964   3.847
 1700SOL    HW1 6670   2.475   1.048   3.793
 1700SOL    HW2 6671   2.514   0.977   3.935
 1701SOL     OW 6672   1.984   0.643   4.287
 1701SOL    HW1 6673   1.939   0.555   4.304
 1701SOL    HW2 6674   1.983   0.697   4.371
 1702SOL     OW 6675   3.704   1.767   4.083
 1702SOL    HW1 6676   3.758   1.738   4.163
 1702SOL    HW2 6677   3.734   1.857   4.054
 1703SOL     OW 6678   1.889   1.596   3.841
 1703SOL    HW1 6679   1.870   1.500   3.862
 1703SOL    HW2 6680   1.856   1.654   3.916
 1704SOL     OW 6681   3.551   0.922   4.336
 1704SOL    HW1 6682   3.646   0.893   4.344
 1704SOL    HW2 6683   3.543   0.987   4.261
 1705SOL     OW 6684   2.475   1.365   4.450
 1705SOL    HW1 6685   2.426   1.278   4.459
 1705SOL    HW2 6686   2.452   1.408   4.363
 1706SOL     OW 6687   2.671   0.004   4.226
 1706SOL    HW1 6688   2.711   0.095   4.217
 1706SOL    HW2 6689   2.571   0.012   4.232
 1707SOL     OW 6690   2.059   0.976   4.988
 1707SOL    HW1 6691   2.148   0.931   4.974
 1707SOL    HW2 6692   1.986   0.911   4.969
 1708SOL     OW 6693   3.387   0.999   3.914
 1708SOL    HW1 6694   3.324   0.923   3.927
 1708SOL    HW2 6695   3.435   1.017   4.000
 1709SOL     OW 6696   2.460   0.729   3.994
 1709SOL    HW1 6697   2.484   0.798   3.926
 1709SOL    HW2 6698   2.382   0.762   4.048
 1710SOL     OW 6699   3.143   0.345   4.668
 1710SOL    HW1 6700   3.057   0.295   4.655
 1710SOL    HW2 6701   3.205   0.291   4.724
 1711SOL     OW 6702   3.438   1.662   4.031
 1711SOL    HW1 6703   3.527   1.708   4.034
 1711SOL    HW2 6704   3.417   1.638   3.936
 1712SOL     OW 6705   2.853   0.410   4.966
 1712SOL    HW1 6706   2.776   0.444   5.020
 1712SOL    HW2 6707   2.819   0.359   4.887
 1713SOL     OW 6708   2.903   0.701   4.153
 1713SOL    HW1 6709   2.929   0.697   4.249
 1713SOL    HW2 6710   2.818   0.650   4.139
 1714SOL     OW 6711   1.938   0.811   4.513
 1714SOL    HW1 6712   2.037   0.799   4.522
 1714SOL    HW2 6713   1.914   0.906   4.534
 1715SOL     OW 6714   2.727   0.348   3.919
 1715SOL    HW1 6715   2.786   0.411   3.870
 1715SOL    HW2 6716   2.746   0.254   3.890
 1716SOL     OW 6717   3.224   1.144   4.269
 1716SOL    HW1 6718   3.307   1.115   4.221
 1716SOL    HW2 6719   3.175   1.211   4.213
 1717SOL     OW 6720   2.412   0.196   4.609
 1717SOL    HW1 6721   2.407   0.191   4.709
 1717SOL    HW2 6722   2.414   0.292   4.580
 1718SOL     OW 6723   2.870   1.456   4.201
 1718SOL    HW1 6724   2.824   1.528   4.149
 1718SOL    HW2 6725   2.866   1.476   4.299
 1719SOL     OW 6726   2.213   1.801   4.577
 1719SOL    HW1 6727   2.263   1.715   4.583
 1719SOL    HW2 6728   2.278   1.878   4.574
 1720SOL     OW 6729   2.183   0.943   3.966
 1720SOL    HW1 6730   2.265   0.982   3.924
 1720SOL    HW2 6731   2.156   0.861   3.917
 1721SOL     OW 6732   3.320   0.735   4.452
 1721SOL    HW1 6733   3.315   0.670   4.527
 1721SOL    HW2 6734   3.400   0.794   4.465
 1722SOL     OW 6735   2.973   1.776   3.961
 1722SOL    HW1 6736   2.913   1.714   4.011
 1722SOL    HW2 6737   3.004   1.732   3.876
 1723SOL     OW 6738   2.326   1.743   4.047
 1723SOL    HW1 6739   2.359   1.782   4.133
 1723SOL    HW2 6740   2.402   1.736   3.982
 1724SOL     OW 6741   3.262   0.107   4.150
 1724SOL    HW1 6742   3.238   0.070   4.060
 1724SOL    HW2 6743   3.361   0.123   4.154
 1725SOL     OW 6744   2.802   1.698   4.628
 1725SOL    HW1 6745   2.882   1.641   4.649
 1725SOL    HW2 6746   2.753   1.658   4.551
 1726SOL     OW 6747   2.244   0.700   4.204
 1726SOL    HW1 6748   2.289   0.610   4.201
 1726SOL    HW2 6749   2.150   0.689   4.237
 1727SOL     OW 6750   2.476   0.122   3.841
 1727SOL    HW1 6751   2.574   0.100   3.848
 1727SOL    HW2 6752   2.445   0.105   3.748
 1728SOL     OW 6753   2.665   1.402   4.648
 1728SOL    HW1 6754   2.755   1.416   4.606
 1728SOL    HW2 6755   2.594   1.404   4.577
 1729SOL     OW 6756   2.784   0.503   4.623
 1729SOL    HW1 6757   2.759   0.494   4.527
 1729SOL    HW2 6758   2.832   0.421   4.654
 1730SOL     OW 6759   2.401   0.064   4.236
 1730SOL    HW1 6760   2.320   0.065   4.294
 1730SOL    HW2 6761   2.404   0.147   4.181
 1731SOL     OW 6762   3.296   1.188   3.765
 1731SOL    HW1 6763   3.328   1.112   3.822
 1731SOL    HW2 6764   3.204   1.215   3.795
 1732SOL     OW 6765   2.159   0.035   3.895
 1732SOL    HW1 6766   2.208   0.119   3.874
 1732SOL    HW2 6767   2.221  -0.030   3.940
 1733SOL     OW 6768   2.797   0.236   4.204
 1733SOL    HW1 6769   2.749   0.277   4.126
 1733SOL    HW2 6770   2.896   0.234   4.185
 1734SOL     OW 6771   2.321   1.152   4.465
 1734SOL    HW1 6772   2.250   1.125   4.530
 1734SOL    HW2 6773   2.295   1.124   4.372
 1735SOL     OW 6774   3.133   1.797   4.315
 1735SOL    HW1 6775   3.177   1.861   4.251
 1735SOL    HW2 6776   3.083   1.849   4.385
 1736SOL     OW 6777   2.894   0.549   3.740
 1736SOL    HW1 6778   2.853   0.631   3.701
 1736SOL    HW2 6779   2.958   0.575   3.813
 1737SOL     OW 6780   2.423   0.222   4.871
 1737SOL    HW1 6781   2.461   0.138   4.908
 1737SOL    HW2 6782   2.335   0.241   4.915
 1738SOL     OW 6783   2.728   0.454   4.366
 1738SOL    HW1 6784   2.696   0.526   4.304
 1738SOL    HW2 6785   2.752   0.373   4.313
 1739SOL     OW 6786   2.879   0.039   4.477
 1739SOL    HW1 6787   2.807   0.044   4.408
 1739SOL    HW2 6788   2.855  -0.030   4.546
 1740SOL     OW 6789   3.328   0.590   4.716
 1740SOL    HW1 6790   3.298   0.495   4.723
 1740SOL    HW2 6791   3.401   0.606   4.782
 1741SOL     OW 6792   3.719   0.833   4.101
 1741SOL    HW1 6793   3.761   0.769   4.165
 1741SOL    HW2 6794   3.681   0.782   4.023
 1742SOL     OW 6795   2.350   1.385   3.898
 1742SOL    HW1 6796   2.263   1.370   3.945
 1742SOL    HW2 6797   2.333   1.411   3.803
 1743SOL     OW 6798   3.252   0.575   3.802
 1743SOL    HW1 6799   3.198   0.554   3.883
 1743SOL    HW2 6800   3.343   0.534   3.811
 1744SOL     OW 6801   2.389   0.256   4.052
 1744SOL    HW1 6802   2.416   0.197   3.977
 1744SOL    HW2 6803   2.389   0.351   4.021
 1745SOL     OW 6804   2.973   1.195   4.824
 1745SOL    HW1 6805   2.933   1.239   4.905
 1745SOL    HW2 6806   2.932   1.232   4.741
 1746SOL     OW 6807   3.500   1.099   4.803
 1746SOL    HW1 6808   3.505   1.180   4.862
 1746SOL    HW2 6809   3.414   1.101   4.752
 1747SOL     OW 6810   2.567   1.050   4.092
 1747SOL    HW1 6811   2.553   1.057   4.191
 1747SOL    HW2 6812   2.651   0.999   4.074
 1748SOL     OW 6813   2.272   0.813   4.975
 1748SOL    HW1 6814   2.358   0.825   5.025
 1748SOL    HW2 6815   2.230   0.726   5.002
 1749SOL     OW 6816   3.136   0.386   4.986
 1749SOL    HW1 6817   3.157   0.460   5.050
 1749SOL    HW2 6818   3.047   0.403   4.943
 1750SOL     OW 6819   2.229   1.100   4.225
 1750SOL    HW1 6820   2.222   1.183   4.169
 1750SOL    HW2 6821   2.233   1.020   4.165
 1751SOL     OW 6822   2.428   0.537   4.589
 1751SOL    HW1 6823   2.440   0.603   4.515
 1751SOL    HW2 6824   2.474   0.571   4.672
 1752SOL     OW 6825   3.134   1.445   4.866
 1752SOL    HW1 6826   3.181   1.458   4.953
 1752SOL    HW2 6827   3.068   1.371   4.875
 1753SOL     OW 6828   3.444   0.639   4.196
 1753SOL    HW1 6829   3.413   0.700   4.269
 1753SOL    HW2 6830   3.494   0.691   4.127
 1754SOL     OW 6831   2.216   1.510   5.053
 1754SOL    HW1 6832   2.195   1.466   4.966
 1754SOL    HW2 6833   2.313   1.536   5.056
 1755SOL     OW 6834   2.435   0.870   4.753
 1755SOL    HW1 6835   2.479   0.959   4.744
 1755SOL    HW2 6836   2.372   0.870   4.830
 1756SOL     OW 6837   3.222   0.862   4.769
 1756SOL    HW1 6838   3.147   0.862   4.703
 1756SOL    HW2 6839   3.259   0.770   4.778
 1757SOL     OW 6840   3.071   0.525   3.999
 1757SOL    HW1 6841   3.084   0.441   4.053
 1757SOL    HW2 6842   3.042   0.599   4.059
 1758SOL     OW 6843   2.169   0.213   4.955
 1758SOL    HW1 6844   2.146   0.250   5.045
 1758SOL    HW2 6845   2.139   0.118   4.949
 1759SOL     OW 6846   1.899   1.310   5.006
 1759SOL    HW1 6847   1.952   1.261   5.074
 1759SOL    HW2 6848   1.921   1.408   5.011
 1760SOL     OW 6849   2.594   0.634   4.788
 1760SOL    HW1 6850   2.653   0.608   4.712
 1760SOL    HW2 6851   2.566   0.730   4.777
 1761SOL     OW 6852   2.169   0.063   4.342
 1761SOL    HW1 6853   2.158   0.157   4.375
 1761SOL    HW2 6854   2.164   0.000   4.419
 1762SOL     OW 6855   3.484   0.367   4.098
 1762SOL    HW1 6856   3.486   0.291   4.162
 1762SOL    HW2 6857   3.436   0.444   4.138
 1763SOL     OW 6858   2.885   0.766   4.690
 1763SOL    HW1 6859   2.900   0.787   4.786
 1763SOL    HW2 6860   2.855   0.671   4.681
 1764SOL     OW 6861   3.402   0.274   3.849
 1764SOL    HW1 6862   3.341   0.199   3.872
 1764SOL    HW2 6863   3.424   0.326   3.932
 1765SOL     OW 6864   3.165   0.838   3.766
 1765SOL    HW1 6865   3.199   0.745   3.781
 1765SOL    HW2 6866   3.183   0.865   3.671
 1766SOL     OW 6867   2.930   1.333   4.573
 1766SOL    HW1 6868   2.937   1.249   4.518
 1766SOL    HW2 6869   2.992   1.402   4.537
 1767SOL     OW 6870   2.181   0.810   4.673
 1767SOL    HW1 6871   2.274   0.846   4.678
 1767SOL    HW2 6872   2.175   0.725   4.725
 1768SOL     OW 6873   2.201   0.509   4.730
 1768SOL    HW1 6874   2.149   0.426   4.713
 1768SOL    HW2 6875   2.278   0.514   4.666
 1769SOL     OW 6876   1.870   1.326   3.924
 1769SOL    HW1 6877   1.777   1.347   3.893
 1769SOL    HW2 6878   1.880   1.227   3.937
 1770SOL     OW 6879   1.950   1.801   4.651
 1770SOL    HW1 6880   1.908   1.715   4.624
 1770SOL    HW2 6881   2.044   1.804   4.617
 1771SOL     OW 6882   2.366   1.568   4.634
 1771SOL    HW1 6883   2.432   1.642   4.643
 1771SOL    HW2 6884   2.410   1.489   4.592
 1772SOL     OW 6885   2.864   0.796   4.962
 1772SOL    HW1 6886   2.905   0.764   5.048
 1772SOL    HW2 6887   2.768   0.769   4.959
 1773SOL     OW 6888   1.902   0.544   4.838
 1773SOL    HW1 6889   1.987   0.511   4.797
 1773SOL    HW2 6890   1.915   0.559   4.936
 1774SOL     OW 6891   2.677   0.572   4.049
 1774SOL    HW1 6892   2.684   0.483   4.003
 1774SOL    HW2 6893   2.583   0.606   4.041
 1775SOL     OW 6894   2.533   0.464   4.993
 1775SOL    HW1 6895   2.499   0.375   4.963
 1775SOL    HW2 6896   2.559   0.518   4.913
 1776SOL     OW 6897   2.792   1.678   5.189
 1776SOL    HW1 6898   2.768   1.660   5.094
 1776SOL    HW2 6899   2.822   1.772   5.199
 1777SOL     OW 6900   2.335   0.500   3.915
 1777SOL    HW1 6901   2.396   0.580   3.919
 1777SOL    HW2 6902   2.240   0.531   3.922
 1778SOL     OW 6903   3.164   0.855   4.033
 1778SOL    HW1 6904   3.078   0.824   4.075
 1778SOL    HW2 6905   3.160   0.841   3.934
 1779SOL     OW 6906   3.621   1.747   4.878
 1779SOL    HW1 6907   3.682   1.777   4.805
 1779SOL    HW2 6908   3.583   1.658   4.856
 1780SOL     OW 6909   3.114   1.731   4.852
 1780SOL    HW1 6910   3.198   1.736   4.798
 1780SOL    HW2 6911   3.091   1.635   4.870
 1781SOL     OW 6912   1.945   1.258   4.746
 1781SOL    HW1 6913   1.940   1.257   4.846
 1781SOL    HW2 6914   1.862   1.217   4.708
 1782SOL     OW 6915   3.588   0.135   4.247
 1782SOL    HW1 6916   3.661   0.118   4.180
 1782SOL    HW2 6917   3.557   0.048   4.285
 1783SOL     OW 6918   3.142   0.927   4.396
 1783SOL    HW1 6919   3.202   0.846   4.398
 1783SOL    HW2 6920   3.182   0.996   4.336
 1784SOL     OW 6921   2.534   1.616   3.878
 1784SOL    HW1 6922   2.543   1.626   3.779
 1784SOL    HW2 6923   2.494   1.527   3.899
 1785SOL     OW 6924   3.512   1.720   5.118
 1785SOL    HW1 6925   3.565   1.730   5.034
 1785SOL    HW2 6926   3.485   1.810   5.152
 1786SOL     OW 6927   3.703   0.175   4.687
 1786SOL    HW1 6928   3.742   0.090   4.651
 1786SOL    HW2 6929   3.605   0.177   4.668
 1787SOL     OW 6930   2.125   0.326   4.444
 1787SOL    HW1 6931   2.046   0.377   4.410
 1787SOL    HW2 6932   2.116   0.311   4.542
 1788SOL     OW 6933   3.056   1.612   3.755
 1788SOL    HW1 6934   3.062   1.519   3.792
 1788SOL    HW2 6935   2.997   1.612   3.675
 1789SOL     OW 6936   2.684   1.002   5.096
 1789SOL    HW1 6937   2.724   1.001   5.004
 1789SOL    HW2 6938   2.694   1.094   5.136
 1790SOL     OW 6939   2.778   0.910   4.015
 1790SOL    HW1 6940   2.841   0.948   3.947
 1790SOL    HW2 6941   2.818   0.827   4.054
 1791SOL     OW 6942   3.366   1.607   3.768
 1791SOL    HW1 6943   3.274   1.644   3.775
 1791SOL    HW2 6944   3.404   1.627   3.678
 1792SOL     OW 6945   2.901   1.098   4.420
 1792SOL    HW1 6946   2.831   1.051   4.474
 1792SOL    HW2 6947   2.960   1.030   4.377
 1793SOL     OW 6948   2.876   0.236   4.695
 1793SOL    HW1 6949   2.868   0.200   4.602
 1793SOL    HW2 6950   2.874   0.160   4.760
 1794SOL     OW 6951   2.452   1.487   4.215
 1794SOL    HW1 6952   2.494   1.429   4.145
 1794SOL    HW2 6953   2.408   1.566   4.171
 1795SOL     OW 6954   3.571   0.385   5.105
 1795SOL    HW1 6955   3.644   0.454   5.109
 1795SOL    HW2 6956   3.599   0.310   5.046
 1796SOL     OW 6957   2.117   1.348   4.014
 1796SOL    HW1 6958   2.021   1.349   3.987
 1796SOL    HW2 6959   2.129   1.401   4.098
 1797SOL     OW 6960   1.937   0.345   3.757
 1797SOL    HW1 6961   1.845   0.317   3.728
 1797SOL    HW2 6962   1.968   0.422   3.701
 1798SOL     OW 6963   1.934   0.166   4.042
 1798SOL    HW1 6964   1.917   0.249   3.988
 1798SOL    HW2 6965   2.024   0.129   4.020
 1799SOL     OW 6966   3.045   1.335   3.843
 1799SOL    HW1 6967   2.946   1.324   3.845
 1799SOL    HW2 6968   3.079   1.350   3.936
 1800SOL     OW 6969   3.312   1.220   5.357
 1800SOL    HW1 6970   3.303   1.210   5.456
 1800SOL    HW2 6971   3.408   1.213   5.331
 1801SOL     OW 6972   3.087   0.325   4.173
 1801SOL    HW1 6973   3.152   0.251   4.162
 1801SOL    HW2 6974   3.107   0.375   4.257
 1802SOL     OW 6975   2.456   0.745   4.376
 1802SOL    HW1 6976   2.506   0.830   4.357
 1802SOL    HW2 6977   2.368   0.747   4.328
 1803SOL     OW 6978   3.592   0.934   5.241
 1803SOL    HW1 6979   3.630   1.025   5.256
 1803SOL    HW2 6980   3.584   0.917   5.142
 1804SOL     OW 6981   2.721   1.374   3.740
 1804SOL    HW1 6982   2.675   1.389   3.828
 1804SOL    HW2 6983   2.765   1.459   3.710
 1805SOL     OW 6984   2.523   1.790   4.677
 1805SOL    HW1 6985   2.477   1.878   4.664
 1805SOL    HW2 6986   2.622   1.802   4.670
 1806SOL     OW 6987   2.721   0.956   4.585
 1806SOL    HW1 6988   2.775   0.887   4.633
 1806SOL    HW2 6989   2.689   1.025   4.651
 1807SOL     OW 6990   2.945   0.984   3.811
 1807SOL    HW1 6991   2.922   1.037   3.729
 1807SOL    HW2 6992   3.026   0.928   3.792
 1808SOL     OW 6993   1.941   1.240   4.377
 1808SOL    HW1 6994   1.940   1.193   4.465
 1808SOL    HW2 6995   2.023   1.212   4.326
 1809SOL     OW 6996   3.686   0.192   4.951
 1809SOL    HW1 6997   3.682   0.102   4.995
 1809SOL    HW2 6998   3.689   0.181   4.852
 1810SOL     OW 6999   2.290   0.424   4.244
 1810SOL    HW1 7000   2.320   0.352   4.182
 1810SOL    HW2 7001   2.251   0.384   4.327
 1811SOL     OW 7002   2.674   1.586   4.411
 1811SOL    HW1 7003   2.706   1.596   4.317
 1811SOL    HW2 7004   2.595   1.524   4.413
 1812SOL     OW 7005   3.286   0.214   4.836
 1812SOL    HW1 7006   3.338   0.149   4.891
 1812SOL    HW2 7007   3.237   0.277   4.897
 1813SOL     OW 7008   2.863   0.034   4.878
 1813SOL    HW1 7009   2.800  -0.038   4.847
 1813SOL    HW2 7010   2.956  -0.002   4.878
 1814SOL     OW 7011   2.632   1.330   4.025
 1814SOL    HW1 7012   2.586   1.243   4.042
 1814SOL    HW2 7013   2.723   1.327   4.066
 1815SOL     OW 7014   3.214   0.052   3.892
 1815SOL    HW1 7015   3.249   0.011   3.808
 1815SOL    HW2 7016   3.124   0.014   3.912
 1816SOL     OW 7017   3.162   0.453   4.415
 1816SOL    HW1 7018   3.103   0.533   4.419
 1816SOL    HW2 7019   3.177   0.418   4.508
 1817SOL     OW 7020   3.455   0.221   4.606
 1817SOL    HW1 7021   3.371   0.220   4.660
 1817SOL    HW2 7022   3.457   0.304   4.550
 1818SOL     OW 7023   1.901   1.077   4.024
 1818SOL    HW1 7024   2.000   1.066   4.015
 1818SOL    HW2 7025   1.861   0.991   4.056
 1819SOL     OW 7026   2.737   1.646   4.061
 1819SOL    HW1 7027   2.660   1.611   4.007
 1819SOL    HW2 7028   2.705   1.717   4.123
 1820SOL     OW 7029   2.087   2.137   0.996
 1820SOL    HW1 7030   2.122   2.120   1.088
 1820SOL    HW2 7031   1.999   2.092   0.984
 1821SOL     OW 7032   1.881   2.230   0.647
 1821SOL    HW1 7033   1.799   2.273   0.686
 1821SOL    HW2 7034   1.853   2.157   0.584
 1822SOL     OW 7035   3.417   3.373   0.703
 1822SOL    HW1 7036   3.360   3.357   0.784
 1822SOL    HW2 7037   3.358   3.383   0.623
 1823SOL     OW 7038   2.997   2.565   0.717
 1823SOL    HW1 7039   3.054   2.643   0.692
 1823SOL    HW2 7040   2.937   2.591   0.793
 1824SOL     OW 7041   3.617   2.469   0.231
 1824SOL    HW1 7042   3.605   2.456   0.132
 1824SOL    HW2 7043   3.587   2.388   0.280
 1825SOL     OW 7044   2.630   3.006   1.023
 1825SOL    HW1 7045   2.552   3.023   1.083
 1825SOL    HW2 7046   2.664   3.093   0.987
 1826SOL     OW 7047   2.712   2.660   1.823
 1826SOL    HW1 7048   2.708   2.736   1.888
 1826SOL    HW2 7049   2.734   2.696   1.732
 1827SOL     OW 7050   2.547   2.874   0.665
 1827SOL    HW1 7051   2.616   2.858   0.735
 1827SOL    HW2 7052   2.474   2.931   0.703
 1828SOL     OW 7053   2.548   3.023   1.803
 1828SOL    HW1 7054   2.608   3.102   1.817
 1828SOL    HW2 7055   2.462   3.054   1.762
 1829SOL     OW 7056   2.197   3.297   1.061
 1829SOL    HW1 7057   2.119   3.266   1.008
 1829SOL    HW2 7058   2.255   3.355   1.004
 1830SOL     OW 7059   3.322   3.367   1.339
 1830SOL    HW1 7060   3.346   3.461   1.365
 1830SOL    HW2 7061   3.306   3.313   1.421
 1831SOL     OW 7062   2.300   2.254   1.499
 1831SOL    HW1 7063   2.382   2.198   1.508
 1831SOL    HW2 7064   2.219   2.196   1.503
 1832SOL     OW 7065   2.093   3.575   0.483
 1832SOL    HW1 7066   2.127   3.652   0.537
 1832SOL    HW2 7067   2.137   3.575   0.393
 1833SOL     OW 7068   2.989   3.203   1.690
 1833SOL    HW1 7069   3.036   3.203   1.778
 1833SOL    HW2 7070   2.941   3.116   1.679
 1834SOL     OW 7071   2.092   3.296   0.538
 1834SOL    HW1 7072   2.066   3.392   0.538
 1834SOL    HW2 7073   2.021   3.242   0.583
 1835SOL     OW 7074   2.102   2.953   0.886
 1835SOL    HW1 7075   2.116   2.869   0.938
 1835SOL    HW2 7076   2.047   3.017   0.941
 1836SOL     OW 7077   2.482   3.648   1.439
 1836SOL    HW1 7078   2.390   3.631   1.474
 1836SOL    HW2 7079   2.510   3.740   1.465
 1837SOL     OW 7080   2.468   2.826   0.123
 1837SOL    HW1 7081   2.475   2.910   0.069
 1837SOL    HW2 7082   2.514   2.839   0.211
 1838SOL     OW 7083   3.456   1.976   1.480
 1838SOL    HW1 7084   3.438   2.043   1.408
 1838SOL    HW2 7085   3.453   2.022   1.569
 1839SOL     OW 7086   1.984   2.505   0.563
 1839SOL    HW1 7087   1.939   2.417   0.580
 1839SOL    HW2 7088   1.983   2.559   0.647
 1840SOL     OW 7089   3.704   3.629   0.359
 1840SOL    HW1 7090   3.758   3.600   0.439
 1840SOL    HW2 7091   3.734   3.719   0.330
 1841SOL     OW 7092   1.889   3.458   0.117
 1841SOL    HW1 7093   1.870   3.362   0.138
 1841SOL    HW2 7094   1.856   3.516   0.192
 1842SOL     OW 7095   2.475   3.227   0.726
 1842SOL    HW1 7096   2.426   3.140   0.735
 1842SOL    HW2 7097   2.452   3.270   0.639
 1843SOL     OW 7098   3.155   3.090   1.423
 1843SOL    HW1 7099   3.192   3.017   1.365
 1843SOL    HW2 7100   3.207   3.095   1.508
 1844SOL     OW 7101   2.671   1.866   0.502
 1844SOL    HW1 7102   2.711   1.957   0.493
 1844SOL    HW2 7103   2.571   1.874   0.508
 1845SOL     OW 7104   3.387   2.861   0.190
 1845SOL    HW1 7105   3.324   2.785   0.203
 1845SOL    HW2 7106   3.435   2.879   0.276
 1846SOL     OW 7107   3.049   3.654   1.616
 1846SOL    HW1 7108   3.073   3.714   1.540
 1846SOL    HW2 7109   3.056   3.559   1.586
 1847SOL     OW 7110   2.179   2.113   1.801
 1847SOL    HW1 7111   2.250   2.184   1.807
 1847SOL    HW2 7112   2.091   2.152   1.829
 1848SOL     OW 7113   3.328   3.279   0.953
 1848SOL    HW1 7114   3.269   3.285   1.033
 1848SOL    HW2 7115   3.313   3.191   0.907
 1849SOL     OW 7116   3.529   3.576   0.572
 1849SOL    HW1 7117   3.488   3.553   0.484
 1849SOL    HW2 7118   3.511   3.502   0.637
 1850SOL     OW 7119   2.460   2.591   0.270
 1850SOL    HW1 7120   2.484   2.660   0.202
 1850SOL    HW2 7121   2.382   2.624   0.324
 1851SOL     OW 7122   3.143   2.207   0.944
 1851SOL    HW1 7123   3.057   2.157   0.931
 1851SOL    HW2 7124   3.205   2.153   1.000
 1852SOL     OW 7125   3.438   3.524   0.307
 1852SOL    HW1 7126   3.527   3.570   0.310
 1852SOL    HW2 7127   3.417   3.500   0.212
 1853SOL     OW 7128   2.669   2.467   1.465
 1853SOL    HW1 7129   2.622   2.464   1.554
 1853SOL    HW2 7130   2.618   2.412   1.399
 1854SOL     OW 7131   3.256   2.331   1.674
 1854SOL    HW1 7132   3.236   2.374   1.762
 1854SOL    HW2 7133   3.334   2.269   1.683
 1855SOL     OW 7134   2.835   2.752   1.572
 1855SOL    HW1 7135   2.881   2.668   1.543
 1855SOL    HW2 7136   2.779   2.786   1.497
 1856SOL     OW 7137   2.853   2.272   1.242
 1856SOL    HW1 7138   2.776   2.306   1.296
 1856SOL    HW2 7139   2.819   2.221   1.163
 1857SOL     OW 7140   2.903   2.563   0.429
 1857SOL    HW1 7141   2.929   2.559   0.525
 1857SOL    HW2 7142   2.818   2.512   0.415
 1858SOL     OW 7143   1.938   2.673   0.789
 1858SOL    HW1 7144   2.037   2.661   0.798
 1858SOL    HW2 7145   1.914   2.768   0.810
 1859SOL     OW 7146   1.992   3.683   1.571
 1859SOL    HW1 7147   1.982   3.668   1.670
 1859SOL    HW2 7148   1.906   3.719   1.535
 1860SOL     OW 7149   3.581   2.447   1.831
 1860SOL    HW1 7150   3.555   2.536   1.795
 1860SOL    HW2 7151   3.579   2.379   1.758
 1861SOL     OW 7152   3.224   3.006   0.545
 1861SOL    HW1 7153   3.307   2.977   0.497
 1861SOL    HW2 7154   3.175   3.073   0.489
 1862SOL     OW 7155   2.412   2.058   0.885
 1862SOL    HW1 7156   2.407   2.053   0.985
 1862SOL    HW2 7157   2.414   2.154   0.856
 1863SOL     OW 7158   2.870   3.318   0.477
 1863SOL    HW1 7159   2.824   3.390   0.425
 1863SOL    HW2 7160   2.866   3.338   0.575
 1864SOL     OW 7161   2.213   3.663   0.853
 1864SOL    HW1 7162   2.263   3.577   0.859
 1864SOL    HW2 7163   2.278   3.740   0.850
 1865SOL     OW 7164   3.657   2.928   0.873
 1865SOL    HW1 7165   3.595   2.913   0.797
 1865SOL    HW2 7166   3.605   2.939   0.958
 1866SOL     OW 7167   3.089   3.412   1.506
 1866SOL    HW1 7168   3.095   3.335   1.570
 1866SOL    HW2 7169   3.037   3.386   1.426
 1867SOL     OW 7170   2.973   3.638   0.237
 1867SOL    HW1 7171   2.913   3.576   0.287
 1867SOL    HW2 7172   3.004   3.594   0.152
 1868SOL     OW 7173   2.064   2.147   1.498
 1868SOL    HW1 7174   1.984   2.207   1.485
 1868SOL    HW2 7175   2.054   2.098   1.584
 1869SOL     OW 7176   3.494   3.239   0.081
 1869SOL    HW1 7177   3.462   3.333   0.071
 1869SOL    HW2 7178   3.418   3.176   0.069
 1870SOL     OW 7179   2.326   3.605   0.323
 1870SOL    HW1 7180   2.359   3.644   0.409
 1870SOL    HW2 7181   2.402   3.598   0.258
 1871SOL     OW 7182   3.262   1.969   0.426
 1871SOL    HW1 7183   3.238   1.932   0.336
 1871SOL    HW2 7184   3.361   1.985   0.430
 1872SOL     OW 7185   2.802   3.560   0.904
 1872SOL    HW1 7186   2.882   3.503   0.925
 1872SOL    HW2 7187   2.753   3.520   0.827
 1873SOL     OW 7188   2.244   2.562   0.480
 1873SOL    HW1 7189   2.289   2.472   0.477
 1873SOL    HW2 7190   2.150   2.551   0.513
 1874SOL     OW 7191   2.643   2.126   1.749
 1874SOL    HW1 7192   2.710   2.065   1.792
 1874SOL    HW2 7193   2.570   2.145   1.814
 1875SOL     OW 7194   2.750   3.376   1.195
 1875SOL    HW1 7195   2.727   3.351   1.101
 1875SOL    HW2 7196   2.811   3.307   1.234
 1876SOL     OW 7197   3.213   2.452   1.433
 1876SOL    HW1 7198   3.241   2.409   1.518
 1876SOL    HW2 7199   3.238   2.548   1.434
 1877SOL     OW 7200   2.665   3.264   0.924
 1877SOL    HW1 7201   2.755   3.278   0.882
 1877SOL    HW2 7202   2.594   3.266   0.853
 1878SOL     OW 7203   2.784   2.365   0.899
 1878SOL    HW1 7204   2.759   2.356   0.803
 1878SOL    HW2 7205   2.832   2.283   0.930
 1879SOL     OW 7206   3.296   3.050   0.041
 1879SOL    HW1 7207   3.328   2.974   0.098
 1879SOL    HW2 7208   3.204   3.077   0.071
 1880SOL     OW 7209   2.797   2.098   0.480
 1880SOL    HW1 7210   2.749   2.139   0.402
 1880SOL    HW2 7211   2.896   2.096   0.461
 1881SOL     OW 7212   2.938   2.545   1.464
 1881SOL    HW1 7213   2.858   2.484   1.467
 1881SOL    HW2 7214   3.019   2.492   1.440
 1882SOL     OW 7215   3.089   3.432   0.793
 1882SOL    HW1 7216   3.110   3.506   0.728
 1882SOL    HW2 7217   3.157   3.432   0.866
 1883SOL     OW 7218   2.321   3.014   0.741
 1883SOL    HW1 7219   2.250   2.987   0.806
 1883SOL    HW2 7220   2.295   2.986   0.648
 1884SOL     OW 7221   3.133   3.659   0.591
 1884SOL    HW1 7222   3.177   3.723   0.527
 1884SOL    HW2 7223   3.083   3.711   0.661
 1885SOL     OW 7224   2.894   2.411   0.016
 1885SOL    HW1 7225   2.853   2.493  -0.023
 1885SOL    HW2 7226   2.958   2.437   0.089
 1886SOL     OW 7227   1.940   2.418   1.386
 1886SOL    HW1 7228   2.032   2.417   1.345
 1886SOL    HW2 7229   1.934   2.492   1.453
 1887SOL     OW 7230   2.423   2.084   1.147
 1887SOL    HW1 7231   2.461   2.000   1.184
 1887SOL    HW2 7232   2.335   2.103   1.191
 1888SOL     OW 7233   2.728   2.316   0.642
 1888SOL    HW1 7234   2.696   2.388   0.580
 1888SOL    HW2 7235   2.752   2.235   0.589
 1889SOL     OW 7236   2.879   1.901   0.753
 1889SOL    HW1 7237   2.807   1.906   0.684
 1889SOL    HW2 7238   2.855   1.832   0.822
 1890SOL     OW 7239   2.350   3.247   0.174
 1890SOL    HW1 7240   2.263   3.232   0.221
 1890SOL    HW2 7241   2.333   3.273   0.079
 1891SOL     OW 7242   3.526   3.142   0.657
 1891SOL    HW1 7243   3.625   3.150   0.671
 1891SOL    HW2 7244   3.481   3.226   0.688
 1892SOL     OW 7245   3.252   2.437   0.078
 1892SOL    HW1 7246   3.198   2.416   0.159
 1892SOL    HW2 7247   3.343   2.396   0.087
 1893SOL     OW 7248   3.616   3.085   1.588
 1893SOL    HW1 7249   3.707   3.046   1.575
 1893SOL    HW2 7250   3.624   3.181   1.612
 1894SOL     OW 7251   2.926   3.209   1.340
 1894SOL    HW1 7252   2.846   3.186   1.395
 1894SOL    HW2 7253   3.009   3.183   1.389
 1895SOL     OW 7254   3.454   3.491   1.625
 1895SOL    HW1 7255   3.481   3.525   1.535
 1895SOL    HW2 7256   3.533   3.453   1.671
 1896SOL     OW 7257   2.973   3.057   1.100
 1896SOL    HW1 7258   2.933   3.101   1.181
 1896SOL    HW2 7259   2.932   3.094   1.017
 1897SOL     OW 7260   2.777   1.951   1.402
 1897SOL    HW1 7261   2.802   1.931   1.307
 1897SOL    HW2 7262   2.849   2.007   1.444
 1898SOL     OW 7263   2.842   2.978   1.719
 1898SOL    HW1 7264   2.743   2.984   1.729
 1898SOL    HW2 7265   2.865   2.898   1.663
 1899SOL     OW 7266   2.567   2.912   0.368
 1899SOL    HW1 7267   2.553   2.919   0.467
 1899SOL    HW2 7268   2.651   2.861   0.350
 1900SOL     OW 7269   3.136   2.248   1.262
 1900SOL    HW1 7270   3.157   2.322   1.326
 1900SOL    HW2 7271   3.047   2.265   1.219
 1901SOL     OW 7272   2.229   2.962   0.501
 1901SOL    HW1 7273   2.222   3.045   0.445
 1901SOL    HW2 7274   2.233   2.882   0.441
 1902SOL     OW 7275   2.428   2.399   0.865
 1902SOL    HW1 7276   2.440   2.465   0.791
 1902SOL    HW2 7277   2.474   2.433   0.948
 1903SOL     OW 7278   3.114   3.210   0.388
 1903SOL    HW1 7279   3.164   3.287   0.428
 1903SOL    HW2 7280   3.019   3.212   0.420
 1904SOL     OW 7281   3.134   3.307   1.142
 1904SOL    HW1 7282   3.181   3.320   1.229
 1904SOL    HW2 7283   3.068   3.233   1.151
 1905SOL     OW 7284   3.449   2.641   1.670
 1905SOL    HW1 7285   3.357   2.679   1.665
 1905SOL    HW2 7286   3.509   2.688   1.605
 1906SOL     OW 7287   2.875   1.967   1.770
 1906SOL    HW1 7288   2.881   2.052   1.718
 1906SOL    HW2 7289   2.907   1.891   1.713
 1907SOL     OW 7290   2.366   1.912   1.740
 1907SOL    HW1 7291   2.324   1.855   1.670
 1907SOL    HW2 7292   2.300   1.981   1.772
 1908SOL     OW 7293   3.071   2.387   0.275
 1908SOL    HW1 7294   3.084   2.303   0.329
 1908SOL    HW2 7295   3.042   2.461   0.335
 1909SOL     OW 7296   2.169   2.075   1.231
 1909SOL    HW1 7297   2.146   2.112   1.321
 1909SOL    HW2 7298   2.139   1.980   1.225
 1910SOL     OW 7299   2.594   2.496   1.064
 1910SOL    HW1 7300   2.653   2.470   0.988
 1910SOL    HW2 7301   2.566   2.592   1.053
 1911SOL     OW 7302   3.590   2.797   1.854
 1911SOL    HW1 7303   3.544   2.790   1.765
 1911SOL    HW2 7304   3.528   2.841   1.920
 1912SOL     OW 7305   2.169   1.925   0.618
 1912SOL    HW1 7306   2.158   2.019   0.651
 1912SOL    HW2 7307   2.164   1.862   0.695
 1913SOL     OW 7308   3.484   2.229   0.374
 1913SOL    HW1 7309   3.486   2.153   0.438
 1913SOL    HW2 7310   3.436   2.306   0.414
 1914SOL     OW 7311   2.885   2.628   0.966
 1914SOL    HW1 7312   2.900   2.649   1.062
 1914SOL    HW2 7313   2.855   2.533   0.957
 1915SOL     OW 7314   2.842   3.435   1.700
 1915SOL    HW1 7315   2.822   3.479   1.612
 1915SOL    HW2 7316   2.881   3.344   1.684
 1916SOL     OW 7317   3.721   3.380   1.605
 1916SOL    HW1 7318   3.735   3.407   1.510
 1916SOL    HW2 7319   3.804   3.402   1.658
 1917SOL     OW 7320   3.402   2.136   0.125
 1917SOL    HW1 7321   3.341   2.061   0.148
 1917SOL    HW2 7322   3.424   2.188   0.208
 1918SOL     OW 7323   3.165   2.700   0.042
 1918SOL    HW1 7324   3.199   2.607   0.057
 1918SOL    HW2 7325   3.183   2.727  -0.053
 1919SOL     OW 7326   2.930   3.195   0.849
 1919SOL    HW1 7327   2.937   3.111   0.794
 1919SOL    HW2 7328   2.992   3.264   0.813
 1920SOL     OW 7329   2.201   2.371   1.006
 1920SOL    HW1 7330   2.149   2.288   0.989
 1920SOL    HW2 7331   2.278   2.376   0.942
 1921SOL     OW 7332   3.000   2.242   1.678
 1921SOL    HW1 7333   2.955   2.305   1.742
 1921SOL    HW2 7334   3.093   2.273   1.661
 1922SOL     OW 7335   3.022   2.069   1.477
 1922SOL    HW1 7336   3.022   2.133   1.554
 1922SOL    HW2 7337   3.050   2.117   1.394
 1923SOL     OW 7338   1.950   3.663   0.927
 1923SOL    HW1 7339   1.908   3.577   0.900
 1923SOL    HW2 7340   2.044   3.666   0.893
 1924SOL     OW 7341   2.366   3.430   0.910
 1924SOL    HW1 7342   2.432   3.504   0.919
 1924SOL    HW2 7343   2.410   3.351   0.868
 1925SOL     OW 7344   2.864   2.658   1.238
 1925SOL    HW1 7345   2.905   2.626   1.324
 1925SOL    HW2 7346   2.768   2.631   1.235
 1926SOL     OW 7347   1.902   2.406   1.114
 1926SOL    HW1 7348   1.987   2.373   1.073
 1926SOL    HW2 7349   1.915   2.421   1.212
 1927SOL     OW 7350   2.051   2.382   1.722
 1927SOL    HW1 7351   2.110   2.342   1.652
 1927SOL    HW2 7352   1.993   2.453   1.681
 1928SOL     OW 7353   3.231   2.812   1.660
 1928SOL    HW1 7354   3.270   2.901   1.680
 1928SOL    HW2 7355   3.241   2.792   1.563
 1929SOL     OW 7356   2.677   2.434   0.325
 1929SOL    HW1 7357   2.684   2.345   0.279
 1929SOL    HW2 7358   2.583   2.468   0.317
 1930SOL     OW 7359   3.519   2.466   1.206
 1930SOL    HW1 7360   3.481   2.397   1.268
 1930SOL    HW2 7361   3.601   2.430   1.162
 1931SOL     OW 7362   2.114   3.426   1.744
 1931SOL    HW1 7363   2.084   3.483   1.820
 1931SOL    HW2 7364   2.107   3.329   1.770
 1932SOL     OW 7365   2.533   2.326   1.269
 1932SOL    HW1 7366   2.499   2.237   1.239
 1932SOL    HW2 7367   2.559   2.380   1.189
 1933SOL     OW 7368   2.792   3.540   1.465
 1933SOL    HW1 7369   2.768   3.522   1.370
 1933SOL    HW2 7370   2.822   3.634   1.475
 1934SOL     OW 7371   3.621   3.609   1.154
 1934SOL    HW1 7372   3.682   3.639   1.081
 1934SOL    HW2 7373   3.583   3.520   1.132
 1935SOL     OW 7374   3.114   3.593   1.128
 1935SOL    HW1 7375   3.198   3.598   1.074
 1935SOL    HW2 7376   3.091   3.497   1.146
 1936SOL     OW 7377   1.945   3.120   1.022
 1936SOL    HW1 7378   1.940   3.119   1.122
 1936SOL    HW2 7379   1.862   3.079   0.984
 1937SOL     OW 7380   2.550   3.524   1.716
 1937SOL    HW1 7381   2.494   3.605   1.725
 1937SOL    HW2 7382   2.602   3.528   1.630
 1938SOL     OW 7383   2.765   1.948   0.133
 1938SOL    HW1 7384   2.816   1.949   0.047
 1938SOL    HW2 7385   2.821   1.906   0.204
 1939SOL     OW 7386   3.588   1.997   0.523
 1939SOL    HW1 7387   3.661   1.980   0.456
 1939SOL    HW2 7388   3.557   1.910   0.561
 1940SOL     OW 7389   3.250   3.435   0.477
 1940SOL    HW1 7390   3.317   3.447   0.403
 1940SOL    HW2 7391   3.210   3.524   0.500
 1941SOL     OW 7392   1.992   3.656   1.851
 1941SOL    HW1 7393   1.951   3.582   1.904
 1941SOL    HW2 7394   2.056   3.707   1.909
 1942SOL     OW 7395   3.142   2.789   0.672
 1942SOL    HW1 7396   3.202   2.708   0.674
 1942SOL    HW2 7397   3.182   2.858   0.612
 1943SOL     OW 7398   2.692   3.135   1.422
 1943SOL    HW1 7399   2.687   3.168   1.517
 1943SOL    HW2 7400   2.606   3.154   1.376
 1944SOL     OW 7401   2.534   3.478   0.154
 1944SOL    HW1 7402   2.543   3.488   0.055
 1944SOL    HW2 7403   2.494   3.389   0.175
 1945SOL     OW 7404   3.512   3.582   1.394
 1945SOL    HW1 7405   3.565   3.592   1.310
 1945SOL    HW2 7406   3.485   3.672   1.428
 1946SOL     OW 7407   3.703   2.037   0.963
 1946SOL    HW1 7408   3.742   1.952   0.927
 1946SOL    HW2 7409   3.605   2.039   0.944
 1947SOL     OW 7410   2.125   2.188   0.720
 1947SOL    HW1 7411   2.046   2.239   0.686
 1947SOL    HW2 7412   2.116   2.173   0.818
 1948SOL     OW 7413   3.056   3.474   0.031
 1948SOL    HW1 7414   3.062   3.381   0.068
 1948SOL    HW2 7415   2.997   3.474  -0.049
 1949SOL     OW 7416   2.684   2.864   1.372
 1949SOL    HW1 7417   2.724   2.863   1.280
 1949SOL    HW2 7418   2.694   2.956   1.412
 1950SOL     OW 7419   2.778   2.772   0.291
 1950SOL    HW1 7420   2.841   2.810   0.223
 1950SOL    HW2 7421   2.818   2.689   0.330
 1951SOL     OW 7422   3.366   3.469   0.044
 1951SOL    HW1 7423   3.274   3.506   0.051
 1951SOL    HW2 7424   3.404   3.489  -0.046
 1952SOL     OW 7425   3.476   3.154   1.289
 1952SOL    HW1 7426   3.536   3.157   1.369
 1952SOL    HW2 7427   3.401   3.218   1.302
 1953SOL     OW 7428   2.901   2.960   0.696
 1953SOL    HW1 7429   2.831   2.913   0.750
 1953SOL    HW2 7430   2.960   2.892   0.653
 1954SOL     OW 7431   2.876   2.098   0.971
 1954SOL    HW1 7432   2.868   2.062   0.878
 1954SOL    HW2 7433   2.874   2.022   1.036
 1955SOL     OW 7434   2.452   3.349   0.491
 1955SOL    HW1 7435   2.494   3.291   0.421
 1955SOL    HW2 7436   2.408   3.428   0.447
 1956SOL     OW 7437   3.571   2.247   1.381
 1956SOL    HW1 7438   3.644   2.316   1.385
 1956SOL    HW2 7439   3.599   2.172   1.322
 1957SOL     OW 7440   2.117   3.210   0.290
 1957SOL    HW1 7441   2.021   3.211   0.263
 1957SOL    HW2 7442   2.129   3.263   0.374
 1958SOL     OW 7443   2.534   2.065   1.489
 1958SOL    HW1 7444   2.624   2.049   1.449
 1958SOL    HW2 7445   2.542   2.070   1.588
 1959SOL     OW 7446   3.302   2.718   1.398
 1959SOL    HW1 7447   3.245   2.770   1.335
 1959SOL    HW2 7448   3.398   2.730   1.374
 1960SOL     OW 7449   1.934   2.028   0.318
 1960SOL    HW1 7450   1.917   2.111   0.264
 1960SOL    HW2 7451   2.024   1.991   0.296
 1961SOL     OW 7452   3.045   3.197   0.119
 1961SOL    HW1 7453   2.946   3.186   0.121
 1961SOL    HW2 7454   3.079   3.212   0.212
 1962SOL     OW 7455   3.355   3.629   0.959
 1962SOL    HW1 7456   3.388   3.693   0.890
 1962SOL    HW2 7457   3.421   3.623   1.034
 1963SOL     OW 7458   3.312   3.082   1.633
 1963SOL    HW1 7459   3.303   3.072   1.732
 1963SOL    HW2 7460   3.408   3.075   1.607
 1964SOL     OW 7461   2.252   3.603   1.560
 1964SOL    HW1 7462   2.161   3.644   1.558
 1964SOL    HW2 7463   2.245   3.509   1.592
 1965SOL     OW 7464   3.536   2.745   1.254
 1965SOL    HW1 7465   3.509   2.656   1.217
 1965SOL    HW2 7466   3.537   2.813   1.181
 1966SOL     OW 7467   3.087   2.187   0.449
 1966SOL    HW1 7468   3.152   2.113   0.438
 1966SOL    HW2 7469   3.107   2.237   0.533
 1967SOL     OW 7470   2.456   2.607   0.652
 1967SOL    HW1 7471   2.506   2.692   0.633
 1967SOL    HW2 7472   2.368   2.609   0.604
 1968SOL     OW 7473   3.639   2.204   1.642
 1968SOL    HW1 7474   3.622   2.235   1.548
 1968SOL    HW2 7475   3.555   2.167   1.680
 1969SOL     OW 7476   3.592   2.796   1.517
 1969SOL    HW1 7477   3.630   2.887   1.532
 1969SOL    HW2 7478   3.584   2.779   1.418
 1970SOL     OW 7479   2.721   3.236   0.016
 1970SOL    HW1 7480   2.675   3.251   0.104
 1970SOL    HW2 7481   2.765   3.321  -0.014
 1971SOL     OW 7482   2.523   3.652   0.953
 1971SOL    HW1 7483   2.477   3.740   0.940
 1971SOL    HW2 7484   2.622   3.664   0.946
 1972SOL     OW 7485   2.721   2.818   0.861
 1972SOL    HW1 7486   2.775   2.749   0.909
 1972SOL    HW2 7487   2.689   2.887   0.927
 1973SOL     OW 7488   2.945   2.846   0.087
 1973SOL    HW1 7489   2.922   2.899   0.005
 1973SOL    HW2 7490   3.026   2.790   0.068
 1974SOL     OW 7491   3.723   3.431   0.851
 1974SOL    HW1 7492   3.652   3.419   0.781
 1974SOL    HW2 7493   3.724   3.352   0.911
 1975SOL     OW 7494   2.083   3.176   1.844
 1975SOL    HW1 7495   2.018   3.103   1.823
 1975SOL    HW2 7496   2.087   3.190   1.942
 1976SOL     OW 7497   1.941   3.102   0.653
 1976SOL    HW1 7498   1.940   3.055   0.741
 1976SOL    HW2 7499   2.023   3.074   0.602
 1977SOL     OW 7500   2.534   3.253   1.624
 1977SOL    HW1 7501   2.456   3.203   1.662
 1977SOL    HW2 7502   2.531   3.348   1.655
 1978SOL     OW 7503   3.686   2.054   1.227
 1978SOL    HW1 7504   3.682   1.964   1.271
 1978SOL    HW2 7505   3.689   2.043   1.128
 1979SOL     OW 7506   3.567   3.349   1.104
 1979SOL    HW1 7507   3.474   3.324   1.077
 1979SOL    HW2 7508   3.593   3.299   1.186
 1980SOL     OW 7509   2.179   2.409   1.280
 1980SOL    HW1 7510   2.217   2.350   1.352
 1980SOL    HW2 7511   2.219   2.383   1.192
 1981SOL     OW 7512   2.674   3.448   0.687
 1981SOL    HW1 7513   2.706   3.458   0.593
 1981SOL    HW2 7514   2.595   3.386   0.689
 1982SOL     OW 7515   3.286   2.076   1.112
 1982SOL    HW1 7516   3.338   2.011   1.167
 1982SOL    HW2 7517   3.237   2.139   1.173
 1983SOL     OW 7518   2.863   1.896   1.154
 1983SOL    HW1 7519   2.800   1.824   1.123
 1983SOL    HW2 7520   2.956   1.860   1.154
 1984SOL     OW 7521   2.632   3.192   0.301
 1984SOL    HW1 7522   2.586   3.105   0.318
 1984SOL    HW2 7523   2.723   3.189   0.342
 1985SOL     OW 7524   2.480   3.429   1.284
 1985SOL    HW1 7525   2.475   3.511   1.341
 1985SOL    HW2 7526   2.569   3.426   1.239
 1986SOL     OW 7527   3.214   1.914   0.168
 1986SOL    HW1 7528   3.249   1.873   0.084
 1986SOL    HW2 7529   3.124   1.876   0.188
 1987SOL     OW 7530   3.162   2.315   0.691
 1987SOL    HW1 7531   3.103   2.395   0.695
 1987SOL    HW2 7532   3.177   2.280   0.784
 1988SOL     OW 7533   3.455   2.083   0.882
 1988SOL    HW1 7534   3.371   2.082   0.936
 1988SOL    HW2 7535   3.457   2.166   0.826
 1989SOL     OW 7536   1.901   2.939   0.300
 1989SOL    HW1 7537   2.000   2.928   0.291
 1989SOL    HW2 7538   1.861   2.853   0.332
 1990SOL     OW 7539   2.737   3.508   0.337
 1990SOL    HW1 7540   2.660   3.473   0.283
 1990SOL    HW2 7541   2.705   3.579   0.399
 1991SOL     OW 7542   2.092   2.490   1.975
 1991SOL    HW1 7543   1.999   2.488   2.012
 1991SOL    HW2 7544   2.093   2.451   1.883
 1992SOL     OW 7545   2.087   2.137   2.858
 1992SOL    HW1 7546   2.122   2.120   2.950
 1992SOL    HW2 7547   1.999   2.092   2.846
 1993SOL     OW 7548   1.881   2.230   2.509
 1993SOL    HW1 7549   1.799   2.273   2.548
 1993SOL    HW2 7550   1.853   2.157   2.446
 1994SOL     OW 7551   2.431   3.137   3.027
 1994SOL    HW1 7552   2.338   3.130   2.990
 1994SOL    HW2 7553   2.442   3.226   3.071
 1995SOL     OW 7554   3.417   3.373   2.565
 1995SOL    HW1 7555   3.360   3.357   2.646
 1995SOL    HW2 7556   3.358   3.383   2.485
 1996SOL     OW 7557   3.617   2.469   2.093
 1996SOL    HW1 7558   3.605   2.456   1.994
 1996SOL    HW2 7559   3.587   2.388   2.142
 1997SOL     OW 7560   2.630   3.006   2.885
 1997SOL    HW1 7561   2.552   3.023   2.945
 1997SOL    HW2 7562   2.664   3.093   2.849
 1998SOL     OW 7563   2.712   2.660   3.685
 1998SOL    HW1 7564   2.708   2.736   3.750
 1998SOL    HW2 7565   2.734   2.696   3.594
 1999SOL     OW 7566   2.548   3.023   3.665
 1999SOL    HW1 7567   2.608   3.102   3.679
 1999SOL    HW2 7568   2.462   3.054   3.624
 2000SOL     OW 7569   2.197   3.297   2.923
 2000SOL    HW1 7570   2.119   3.266   2.870
 2000SOL    HW2 7571   2.255   3.355   2.866
 2001SOL     OW 7572   3.322   3.367   3.201
 2001SOL    HW1 7573   3.346   3.461   3.227
 2001SOL    HW2 7574   3.306   3.313   3.283
 2002SOL     OW 7575   2.300   2.254   3.361
 2002SOL    HW1 7576   2.382   2.198   3.370
 2002SOL    HW2 7577   2.219   2.196   3.365
 2003SOL     OW 7578   2.093   3.575   2.345
 2003SOL    HW1 7579   2.127   3.652   2.399
 2003SOL    HW2 7580   2.137   3.575   2.255
 2004SOL     OW 7581   2.989   3.203   3.552
 2004SOL    HW1 7582   3.036   3.203   3.640
 2004SOL    HW2 7583   2.941   3.116   3.541
 2005SOL     OW 7584   2.092   3.296   2.400
 2005SOL    HW1 7585   2.066   3.392   2.400
 2005SOL    HW2 7586   2.021   3.242   2.445
 2006SOL     OW 7587   2.102   2.953   2.748
 2006SOL    HW1 7588   2.116   2.869   2.800
 2006SOL    HW2 7589   2.047   3.017   2.803
 2007SOL     OW 7590   2.482   3.648   3.301
 2007SOL    HW1 7591   2.390   3.631   3.336
 2007SOL    HW2 7592   2.510   3.740   3.327
 2008SOL     OW 7593   2.468   2.826   1.985
 2008SOL    HW1 7594   2.475   2.910   1.931
 2008SOL    HW2 7595   2.514   2.839   2.073
 2009SOL     OW 7596   3.456   1.976   3.342
 2009SOL    HW1 7597   3.438   2.043   3.270
 2009SOL    HW2 7598   3.453   2.022   3.431
 2010SOL     OW 7599   3.704   3.629   2.221
 2010SOL    HW1 7600   3.758   3.600   2.301
 2010SOL    HW2 7601   3.734   3.719   2.192
 2011SOL     OW 7602   1.889   3.458   1.979
 2011SOL    HW1 7603   1.870   3.362   2.000
 2011SOL    HW2 7604   1.856   3.516   2.054
 2012SOL     OW 7605   3.551   2.784   2.474
 2012SOL    HW1 7606   3.646   2.755   2.482
 2012SOL    HW2 7607   3.543   2.849   2.399
 2013SOL     OW 7608   3.503   2.970   2.294
 2013SOL    HW1 7609   3.589   2.972   2.242
 2013SOL    HW2 7610   3.517   3.017   2.382
 2014SOL     OW 7611   1.975   2.599   3.459
 2014SOL    HW1 7612   2.063   2.586   3.504
 2014SOL    HW2 7613   1.962   2.696   3.437
 2015SOL     OW 7614   2.475   3.227   2.588
 2015SOL    HW1 7615   2.426   3.140   2.597
 2015SOL    HW2 7616   2.452   3.270   2.501
 2016SOL     OW 7617   3.155   3.090   3.285
 2016SOL    HW1 7618   3.192   3.017   3.227
 2016SOL    HW2 7619   3.207   3.095   3.370
 2017SOL     OW 7620   2.671   1.866   2.364
 2017SOL    HW1 7621   2.711   1.957   2.355
 2017SOL    HW2 7622   2.571   1.874   2.370
 2018SOL     OW 7623   2.059   2.838   3.126
 2018SOL    HW1 7624   2.148   2.793   3.112
 2018SOL    HW2 7625   1.986   2.773   3.107
 2019SOL     OW 7626   3.387   2.861   2.052
 2019SOL    HW1 7627   3.324   2.785   2.065
 2019SOL    HW2 7628   3.435   2.879   2.138
 2020SOL     OW 7629   3.049   3.654   3.478
 2020SOL    HW1 7630   3.073   3.714   3.402
 2020SOL    HW2 7631   3.056   3.559   3.448
 2021SOL     OW 7632   2.179   2.113   3.663
 2021SOL    HW1 7633   2.250   2.184   3.669
 2021SOL    HW2 7634   2.091   2.152   3.691
 2022SOL     OW 7635   3.328   3.279   2.815
 2022SOL    HW1 7636   3.269   3.285   2.895
 2022SOL    HW2 7637   3.313   3.191   2.769
 2023SOL     OW 7638   3.529   3.576   2.434
 2023SOL    HW1 7639   3.488   3.553   2.346
 2023SOL    HW2 7640   3.511   3.502   2.499
 2024SOL     OW 7641   2.460   2.591   2.132
 2024SOL    HW1 7642   2.484   2.660   2.064
 2024SOL    HW2 7643   2.382   2.624   2.186
 2025SOL     OW 7644   3.438   3.524   2.169
 2025SOL    HW1 7645   3.527   3.570   2.172
 2025SOL    HW2 7646   3.417   3.500   2.074
 2026SOL     OW 7647   2.669   2.467   3.327
 2026SOL    HW1 7648   2.622   2.464   3.416
 2026SOL    HW2 7649   2.618   2.412   3.261
 2027SOL     OW 7650   3.256   2.331   3.536
 2027SOL    HW1 7651   3.236   2.374   3.624
 2027SOL    HW2 7652   3.334   2.269   3.545
 2028SOL     OW 7653   2.835   2.752   3.434
 2028SOL    HW1 7654   2.881   2.668   3.405
 2028SOL    HW2 7655   2.779   2.786   3.359
 2029SOL     OW 7656   2.853   2.272   3.104
 2029SOL    HW1 7657   2.776   2.306   3.158
 2029SOL    HW2 7658   2.819   2.221   3.025
 2030SOL     OW 7659   2.903   2.563   2.291
 2030SOL    HW1 7660   2.929   2.559   2.387
 2030SOL    HW2 7661   2.818   2.512   2.277
 2031SOL     OW 7662   1.938   2.673   2.651
 2031SOL    HW1 7663   2.037   2.661   2.660
 2031SOL    HW2 7664   1.914   2.768   2.672
 2032SOL     OW 7665   1.992   3.683   3.433
 2032SOL    HW1 7666   1.982   3.668   3.532
 2032SOL    HW2 7667   1.906   3.719   3.397
 2033SOL     OW 7668   2.727   2.210   2.057
 2033SOL    HW1 7669   2.786   2.273   2.008
 2033SOL    HW2 7670   2.746   2.116   2.028
 2034SOL     OW 7671   3.224   3.006   2.407
 2034SOL    HW1 7672   3.307   2.977   2.359
 2034SOL    HW2 7673   3.175   3.073   2.351
 2035SOL     OW 7674   2.412   2.058   2.747
 2035SOL    HW1 7675   2.407   2.053   2.847
 2035SOL    HW2 7676   2.414   2.154   2.718
 2036SOL     OW 7677   2.870   3.318   2.339
 2036SOL    HW1 7678   2.824   3.390   2.287
 2036SOL    HW2 7679   2.866   3.338   2.437
 2037SOL     OW 7680   2.213   3.663   2.715
 2037SOL    HW1 7681   2.263   3.577   2.721
 2037SOL    HW2 7682   2.278   3.740   2.712
 2038SOL     OW 7683   3.089   3.412   3.368
 2038SOL    HW1 7684   3.095   3.335   3.432
 2038SOL    HW2 7685   3.037   3.386   3.288
 2039SOL     OW 7686   2.323   3.128   3.589
 2039SOL    HW1 7687   2.273   3.129   3.503
 2039SOL    HW2 7688   2.260   3.110   3.665
 2040SOL     OW 7689   2.973   3.638   2.099
 2040SOL    HW1 7690   2.913   3.576   2.149
 2040SOL    HW2 7691   3.004   3.594   2.014
 2041SOL     OW 7692   2.064   2.147   3.360
 2041SOL    HW1 7693   1.984   2.207   3.347
 2041SOL    HW2 7694   2.054   2.098   3.446
 2042SOL     OW 7695   3.494   3.239   1.943
 2042SOL    HW1 7696   3.462   3.333   1.933
 2042SOL    HW2 7697   3.418   3.176   1.931
 2043SOL     OW 7698   2.326   3.605   2.185
 2043SOL    HW1 7699   2.359   3.644   2.271
 2043SOL    HW2 7700   2.402   3.598   2.120
 2044SOL     OW 7701   2.111   3.647   3.103
 2044SOL    HW1 7702   2.168   3.582   3.153
 2044SOL    HW2 7703   2.095   3.614   3.010
 2045SOL     OW 7704   2.802   3.560   2.766
 2045SOL    HW1 7705   2.882   3.503   2.787
 2045SOL    HW2 7706   2.753   3.520   2.689
 2046SOL     OW 7707   2.244   2.562   2.342
 2046SOL    HW1 7708   2.289   2.472   2.339
 2046SOL    HW2 7709   2.150   2.551   2.375
 2047SOL     OW 7710   3.409   2.084   3.591
 2047SOL    HW1 7711   3.404   2.121   3.683
 2047SOL    HW2 7712   3.337   2.015   3.579
 2048SOL     OW 7713   2.476   1.984   1.979
 2048SOL    HW1 7714   2.574   1.962   1.986
 2048SOL    HW2 7715   2.445   1.967   1.886
 2049SOL     OW 7716   2.643   2.126   3.611
 2049SOL    HW1 7717   2.710   2.065   3.654
 2049SOL    HW2 7718   2.570   2.145   3.676
 2050SOL     OW 7719   2.750   3.376   3.057
 2050SOL    HW1 7720   2.727   3.351   2.963
 2050SOL    HW2 7721   2.811   3.307   3.096
 2051SOL     OW 7722   3.213   2.452   3.295
 2051SOL    HW1 7723   3.241   2.409   3.380
 2051SOL    HW2 7724   3.238   2.548   3.296
 2052SOL     OW 7725   2.665   3.264   2.786
 2052SOL    HW1 7726   2.755   3.278   2.744
 2052SOL    HW2 7727   2.594   3.266   2.715
 2053SOL     OW 7728   2.401   1.926   2.374
 2053SOL    HW1 7729   2.320   1.927   2.432
 2053SOL    HW2 7730   2.404   2.009   2.319
 2054SOL     OW 7731   3.296   3.050   1.903
 2054SOL    HW1 7732   3.328   2.974   1.960
 2054SOL    HW2 7733   3.204   3.077   1.933
 2055SOL     OW 7734   2.159   1.897   2.033
 2055SOL    HW1 7735   2.208   1.981   2.012
 2055SOL    HW2 7736   2.221   1.832   2.078
 2056SOL     OW 7737   2.797   2.098   2.342
 2056SOL    HW1 7738   2.749   2.139   2.264
 2056SOL    HW2 7739   2.896   2.096   2.323
 2057SOL     OW 7740   3.089   3.432   2.655
 2057SOL    HW1 7741   3.110   3.506   2.590
 2057SOL    HW2 7742   3.157   3.432   2.728
 2058SOL     OW 7743   2.321   3.014   2.603
 2058SOL    HW1 7744   2.250   2.987   2.668
 2058SOL    HW2 7745   2.295   2.986   2.510
 2059SOL     OW 7746   3.133   3.659   2.453
 2059SOL    HW1 7747   3.177   3.723   2.389
 2059SOL    HW2 7748   3.083   3.711   2.523
 2060SOL     OW 7749   2.894   2.411   1.878
 2060SOL    HW1 7750   2.853   2.493   1.839
 2060SOL    HW2 7751   2.958   2.437   1.951
 2061SOL     OW 7752   1.940   2.418   3.248
 2061SOL    HW1 7753   2.032   2.417   3.207
 2061SOL    HW2 7754   1.934   2.492   3.315
 2062SOL     OW 7755   3.291   3.035   2.729
 2062SOL    HW1 7756   3.236   2.951   2.722
 2062SOL    HW2 7757   3.317   3.064   2.637
 2063SOL     OW 7758   3.719   2.695   2.239
 2063SOL    HW1 7759   3.761   2.631   2.303
 2063SOL    HW2 7760   3.681   2.644   2.161
 2064SOL     OW 7761   2.350   3.247   2.036
 2064SOL    HW1 7762   2.263   3.232   2.083
 2064SOL    HW2 7763   2.333   3.273   1.941
 2065SOL     OW 7764   3.526   3.142   2.519
 2065SOL    HW1 7765   3.625   3.150   2.533
 2065SOL    HW2 7766   3.481   3.226   2.550
 2066SOL     OW 7767   3.252   2.437   1.940
 2066SOL    HW1 7768   3.198   2.416   2.021
 2066SOL    HW2 7769   3.343   2.396   1.949
 2067SOL     OW 7770   2.389   2.118   2.190
 2067SOL    HW1 7771   2.416   2.059   2.115
 2067SOL    HW2 7772   2.389   2.213   2.159
 2068SOL     OW 7773   3.616   3.085   3.450
 2068SOL    HW1 7774   3.707   3.046   3.437
 2068SOL    HW2 7775   3.624   3.181   3.474
 2069SOL     OW 7776   2.926   3.209   3.202
 2069SOL    HW1 7777   2.846   3.186   3.257
 2069SOL    HW2 7778   3.009   3.183   3.251
 2070SOL     OW 7779   3.454   3.491   3.487
 2070SOL    HW1 7780   3.481   3.525   3.397
 2070SOL    HW2 7781   3.533   3.453   3.533
 2071SOL     OW 7782   2.973   3.057   2.962
 2071SOL    HW1 7783   2.933   3.101   3.043
 2071SOL    HW2 7784   2.932   3.094   2.879
 2072SOL     OW 7785   3.500   2.961   2.941
 2072SOL    HW1 7786   3.505   3.042   3.000
 2072SOL    HW2 7787   3.414   2.963   2.890
 2073SOL     OW 7788   2.842   2.978   3.581
 2073SOL    HW1 7789   2.743   2.984   3.591
 2073SOL    HW2 7790   2.865   2.898   3.525
 2074SOL     OW 7791   2.272   2.675   3.113
 2074SOL    HW1 7792   2.358   2.687   3.163
 2074SOL    HW2 7793   2.230   2.588   3.140
 2075SOL     OW 7794   2.229   2.962   2.363
 2075SOL    HW1 7795   2.222   3.045   2.307
 2075SOL    HW2 7796   2.233   2.882   2.303
 2076SOL     OW 7797   3.114   3.210   2.250
 2076SOL    HW1 7798   3.164   3.287   2.290
 2076SOL    HW2 7799   3.019   3.212   2.282
 2077SOL     OW 7800   3.134   3.307   3.004
 2077SOL    HW1 7801   3.181   3.320   3.091
 2077SOL    HW2 7802   3.068   3.233   3.013
 2078SOL     OW 7803   3.444   2.501   2.334
 2078SOL    HW1 7804   3.413   2.562   2.407
 2078SOL    HW2 7805   3.494   2.553   2.265
 2079SOL     OW 7806   2.216   3.372   3.191
 2079SOL    HW1 7807   2.195   3.328   3.104
 2079SOL    HW2 7808   2.313   3.398   3.194
 2080SOL     OW 7809   2.264   2.613   3.460
 2080SOL    HW1 7810   2.332   2.668   3.413
 2080SOL    HW2 7811   2.304   2.525   3.487
 2081SOL     OW 7812   3.449   2.641   3.532
 2081SOL    HW1 7813   3.357   2.679   3.527
 2081SOL    HW2 7814   3.509   2.688   3.467
 2082SOL     OW 7815   2.875   1.967   3.632
 2082SOL    HW1 7816   2.881   2.052   3.580
 2082SOL    HW2 7817   2.907   1.891   3.575
 2083SOL     OW 7818   2.435   2.732   2.891
 2083SOL    HW1 7819   2.479   2.821   2.882
 2083SOL    HW2 7820   2.372   2.732   2.968
 2084SOL     OW 7821   3.071   2.387   2.137
 2084SOL    HW1 7822   3.084   2.303   2.191
 2084SOL    HW2 7823   3.042   2.461   2.197
 2085SOL     OW 7824   2.169   2.075   3.093
 2085SOL    HW1 7825   2.146   2.112   3.183
 2085SOL    HW2 7826   2.139   1.980   3.087
 2086SOL     OW 7827   1.899   3.172   3.144
 2086SOL    HW1 7828   1.952   3.123   3.212
 2086SOL    HW2 7829   1.921   3.270   3.149
 2087SOL     OW 7830   3.590   2.797   3.716
 2087SOL    HW1 7831   3.544   2.790   3.627
 2087SOL    HW2 7832   3.528   2.841   3.782
 2088SOL     OW 7833   2.169   1.925   2.480
 2088SOL    HW1 7834   2.158   2.019   2.513
 2088SOL    HW2 7835   2.164   1.862   2.557
 2089SOL     OW 7836   3.484   2.229   2.236
 2089SOL    HW1 7837   3.486   2.153   2.300
 2089SOL    HW2 7838   3.436   2.306   2.276
 2090SOL     OW 7839   2.885   2.628   2.828
 2090SOL    HW1 7840   2.900   2.649   2.924
 2090SOL    HW2 7841   2.855   2.533   2.819
 2091SOL     OW 7842   2.842   3.435   3.562
 2091SOL    HW1 7843   2.822   3.479   3.474
 2091SOL    HW2 7844   2.881   3.344   3.546
 2092SOL     OW 7845   3.721   3.380   3.467
 2092SOL    HW1 7846   3.735   3.407   3.372
 2092SOL    HW2 7847   3.804   3.402   3.520
 2093SOL     OW 7848   2.212   2.760   3.666
 2093SOL    HW1 7849   2.288   2.804   3.714
 2093SOL    HW2 7850   2.247   2.713   3.584
 2094SOL     OW 7851   3.165   2.700   1.904
 2094SOL    HW1 7852   3.199   2.607   1.919
 2094SOL    HW2 7853   3.183   2.727   1.809
 2095SOL     OW 7854   2.930   3.195   2.711
 2095SOL    HW1 7855   2.937   3.111   2.656
 2095SOL    HW2 7856   2.992   3.264   2.675
 2096SOL     OW 7857   2.181   2.672   2.811
 2096SOL    HW1 7858   2.274   2.708   2.816
 2096SOL    HW2 7859   2.175   2.587   2.863
 2097SOL     OW 7860   2.201   2.371   2.868
 2097SOL    HW1 7861   2.149   2.288   2.851
 2097SOL    HW2 7862   2.278   2.376   2.804
 2098SOL     OW 7863   3.000   2.242   3.540
 2098SOL    HW1 7864   2.955   2.305   3.604
 2098SOL    HW2 7865   3.093   2.273   3.523
 2099SOL     OW 7866   3.022   2.069   3.339
 2099SOL    HW1 7867   3.022   2.133   3.416
 2099SOL    HW2 7868   3.050   2.117   3.256
 2100SOL     OW 7869   1.870   3.188   2.062
 2100SOL    HW1 7870   1.777   3.209   2.031
 2100SOL    HW2 7871   1.880   3.089   2.075
 2101SOL     OW 7872   1.950   3.663   2.789
 2101SOL    HW1 7873   1.908   3.577   2.762
 2101SOL    HW2 7874   2.044   3.666   2.755
 2102SOL     OW 7875   2.366   3.430   2.772
 2102SOL    HW1 7876   2.432   3.504   2.781
 2102SOL    HW2 7877   2.410   3.351   2.730
 2103SOL     OW 7878   1.902   2.406   2.976
 2103SOL    HW1 7879   1.987   2.373   2.935
 2103SOL    HW2 7880   1.915   2.421   3.074
 2104SOL     OW 7881   2.051   2.382   3.584
 2104SOL    HW1 7882   2.110   2.342   3.514
 2104SOL    HW2 7883   1.993   2.453   3.543
 2105SOL     OW 7884   3.231   2.812   3.522
 2105SOL    HW1 7885   3.270   2.901   3.542
 2105SOL    HW2 7886   3.241   2.792   3.425
 2106SOL     OW 7887   2.677   2.434   2.187
 2106SOL    HW1 7888   2.684   2.345   2.141
 2106SOL    HW2 7889   2.583   2.468   2.179
 2107SOL     OW 7890   3.519   2.466   3.068
 2107SOL    HW1 7891   3.481   2.397   3.130
 2107SOL    HW2 7892   3.601   2.430   3.024
 2108SOL     OW 7893   2.114   3.426   3.606
 2108SOL    HW1 7894   2.084   3.483   3.682
 2108SOL    HW2 7895   2.107   3.329   3.632
 2109SOL     OW 7896   2.533   2.326   3.131
 2109SOL    HW1 7897   2.499   2.237   3.101
 2109SOL    HW2 7898   2.559   2.380   3.051
 2110SOL     OW 7899   2.792   3.540   3.327
 2110SOL    HW1 7900   2.768   3.522   3.232
 2110SOL    HW2 7901   2.822   3.634   3.337
 2111SOL     OW 7902   2.335   2.362   2.053
 2111SOL    HW1 7903   2.396   2.442   2.057
 2111SOL    HW2 7904   2.240   2.393   2.060
 2112SOL     OW 7905   2.021   2.999   3.328
 2112SOL    HW1 7906   2.043   2.938   3.404
 2112SOL    HW2 7907   2.031   2.950   3.242
 2113SOL     OW 7908   3.164   2.717   2.171
 2113SOL    HW1 7909   3.078   2.686   2.213
 2113SOL    HW2 7910   3.160   2.703   2.072
 2114SOL     OW 7911   3.621   3.609   3.016
 2114SOL    HW1 7912   3.682   3.639   2.943
 2114SOL    HW2 7913   3.583   3.520   2.994
 2115SOL     OW 7914   3.114   3.593   2.990
 2115SOL    HW1 7915   3.198   3.598   2.936
 2115SOL    HW2 7916   3.091   3.497   3.008
 2116SOL     OW 7917   1.945   3.120   2.884
 2116SOL    HW1 7918   1.940   3.119   2.984
 2116SOL    HW2 7919   1.862   3.079   2.846
 2117SOL     OW 7920   2.550   3.524   3.578
 2117SOL    HW1 7921   2.494   3.605   3.587
 2117SOL    HW2 7922   2.602   3.528   3.492
 2118SOL     OW 7923   3.588   1.997   2.385
 2118SOL    HW1 7924   3.661   1.980   2.318
 2118SOL    HW2 7925   3.557   1.910   2.423
 2119SOL     OW 7926   3.250   3.435   2.339
 2119SOL    HW1 7927   3.317   3.447   2.265
 2119SOL    HW2 7928   3.210   3.524   2.362
 2120SOL     OW 7929   1.992   3.656   3.713
 2120SOL    HW1 7930   1.951   3.582   3.766
 2120SOL    HW2 7931   2.056   3.707   3.771
 2121SOL     OW 7932   3.142   2.789   2.534
 2121SOL    HW1 7933   3.202   2.708   2.536
 2121SOL    HW2 7934   3.182   2.858   2.474
 2122SOL     OW 7935   2.692   3.135   3.284
 2122SOL    HW1 7936   2.687   3.168   3.379
 2122SOL    HW2 7937   2.606   3.154   3.238
 2123SOL     OW 7938   2.534   3.478   2.016
 2123SOL    HW1 7939   2.543   3.488   1.917
 2123SOL    HW2 7940   2.494   3.389   2.037
 2124SOL     OW 7941   3.512   3.582   3.256
 2124SOL    HW1 7942   3.565   3.592   3.172
 2124SOL    HW2 7943   3.485   3.672   3.290
 2125SOL     OW 7944   3.703   2.037   2.825
 2125SOL    HW1 7945   3.742   1.952   2.789
 2125SOL    HW2 7946   3.605   2.039   2.806
 2126SOL     OW 7947   3.056   3.474   1.893
 2126SOL    HW1 7948   3.062   3.381   1.930
 2126SOL    HW2 7949   2.997   3.474   1.813
 2127SOL     OW 7950   2.684   2.864   3.234
 2127SOL    HW1 7951   2.724   2.863   3.142
 2127SOL    HW2 7952   2.694   2.956   3.274
 2128SOL     OW 7953   2.778   2.772   2.153
 2128SOL    HW1 7954   2.841   2.810   2.085
 2128SOL    HW2 7955   2.818   2.689   2.192
 2129SOL     OW 7956   3.366   3.469   1.906
 2129SOL    HW1 7957   3.274   3.506   1.913
 2129SOL    HW2 7958   3.404   3.489   1.816
 2130SOL     OW 7959   2.234   3.150   3.352
 2130SOL    HW1 7960   2.221   3.243   3.318
 2130SOL    HW2 7961   2.150   3.098   3.339
 2131SOL     OW 7962   3.476   3.154   3.151
 2131SOL    HW1 7963   3.536   3.157   3.231
 2131SOL    HW2 7964   3.401   3.218   3.164
 2132SOL     OW 7965   2.901   2.960   2.558
 2132SOL    HW1 7966   2.831   2.913   2.612
 2132SOL    HW2 7967   2.960   2.892   2.515
 2133SOL     OW 7968   2.876   2.098   2.833
 2133SOL    HW1 7969   2.868   2.062   2.740
 2133SOL    HW2 7970   2.874   2.022   2.898
 2134SOL     OW 7971   2.452   3.349   2.353
 2134SOL    HW1 7972   2.494   3.291   2.283
 2134SOL    HW2 7973   2.408   3.428   2.309
 2135SOL     OW 7974   3.571   2.247   3.243
 2135SOL    HW1 7975   3.644   2.316   3.247
 2135SOL    HW2 7976   3.599   2.172   3.184
 2136SOL     OW 7977   2.117   3.210   2.152
 2136SOL    HW1 7978   2.021   3.211   2.125
 2136SOL    HW2 7979   2.129   3.263   2.236
 2137SOL     OW 7980   1.967   2.875   3.588
 2137SOL    HW1 7981   1.890   2.842   3.642
 2137SOL    HW2 7982   2.052   2.845   3.630
 2138SOL     OW 7983   2.534   2.065   3.351
 2138SOL    HW1 7984   2.624   2.049   3.311
 2138SOL    HW2 7985   2.542   2.070   3.450
 2139SOL     OW 7986   1.937   2.207   1.895
 2139SOL    HW1 7987   1.845   2.179   1.866
 2139SOL    HW2 7988   1.968   2.284   1.839
 2140SOL     OW 7989   1.934   2.028   2.180
 2140SOL    HW1 7990   1.917   2.111   2.126
 2140SOL    HW2 7991   2.024   1.991   2.158
 2141SOL     OW 7992   3.045   3.197   1.981
 2141SOL    HW1 7993   2.946   3.186   1.983
 2141SOL    HW2 7994   3.079   3.212   2.074
 2142SOL     OW 7995   2.475   2.704   3.293
 2142SOL    HW1 7996   2.531   2.785   3.276
 2142SOL    HW2 7997   2.534   2.624   3.296
 2143SOL     OW 7998   3.355   3.629   2.821
 2143SOL    HW1 7999   3.388   3.693   2.752
 2143SOL    HW2 8000   3.421   3.623   2.896
 2144SOL     OW 8001   2.578   2.427   3.570
 2144SOL    HW1 8002   2.597   2.492   3.644
 2144SOL    HW2 8003   2.638   2.347   3.579
 2145SOL     OW 8004   3.312   3.082   3.495
 2145SOL    HW1 8005   3.303   3.072   3.594
 2145SOL    HW2 8006   3.408   3.075   3.469
 2146SOL     OW 8007   2.252   3.603   3.422
 2146SOL    HW1 8008   2.161   3.644   3.420
 2146SOL    HW2 8009   2.245   3.509   3.454
 2147SOL     OW 8010   3.536   2.745   3.116
 2147SOL    HW1 8011   3.509   2.656   3.079
 2147SOL    HW2 8012   3.537   2.813   3.043
 2148SOL     OW 8013   3.087   2.187   2.311
 2148SOL    HW1 8014   3.152   2.113   2.300
 2148SOL    HW2 8015   3.107   2.237   2.395
 2149SOL     OW 8016   3.639   2.204   3.504
 2149SOL    HW1 8017   3.622   2.235   3.410
 2149SOL    HW2 8018   3.555   2.167   3.542
 2150SOL     OW 8019   3.592   2.796   3.379
 2150SOL    HW1 8020   3.630   2.887   3.394
 2150SOL    HW2 8021   3.584   2.779   3.280
 2151SOL     OW 8022   2.721   3.236   1.878
 2151SOL    HW1 8023   2.675   3.251   1.966
 2151SOL    HW2 8024   2.765   3.321   1.848
 2152SOL     OW 8025   2.523   3.652   2.815
 2152SOL    HW1 8026   2.477   3.740   2.802
 2152SOL    HW2 8027   2.622   3.664   2.808
 2153SOL     OW 8028   2.945   2.846   1.949
 2153SOL    HW1 8029   2.922   2.899   1.867
 2153SOL    HW2 8030   3.026   2.790   1.930
 2154SOL     OW 8031   3.723   3.431   2.713
 2154SOL    HW1 8032   3.652   3.419   2.643
 2154SOL    HW2 8033   3.724   3.352   2.773
 2155SOL     OW 8034   2.083   3.176   3.706
 2155SOL    HW1 8035   2.018   3.103   3.685
 2155SOL    HW2 8036   2.087   3.190   3.804
 2156SOL     OW 8037   1.941   3.102   2.515
 2156SOL    HW1 8038   1.940   3.055   2.603
 2156SOL    HW2 8039   2.023   3.074   2.464
 2157SOL     OW 8040   2.534   3.253   3.486
 2157SOL    HW1 8041   2.456   3.203   3.524
 2157SOL    HW2 8042   2.531   3.348   3.517
 2158SOL     OW 8043   3.686   2.054   3.089
 2158SOL    HW1 8044   3.682   1.964   3.133
 2158SOL    HW2 8045   3.689   2.043   2.990
 2159SOL     OW 8046   3.567   3.349   2.966
 2159SOL    HW1 8047   3.474   3.324   2.939
 2159SOL    HW2 8048   3.593   3.299   3.048
 2160SOL     OW 8049   2.179   2.409   3.142
 2160SOL    HW1 8050   2.217   2.350   3.214
 2160SOL    HW2 8051   2.219   2.383   3.054
 2161SOL     OW 8052   2.674   3.448   2.549
 2161SOL    HW1 8053   2.706   3.458   2.455
 2161SOL    HW2 8054   2.595   3.386   2.551
 2162SOL     OW 8055   3.286   2.076   2.974
 2162SOL    HW1 8056   3.338   2.011   3.029
 2162SOL    HW2 8057   3.237   2.139   3.035
 2163SOL     OW 8058   2.632   3.192   2.163
 2163SOL    HW1 8059   2.586   3.105   2.180
 2163SOL    HW2 8060   2.723   3.189   2.204
 2164SOL     OW 8061   2.480   3.429   3.146
 2164SOL    HW1 8062   2.475   3.511   3.203
 2164SOL    HW2 8063   2.569   3.426   3.101
 2165SOL     OW 8064   3.214   1.914   2.030
 2165SOL    HW1 8065   3.249   1.873   1.946
 2165SOL    HW2 8066   3.124   1.876   2.050
 2166SOL     OW 8067   1.901   2.939   2.162
 2166SOL    HW1 8068   2.000   2.928   2.153
 2166SOL    HW2 8069   1.861   2.853   2.194
 2167SOL     OW 8070   2.737   3.508   2.199
 2167SOL    HW1 8071   2.660   3.473   2.145
 2167SOL    HW2 8072   2.705   3.579   2.261
 2168SOL     OW 8073   2.092   2.490   3.837
 2168SOL    HW1 8074   1.999   2.488   3.874
 2168SOL    HW2 8075   2.093   2.451   3.745
 2169SOL     OW 8076   2.087   2.137   4.720
 2169SOL    HW1 8077   2.122   2.120   4.812
 2169SOL    HW2 8078   1.999   2.092   4.708
 2170SOL     OW 8079   1.881   2.230   4.371
 2170SOL    HW1 8080   1.799   2.273   4.410
 2170SOL    HW2 8081   1.853   2.157   4.308
 2171SOL     OW 8082   3.417   3.373   4.427
 2171SOL    HW1 8083   3.360   3.357   4.508
 2171SOL    HW2 8084   3.358   3.383   4.347
 2172SOL     OW 8085   2.997   2.565   4.441
 2172SOL    HW1 8086   3.054   2.643   4.416
 2172SOL    HW2 8087   2.937   2.591   4.517
 2173SOL     OW 8088   2.630   3.006   4.747
 2173SOL    HW1 8089   2.552   3.023   4.807
 2173SOL    HW2 8090   2.664   3.093   4.711
 2174SOL     OW 8091   2.547   2.874   4.389
 2174SOL    HW1 8092   2.616   2.858   4.459
 2174SOL    HW2 8093   2.474   2.931   4.427
 2175SOL     OW 8094   3.465   2.309   4.461
 2175SOL    HW1 8095   3.391   2.355   4.411
 2175SOL    HW2 8096   3.516   2.377   4.514
 2176SOL     OW 8097   2.482   3.648   5.163
 2176SOL    HW1 8098   2.390   3.631   5.198
 2176SOL    HW2 8099   2.510   3.740   5.189
 2177SOL     OW 8100   2.468   2.826   3.847
 2177SOL    HW1 8101   2.475   2.910   3.793
 2177SOL    HW2 8102   2.514   2.839   3.935
 2178SOL     OW 8103   1.984   2.505   4.287
 2178SOL    HW1 8104   1.939   2.417   4.304
 2178SOL    HW2 8105   1.983   2.559   4.371
 2179SOL     OW 8106   3.704   3.629   4.083
 2179SOL    HW1 8107   3.758   3.600   4.163
 2179SOL    HW2 8108   3.734   3.719   4.054
 2180SOL     OW 8109   3.551   2.784   4.336
 2180SOL    HW1 8110   3.646   2.755   4.344
 2180SOL    HW2 8111   3.543   2.849   4.261
 2181SOL     OW 8112   3.503   2.970   4.156
 2181SOL    HW1 8113   3.589   2.972   4.104
 2181SOL    HW2 8114   3.517   3.017   4.244
 2182SOL     OW 8115   2.671   1.866   4.226
 2182SOL    HW1 8116   2.711   1.957   4.217
 2182SOL    HW2 8117   2.571   1.874   4.232
 2183SOL     OW 8118   3.328   3.279   4.677
 2183SOL    HW1 8119   3.269   3.285   4.757
 2183SOL    HW2 8120   3.313   3.191   4.631
 2184SOL     OW 8121   3.529   3.576   4.296
 2184SOL    HW1 8122   3.488   3.553   4.208
 2184SOL    HW2 8123   3.511   3.502   4.361
 2185SOL     OW 8124   3.143   2.207   4.668
 2185SOL    HW1 8125   3.057   2.157   4.655
 2185SOL    HW2 8126   3.205   2.153   4.724
 2186SOL     OW 8127   3.438   3.524   4.031
 2186SOL    HW1 8128   3.527   3.570   4.034
 2186SOL    HW2 8129   3.417   3.500   3.936
 2187SOL     OW 8130   2.853   2.272   4.966
 2187SOL    HW1 8131   2.776   2.306   5.020
 2187SOL    HW2 8132   2.819   2.221   4.887
 2188SOL     OW 8133   2.903   2.563   4.153
 2188SOL    HW1 8134   2.929   2.559   4.249
 2188SOL    HW2 8135   2.818   2.512   4.139
 2189SOL     OW 8136   1.938   2.673   4.513
 2189SOL    HW1 8137   2.037   2.661   4.522
 2189SOL    HW2 8138   1.914   2.768   4.534
 2190SOL     OW 8139   2.727   2.210   3.919
 2190SOL    HW1 8140   2.786   2.273   3.870
 2190SOL    HW2 8141   2.746   2.116   3.890
 2191SOL     OW 8142   3.224   3.006   4.269
 2191SOL    HW1 8143   3.307   2.977   4.221
 2191SOL    HW2 8144   3.175   3.073   4.213
 2192SOL     OW 8145   2.412   2.058   4.609
 2192SOL    HW1 8146   2.407   2.053   4.709
 2192SOL    HW2 8147   2.414   2.154   4.580
 2193SOL     OW 8148   2.870   3.318   4.201
 2193SOL    HW1 8149   2.824   3.390   4.149
 2193SOL    HW2 8150   2.866   3.338   4.299
 2194SOL     OW 8151   2.213   3.663   4.577
 2194SOL    HW1 8152   2.263   3.577   4.583
 2194SOL    HW2 8153   2.278   3.740   4.574
 2195SOL     OW 8154   3.657   2.928   4.597
 2195SOL    HW1 8155   3.595   2.913   4.521
 2195SOL    HW2 8156   3.605   2.939   4.682
 2196SOL     OW 8157   2.183   2.805   3.966
 2196SOL    HW1 8158   2.265   2.844   3.924
 2196SOL    HW2 8159   2.156   2.723   3.917
 2197SOL     OW 8160   3.320   2.597   4.452
 2197SOL    HW1 8161   3.315   2.532   4.527
 2197SOL    HW2 8162   3.400   2.656   4.465
 2198SOL     OW 8163   2.973   3.638   3.961
 2198SOL    HW1 8164   2.913   3.576   4.011
 2198SOL    HW2 8165   3.004   3.594   3.876
 2199SOL     OW 8166   3.494   3.239   3.805
 2199SOL    HW1 8167   3.462   3.333   3.795
 2199SOL    HW2 8168   3.418   3.176   3.793
 2200SOL     OW 8169   3.262   1.969   4.150
 2200SOL    HW1 8170   3.238   1.932   4.060
 2200SOL    HW2 8171   3.361   1.985   4.154
 2201SOL     OW 8172   2.111   3.647   4.965
 2201SOL    HW1 8173   2.168   3.582   5.015
 2201SOL    HW2 8174   2.095   3.614   4.872
 2202SOL     OW 8175   2.802   3.560   4.628
 2202SOL    HW1 8176   2.882   3.503   4.649
 2202SOL    HW2 8177   2.753   3.520   4.551
 2203SOL     OW 8178   2.476   1.984   3.841
 2203SOL    HW1 8179   2.574   1.962   3.848
 2203SOL    HW2 8180   2.445   1.967   3.748
 2204SOL     OW 8181   2.784   2.365   4.623
 2204SOL    HW1 8182   2.759   2.356   4.527
 2204SOL    HW2 8183   2.832   2.283   4.654
 2205SOL     OW 8184   2.401   1.926   4.236
 2205SOL    HW1 8185   2.320   1.927   4.294
 2205SOL    HW2 8186   2.404   2.009   4.181
 2206SOL     OW 8187   3.296   3.050   3.765
 2206SOL    HW1 8188   3.328   2.974   3.822
 2206SOL    HW2 8189   3.204   3.077   3.795
 2207SOL     OW 8190   2.159   1.897   3.895
 2207SOL    HW1 8191   2.208   1.981   3.874
 2207SOL    HW2 8192   2.221   1.832   3.940
 2208SOL     OW 8193   2.797   2.098   4.204
 2208SOL    HW1 8194   2.749   2.139   4.126
 2208SOL    HW2 8195   2.896   2.096   4.185
 2209SOL     OW 8196   3.089   3.432   4.517
 2209SOL    HW1 8197   3.110   3.506   4.452
 2209SOL    HW2 8198   3.157   3.432   4.590
 2210SOL     OW 8199   3.133   3.659   4.315
 2210SOL    HW1 8200   3.177   3.723   4.251
 2210SOL    HW2 8201   3.083   3.711   4.385
 2211SOL     OW 8202   2.894   2.411   3.740
 2211SOL    HW1 8203   2.853   2.493   3.701
 2211SOL    HW2 8204   2.958   2.437   3.813
 2212SOL     OW 8205   2.423   2.084   4.871
 2212SOL    HW1 8206   2.461   2.000   4.908
 2212SOL    HW2 8207   2.335   2.103   4.915
 2213SOL     OW 8208   2.728   2.316   4.366
 2213SOL    HW1 8209   2.696   2.388   4.304
 2213SOL    HW2 8210   2.752   2.235   4.313
 2214SOL     OW 8211   2.879   1.901   4.477
 2214SOL    HW1 8212   2.807   1.906   4.408
 2214SOL    HW2 8213   2.855   1.832   4.546
 2215SOL     OW 8214   3.291   3.035   4.591
 2215SOL    HW1 8215   3.236   2.951   4.584
 2215SOL    HW2 8216   3.317   3.064   4.499
 2216SOL     OW 8217   3.328   2.452   4.716
 2216SOL    HW1 8218   3.298   2.357   4.723
 2216SOL    HW2 8219   3.401   2.468   4.782
 2217SOL     OW 8220   2.350   3.247   3.898
 2217SOL    HW1 8221   2.263   3.232   3.945
 2217SOL    HW2 8222   2.333   3.273   3.803
 2218SOL     OW 8223   3.526   3.142   4.381
 2218SOL    HW1 8224   3.625   3.150   4.395
 2218SOL    HW2 8225   3.481   3.226   4.412
 2219SOL     OW 8226   2.389   2.118   4.052
 2219SOL    HW1 8227   2.416   2.059   3.977
 2219SOL    HW2 8228   2.389   2.213   4.021
 2220SOL     OW 8229   2.973   3.057   4.824
 2220SOL    HW1 8230   2.933   3.101   4.905
 2220SOL    HW2 8231   2.932   3.094   4.741
 2221SOL     OW 8232   3.500   2.961   4.803
 2221SOL    HW1 8233   3.505   3.042   4.862
 2221SOL    HW2 8234   3.414   2.963   4.752
 2222SOL     OW 8235   2.567   2.912   4.092
 2222SOL    HW1 8236   2.553   2.919   4.191
 2222SOL    HW2 8237   2.651   2.861   4.074
 2223SOL     OW 8238   3.136   2.248   4.986
 2223SOL    HW1 8239   3.157   2.322   5.050
 2223SOL    HW2 8240   3.047   2.265   4.943
 2224SOL     OW 8241   2.428   2.399   4.589
 2224SOL    HW1 8242   2.440   2.465   4.515
 2224SOL    HW2 8243   2.474   2.433   4.672
 2225SOL     OW 8244   3.114   3.210   4.112
 2225SOL    HW1 8245   3.164   3.287   4.152
 2225SOL    HW2 8246   3.019   3.212   4.144
 2226SOL     OW 8247   3.134   3.307   4.866
 2226SOL    HW1 8248   3.181   3.320   4.953
 2226SOL    HW2 8249   3.068   3.233   4.875
 2227SOL     OW 8250   3.444   2.501   4.196
 2227SOL    HW1 8251   3.413   2.562   4.269
 2227SOL    HW2 8252   3.494   2.553   4.127
 2228SOL     OW 8253   2.216   3.372   5.053
 2228SOL    HW1 8254   2.195   3.328   4.966
 2228SOL    HW2 8255   2.313   3.398   5.056
 2229SOL     OW 8256   2.435   2.732   4.753
 2229SOL    HW1 8257   2.479   2.821   4.744
 2229SOL    HW2 8258   2.372   2.732   4.830
 2230SOL     OW 8259   3.222   2.724   4.769
 2230SOL    HW1 8260   3.147   2.724   4.703
 2230SOL    HW2 8261   3.259   2.632   4.778
 2231SOL     OW 8262   3.071   2.387   3.999
 2231SOL    HW1 8263   3.084   2.303   4.053
 2231SOL    HW2 8264   3.042   2.461   4.059
 2232SOL     OW 8265   1.899   3.172   5.006
 2232SOL    HW1 8266   1.952   3.123   5.074
 2232SOL    HW2 8267   1.921   3.270   5.011
 2233SOL     OW 8268   2.594   2.496   4.788
 2233SOL    HW1 8269   2.653   2.470   4.712
 2233SOL    HW2 8270   2.566   2.592   4.777
 2234SOL     OW 8271   2.169   1.925   4.342
 2234SOL    HW1 8272   2.158   2.019   4.375
 2234SOL    HW2 8273   2.164   1.862   4.419
 2235SOL     OW 8274   3.484   2.229   4.098
 2235SOL    HW1 8275   3.486   2.153   4.162
 2235SOL    HW2 8276   3.436   2.306   4.138
 2236SOL     OW 8277   2.885   2.628   4.690
 2236SOL    HW1 8278   2.900   2.649   4.786
 2236SOL    HW2 8279   2.855   2.533   4.681
 2237SOL     OW 8280   3.402   2.136   3.849
 2237SOL    HW1 8281   3.341   2.061   3.872
 2237SOL    HW2 8282   3.424   2.188   3.932
 2238SOL     OW 8283   3.165   2.700   3.766
 2238SOL    HW1 8284   3.199   2.607   3.781
 2238SOL    HW2 8285   3.183   2.727   3.671
 2239SOL     OW 8286   2.930   3.195   4.573
 2239SOL    HW1 8287   2.937   3.111   4.518
 2239SOL    HW2 8288   2.992   3.264   4.537
 2240SOL     OW 8289   2.201   2.371   4.730
 2240SOL    HW1 8290   2.149   2.288   4.713
 2240SOL    HW2 8291   2.278   2.376   4.666
 2241SOL     OW 8292   3.022   2.069   5.201
 2241SOL    HW1 8293   3.022   2.133   5.278
 2241SOL    HW2 8294   3.050   2.117   5.118
 2242SOL     OW 8295   1.870   3.188   3.924
 2242SOL    HW1 8296   1.777   3.209   3.893
 2242SOL    HW2 8297   1.880   3.089   3.937
 2243SOL     OW 8298   2.864   2.658   4.962
 2243SOL    HW1 8299   2.905   2.626   5.048
 2243SOL    HW2 8300   2.768   2.631   4.959
 2244SOL     OW 8301   1.902   2.406   4.838
 2244SOL    HW1 8302   1.987   2.373   4.797
 2244SOL    HW2 8303   1.915   2.421   4.936
 2245SOL     OW 8304   2.677   2.434   4.049
 2245SOL    HW1 8305   2.684   2.345   4.003
 2245SOL    HW2 8306   2.583   2.468   4.041
 2246SOL     OW 8307   3.519   2.466   4.930
 2246SOL    HW1 8308   3.481   2.397   4.992
 2246SOL    HW2 8309   3.601   2.430   4.886
 2247SOL     OW 8310   2.533   2.326   4.993
 2247SOL    HW1 8311   2.499   2.237   4.963
 2247SOL    HW2 8312   2.559   2.380   4.913
 2248SOL     OW 8313   2.792   3.540   5.189
 2248SOL    HW1 8314   2.768   3.522   5.094
 2248SOL    HW2 8315   2.822   3.634   5.199
 2249SOL     OW 8316   2.335   2.362   3.915
 2249SOL    HW1 8317   2.396   2.442   3.919
 2249SOL    HW2 8318   2.240   2.393   3.922
 2250SOL     OW 8319   3.209   2.921   4.958
 2250SOL    HW1 8320   3.233   2.858   4.884
 2250SOL    HW2 8321   3.119   2.961   4.940
 2251SOL     OW 8322   3.164   2.717   4.033
 2251SOL    HW1 8323   3.078   2.686   4.075
 2251SOL    HW2 8324   3.160   2.703   3.934
 2252SOL     OW 8325   3.621   3.609   4.878
 2252SOL    HW1 8326   3.682   3.639   4.805
 2252SOL    HW2 8327   3.583   3.520   4.856
 2253SOL     OW 8328   3.114   3.593   4.852
 2253SOL    HW1 8329   3.198   3.598   4.798
 2253SOL    HW2 8330   3.091   3.497   4.870
 2254SOL     OW 8331   1.945   3.120   4.746
 2254SOL    HW1 8332   1.940   3.119   4.846
 2254SOL    HW2 8333   1.862   3.079   4.708
 2255SOL     OW 8334   3.588   1.997   4.247
 2255SOL    HW1 8335   3.661   1.980   4.180
 2255SOL    HW2 8336   3.557   1.910   4.285
 2256SOL     OW 8337   3.250   3.435   4.201
 2256SOL    HW1 8338   3.317   3.447   4.127
 2256SOL    HW2 8339   3.210   3.524   4.224
 2257SOL     OW 8340   3.142   2.789   4.396
 2257SOL    HW1 8341   3.202   2.708   4.398
 2257SOL    HW2 8342   3.182   2.858   4.336
 2258SOL     OW 8343   2.534   3.478   3.878
 2258SOL    HW1 8344   2.543   3.488   3.779
 2258SOL    HW2 8345   2.494   3.389   3.899
 2259SOL     OW 8346   3.512   3.582   5.118
 2259SOL    HW1 8347   3.565   3.592   5.034
 2259SOL    HW2 8348   3.485   3.672   5.152
 2260SOL     OW 8349   3.703   2.037   4.687
 2260SOL    HW1 8350   3.742   1.952   4.651
 2260SOL    HW2 8351   3.605   2.039   4.668
 2261SOL     OW 8352   2.125   2.188   4.444
 2261SOL    HW1 8353   2.046   2.239   4.410
 2261SOL    HW2 8354   2.116   2.173   4.542
 2262SOL     OW 8355   3.056   3.474   3.755
 2262SOL    HW1 8356   3.062   3.381   3.792
 2262SOL    HW2 8357   2.997   3.474   3.675
 2263SOL     OW 8358   2.684   2.864   5.096
 2263SOL    HW1 8359   2.724   2.863   5.004
 2263SOL    HW2 8360   2.694   2.956   5.136
 2264SOL     OW 8361   2.778   2.772   4.015
 2264SOL    HW1 8362   2.841   2.810   3.947
 2264SOL    HW2 8363   2.818   2.689   4.054
 2265SOL     OW 8364   3.366   3.469   3.768
 2265SOL    HW1 8365   3.274   3.506   3.775
 2265SOL    HW2 8366   3.404   3.489   3.678
 2266SOL     OW 8367   2.901   2.960   4.420
 2266SOL    HW1 8368   2.831   2.913   4.474
 2266SOL    HW2 8369   2.960   2.892   4.377
 2267SOL     OW 8370   2.876   2.098   4.695
 2267SOL    HW1 8371   2.868   2.062   4.602
 2267SOL    HW2 8372   2.874   2.022   4.760
 2268SOL     OW 8373   3.571   2.247   5.105
 2268SOL    HW1 8374   3.644   2.316   5.109
 2268SOL    HW2 8375   3.599   2.172   5.046
 2269SOL     OW 8376   2.117   3.210   4.014
 2269SOL    HW1 8377   2.021   3.211   3.987
 2269SOL    HW2 8378   2.129   3.263   4.098
 2270SOL     OW 8379   1.937   2.207   3.757
 2270SOL    HW1 8380   1.845   2.179   3.728
 2270SOL    HW2 8381   1.968   2.284   3.701
 2271SOL     OW 8382   1.934   2.028   4.042
 2271SOL    HW1 8383   1.917   2.111   3.988
 2271SOL    HW2 8384   2.024   1.991   4.020
 2272SOL     OW 8385   3.045   3.197   3.843
 2272SOL    HW1 8386   2.946   3.186   3.845
 2272SOL    HW2 8387   3.079   3.212   3.936
 2273SOL     OW 8388   3.355   3.629   4.683
 2273SOL    HW1 8389   3.388   3.693   4.614
 2273SOL    HW2 8390   3.421   3.623   4.758
 2274SOL     OW 8391   3.312   3.082   5.357
 2274SOL    HW1 8392   3.303   3.072   5.456
 2274SOL    HW2 8393   3.408   3.075   5.331
 2275SOL     OW 8394   3.536   2.745   4.978
 2275SOL    HW1 8395   3.509   2.656   4.941
 2275SOL    HW2 8396   3.537   2.813   4.905
 2276SOL     OW 8397   3.087   2.187   4.173
 2276SOL    HW1 8398   3.152   2.113   4.162
 2276SOL    HW2 8399   3.107   2.237   4.257
 2277SOL     OW 8400   3.592   2.796   5.241
 2277SOL    HW1 8401   3.630   2.887   5.256
 2277SOL    HW2 8402   3.584   2.779   5.142
 2278SOL     OW 8403   2.721   3.236   3.740
 2278SOL    HW1 8404   2.675   3.251   3.828
 2278SOL    HW2 8405   2.765   3.321   3.710
 2279SOL     OW 8406   2.721   2.818   4.585
 2279SOL    HW1 8407   2.775   2.749   4.633
 2279SOL    HW2 8408   2.689   2.887   4.651
 2280SOL     OW 8409   2.945   2.846   3.811
 2280SOL    HW1 8410   2.922   2.899   3.729
 2280SOL    HW2 8411   3.026   2.790   3.792
 2281SOL     OW 8412   3.723   3.431   4.575
 2281SOL    HW1 8413   3.652   3.419   4.505
 2281SOL    HW2 8414   3.724   3.352   4.635
 2282SOL     OW 8415   1.941   3.102   4.377
 2282SOL    HW1 8416   1.940   3.055   4.465
 2282SOL    HW2 8417   2.023   3.074   4.326
 2283SOL     OW 8418   3.686   2.054   4.951
 2283SOL    HW1 8419   3.682   1.964   4.995
 2283SOL    HW2 8420   3.689   2.043   4.852
 2284SOL     OW 8421   2.290   2.286   4.244
 2284SOL    HW1 8422   2.320   2.214   4.182
 2284SOL    HW2 8423   2.251   2.246   4.327
 2285SOL     OW 8424   3.567   3.349   4.828
 2285SOL    HW1 8425   3.474   3.324   4.801
 2285SOL    HW2 8426   3.593   3.299   4.910
 2286SOL     OW 8427   2.674   3.448   4.411
 2286SOL    HW1 8428   2.706   3.458   4.317
 2286SOL    HW2 8429   2.595   3.386   4.413
 2287SOL     OW 8430   3.286   2.076   4.836
 2287SOL    HW1 8431   3.338   2.011   4.891
 2287SOL    HW2 8432   3.237   2.139   4.897
 2288SOL     OW 8433   2.863   1.896   4.878
 2288SOL    HW1 8434   2.800   1.824   4.847
 2288SOL    HW2 8435   2.956   1.860   4.878
 2289SOL     OW 8436   2.632   3.192   4.025
 2289SOL    HW1 8437   2.586   3.105   4.042
 2289SOL    HW2 8438   2.723   3.189   4.066
 2290SOL     OW 8439   3.214   1.914   3.892
 2290SOL    HW1 8440   3.249   1.873   3.808
 2290SOL    HW2 8441   3.124   1.876   3.912
 2291SOL     OW 8442   3.162   2.315   4.415
 2291SOL    HW1 8443   3.103   2.395   4.419
 2291SOL    HW2 8444   3.177   2.280   4.508
 2292SOL     OW 8445   3.455   2.083   4.606
 2292SOL    HW1 8446   3.371   2.082   4.660
 2292SOL    HW2 8447   3.457   2.166   4.550
 2293SOL     OW 8448   1.901   2.939   4.024
 2293SOL    HW1 8449   2.000   2.928   4.015
 2293SOL    HW2 8450   1.861   2.853   4.056
 2294SOL     OW 8451   2.737   3.508   4.061
 2294SOL    HW1 8452   2.660   3.473   4.007
 2294SOL    HW2 8453   2.705   3.579   4.123
 2295SOL     OW 8454   2.092   4.352   0.113
 2295SOL    HW1 8455   1.999   4.350   0.150
 2295SOL    HW2 8456   2.093   4.313   0.021
 2296SOL     OW 8457   2.087   3.999   0.996
 2296SOL    HW1 8458   2.122   3.982   1.088
 2296SOL    HW2 8459   1.999   3.954   0.984
 2297SOL     OW 8460   1.881   4.092   0.647
 2297SOL    HW1 8461   1.799   4.135   0.686
 2297SOL    HW2 8462   1.853   4.019   0.584
 2298SOL     OW 8463   3.417   5.235   0.703
 2298SOL    HW1 8464   3.360   5.219   0.784
 2298SOL    HW2 8465   3.358   5.245   0.623
 2299SOL     OW 8466   2.997   4.427   0.717
 2299SOL    HW1 8467   3.054   4.505   0.692
 2299SOL    HW2 8468   2.937   4.453   0.793
 2300SOL     OW 8469   2.548   4.885   1.803
 2300SOL    HW1 8470   2.608   4.964   1.817
 2300SOL    HW2 8471   2.462   4.916   1.762
 2301SOL     OW 8472   2.197   5.159   1.061
 2301SOL    HW1 8473   2.119   5.128   1.008
 2301SOL    HW2 8474   2.255   5.217   1.004
 2302SOL     OW 8475   3.465   4.171   0.737
 2302SOL    HW1 8476   3.391   4.217   0.687
 2302SOL    HW2 8477   3.516   4.239   0.790
 2303SOL     OW 8478   2.102   4.815   0.886
 2303SOL    HW1 8479   2.116   4.731   0.938
 2303SOL    HW2 8480   2.047   4.879   0.941
 2304SOL     OW 8481   2.468   4.688   0.123
 2304SOL    HW1 8482   2.475   4.772   0.069
 2304SOL    HW2 8483   2.514   4.701   0.211
 2305SOL     OW 8484   3.456   3.838   1.480
 2305SOL    HW1 8485   3.438   3.905   1.408
 2305SOL    HW2 8486   3.453   3.884   1.569
 2306SOL     OW 8487   1.984   4.367   0.563
 2306SOL    HW1 8488   1.939   4.279   0.580
 2306SOL    HW2 8489   1.983   4.421   0.647
 2307SOL     OW 8490   3.551   4.646   0.612
 2307SOL    HW1 8491   3.646   4.617   0.620
 2307SOL    HW2 8492   3.543   4.711   0.537
 2308SOL     OW 8493   3.503   4.832   0.432
 2308SOL    HW1 8494   3.589   4.834   0.380
 2308SOL    HW2 8495   3.517   4.879   0.520
 2309SOL     OW 8496   1.975   4.461   1.597
 2309SOL    HW1 8497   2.063   4.448   1.642
 2309SOL    HW2 8498   1.962   4.558   1.575
 2310SOL     OW 8499   3.155   4.952   1.423
 2310SOL    HW1 8500   3.192   4.879   1.365
 2310SOL    HW2 8501   3.207   4.957   1.508
 2311SOL     OW 8502   2.671   3.728   0.502
 2311SOL    HW1 8503   2.711   3.819   0.493
 2311SOL    HW2 8504   2.571   3.736   0.508
 2312SOL     OW 8505   2.059   4.700   1.264
 2312SOL    HW1 8506   2.148   4.655   1.250
 2312SOL    HW2 8507   1.986   4.635   1.245
 2313SOL     OW 8508   3.387   4.723   0.190
 2313SOL    HW1 8509   3.324   4.647   0.203
 2313SOL    HW2 8510   3.435   4.741   0.276
 2314SOL     OW 8511   3.328   5.141   0.953
 2314SOL    HW1 8512   3.269   5.147   1.033
 2314SOL    HW2 8513   3.313   5.053   0.907
 2315SOL     OW 8514   3.143   4.069   0.944
 2315SOL    HW1 8515   3.057   4.019   0.931
 2315SOL    HW2 8516   3.205   4.015   1.000
 2316SOL     OW 8517   3.256   4.193   1.674
 2316SOL    HW1 8518   3.236   4.236   1.762
 2316SOL    HW2 8519   3.334   4.131   1.683
 2317SOL     OW 8520   2.835   4.614   1.572
 2317SOL    HW1 8521   2.881   4.530   1.543
 2317SOL    HW2 8522   2.779   4.648   1.497
 2318SOL     OW 8523   2.853   4.134   1.242
 2318SOL    HW1 8524   2.776   4.168   1.296
 2318SOL    HW2 8525   2.819   4.083   1.163
 2319SOL     OW 8526   2.903   4.425   0.429
 2319SOL    HW1 8527   2.929   4.421   0.525
 2319SOL    HW2 8528   2.818   4.374   0.415
 2320SOL     OW 8529   1.938   4.535   0.789
 2320SOL    HW1 8530   2.037   4.523   0.798
 2320SOL    HW2 8531   1.914   4.630   0.810
 2321SOL     OW 8532   2.727   4.072   0.195
 2321SOL    HW1 8533   2.786   4.135   0.146
 2321SOL    HW2 8534   2.746   3.978   0.166
 2322SOL     OW 8535   3.581   4.309   1.831
 2322SOL    HW1 8536   3.555   4.398   1.795
 2322SOL    HW2 8537   3.579   4.241   1.758
 2323SOL     OW 8538   3.224   4.868   0.545
 2323SOL    HW1 8539   3.307   4.839   0.497
 2323SOL    HW2 8540   3.175   4.935   0.489
 2324SOL     OW 8541   2.412   3.920   0.885
 2324SOL    HW1 8542   2.407   3.915   0.985
 2324SOL    HW2 8543   2.414   4.016   0.856
 2325SOL     OW 8544   3.657   4.790   0.873
 2325SOL    HW1 8545   3.595   4.775   0.797
 2325SOL    HW2 8546   3.605   4.801   0.958
 2326SOL     OW 8547   2.183   4.667   0.242
 2326SOL    HW1 8548   2.265   4.706   0.200
 2326SOL    HW2 8549   2.156   4.585   0.193
 2327SOL     OW 8550   3.320   4.459   0.728
 2327SOL    HW1 8551   3.315   4.394   0.803
 2327SOL    HW2 8552   3.400   4.518   0.741
 2328SOL     OW 8553   3.494   5.101   0.081
 2328SOL    HW1 8554   3.462   5.195   0.071
 2328SOL    HW2 8555   3.418   5.038   0.069
 2329SOL     OW 8556   3.262   3.831   0.426
 2329SOL    HW1 8557   3.238   3.794   0.336
 2329SOL    HW2 8558   3.361   3.847   0.430
 2330SOL     OW 8559   2.244   4.424   0.480
 2330SOL    HW1 8560   2.289   4.334   0.477
 2330SOL    HW2 8561   2.150   4.413   0.513
 2331SOL     OW 8562   3.409   3.946   1.729
 2331SOL    HW1 8563   3.404   3.983   1.821
 2331SOL    HW2 8564   3.337   3.877   1.717
 2332SOL     OW 8565   3.213   4.314   1.433
 2332SOL    HW1 8566   3.241   4.271   1.518
 2332SOL    HW2 8567   3.238   4.410   1.434
 2333SOL     OW 8568   2.784   4.227   0.899
 2333SOL    HW1 8569   2.759   4.218   0.803
 2333SOL    HW2 8570   2.832   4.145   0.930
 2334SOL     OW 8571   2.401   3.788   0.512
 2334SOL    HW1 8572   2.320   3.789   0.570
 2334SOL    HW2 8573   2.404   3.871   0.457
 2335SOL     OW 8574   3.296   4.912   0.041
 2335SOL    HW1 8575   3.328   4.836   0.098
 2335SOL    HW2 8576   3.204   4.939   0.071
 2336SOL     OW 8577   2.159   3.759   0.171
 2336SOL    HW1 8578   2.208   3.843   0.150
 2336SOL    HW2 8579   2.221   3.694   0.216
 2337SOL     OW 8580   2.797   3.960   0.480
 2337SOL    HW1 8581   2.749   4.001   0.402
 2337SOL    HW2 8582   2.896   3.958   0.461
 2338SOL     OW 8583   3.089   5.294   0.793
 2338SOL    HW1 8584   3.110   5.368   0.728
 2338SOL    HW2 8585   3.157   5.294   0.866
 2339SOL     OW 8586   2.894   4.273   0.016
 2339SOL    HW1 8587   2.853   4.355  -0.023
 2339SOL    HW2 8588   2.958   4.299   0.089
 2340SOL     OW 8589   1.940   4.280   1.386
 2340SOL    HW1 8590   2.032   4.279   1.345
 2340SOL    HW2 8591   1.934   4.354   1.453
 2341SOL     OW 8592   2.423   3.946   1.147
 2341SOL    HW1 8593   2.461   3.862   1.184
 2341SOL    HW2 8594   2.335   3.965   1.191
 2342SOL     OW 8595   2.728   4.178   0.642
 2342SOL    HW1 8596   2.696   4.250   0.580
 2342SOL    HW2 8597   2.752   4.097   0.589
 2343SOL     OW 8598   2.879   3.763   0.753
 2343SOL    HW1 8599   2.807   3.768   0.684
 2343SOL    HW2 8600   2.855   3.694   0.822
 2344SOL     OW 8601   3.291   4.897   0.867
 2344SOL    HW1 8602   3.236   4.813   0.860
 2344SOL    HW2 8603   3.317   4.926   0.775
 2345SOL     OW 8604   3.328   4.314   0.992
 2345SOL    HW1 8605   3.298   4.219   0.999
 2345SOL    HW2 8606   3.401   4.330   1.058
 2346SOL     OW 8607   3.526   5.004   0.657
 2346SOL    HW1 8608   3.625   5.012   0.671
 2346SOL    HW2 8609   3.481   5.088   0.688
 2347SOL     OW 8610   3.252   4.299   0.078
 2347SOL    HW1 8611   3.198   4.278   0.159
 2347SOL    HW2 8612   3.343   4.258   0.087
 2348SOL     OW 8613   3.616   4.947   1.588
 2348SOL    HW1 8614   3.707   4.908   1.575
 2348SOL    HW2 8615   3.624   5.043   1.612
 2349SOL     OW 8616   2.777   3.813   1.402
 2349SOL    HW1 8617   2.802   3.793   1.307
 2349SOL    HW2 8618   2.849   3.869   1.444
 2350SOL     OW 8619   2.842   4.840   1.719
 2350SOL    HW1 8620   2.743   4.846   1.729
 2350SOL    HW2 8621   2.865   4.760   1.663
 2351SOL     OW 8622   2.567   4.774   0.368
 2351SOL    HW1 8623   2.553   4.781   0.467
 2351SOL    HW2 8624   2.651   4.723   0.350
 2352SOL     OW 8625   2.272   4.537   1.251
 2352SOL    HW1 8626   2.358   4.549   1.301
 2352SOL    HW2 8627   2.230   4.450   1.278
 2353SOL     OW 8628   3.136   4.110   1.262
 2353SOL    HW1 8629   3.157   4.184   1.326
 2353SOL    HW2 8630   3.047   4.127   1.219
 2354SOL     OW 8631   2.229   4.824   0.501
 2354SOL    HW1 8632   2.222   4.907   0.445
 2354SOL    HW2 8633   2.233   4.744   0.441
 2355SOL     OW 8634   2.428   4.261   0.865
 2355SOL    HW1 8635   2.440   4.327   0.791
 2355SOL    HW2 8636   2.474   4.295   0.948
 2356SOL     OW 8637   3.444   4.363   0.472
 2356SOL    HW1 8638   3.413   4.424   0.545
 2356SOL    HW2 8639   3.494   4.415   0.403
 2357SOL     OW 8640   2.264   4.475   1.598
 2357SOL    HW1 8641   2.332   4.530   1.551
 2357SOL    HW2 8642   2.304   4.387   1.625
 2358SOL     OW 8643   3.449   4.503   1.670
 2358SOL    HW1 8644   3.357   4.541   1.665
 2358SOL    HW2 8645   3.509   4.550   1.605
 2359SOL     OW 8646   2.875   3.829   1.770
 2359SOL    HW1 8647   2.881   3.914   1.718
 2359SOL    HW2 8648   2.907   3.753   1.713
 2360SOL     OW 8649   2.366   3.774   1.740
 2360SOL    HW1 8650   2.324   3.717   1.670
 2360SOL    HW2 8651   2.300   3.843   1.772
 2361SOL     OW 8652   3.222   4.586   1.045
 2361SOL    HW1 8653   3.147   4.586   0.979
 2361SOL    HW2 8654   3.259   4.494   1.054
 2362SOL     OW 8655   3.071   4.249   0.275
 2362SOL    HW1 8656   3.084   4.165   0.329
 2362SOL    HW2 8657   3.042   4.323   0.335
 2363SOL     OW 8658   2.169   3.937   1.231
 2363SOL    HW1 8659   2.146   3.974   1.321
 2363SOL    HW2 8660   2.139   3.842   1.225
 2364SOL     OW 8661   2.594   4.358   1.064
 2364SOL    HW1 8662   2.653   4.332   0.988
 2364SOL    HW2 8663   2.566   4.454   1.053
 2365SOL     OW 8664   3.590   4.659   1.854
 2365SOL    HW1 8665   3.544   4.652   1.765
 2365SOL    HW2 8666   3.528   4.703   1.920
 2366SOL     OW 8667   2.169   3.787   0.618
 2366SOL    HW1 8668   2.158   3.881   0.651
 2366SOL    HW2 8669   2.164   3.724   0.695
 2367SOL     OW 8670   2.885   4.490   0.966
 2367SOL    HW1 8671   2.900   4.511   1.062
 2367SOL    HW2 8672   2.855   4.395   0.957
 2368SOL     OW 8673   3.721   5.242   1.605
 2368SOL    HW1 8674   3.735   5.269   1.510
 2368SOL    HW2 8675   3.804   5.264   1.658
 2369SOL     OW 8676   3.402   3.998   0.125
 2369SOL    HW1 8677   3.341   3.923   0.148
 2369SOL    HW2 8678   3.424   4.050   0.208
 2370SOL     OW 8679   3.165   4.562   0.042
 2370SOL    HW1 8680   3.199   4.469   0.057
 2370SOL    HW2 8681   3.183   4.589  -0.053
 2371SOL     OW 8682   2.181   4.534   0.949
 2371SOL    HW1 8683   2.274   4.570   0.954
 2371SOL    HW2 8684   2.175   4.449   1.001
 2372SOL     OW 8685   2.201   4.233   1.006
 2372SOL    HW1 8686   2.149   4.150   0.989
 2372SOL    HW2 8687   2.278   4.238   0.942
 2373SOL     OW 8688   2.864   4.520   1.238
 2373SOL    HW1 8689   2.905   4.488   1.324
 2373SOL    HW2 8690   2.768   4.493   1.235
 2374SOL     OW 8691   1.902   4.268   1.114
 2374SOL    HW1 8692   1.987   4.235   1.073
 2374SOL    HW2 8693   1.915   4.283   1.212
 2375SOL     OW 8694   3.231   4.674   1.660
 2375SOL    HW1 8695   3.270   4.763   1.680
 2375SOL    HW2 8696   3.241   4.654   1.563
 2376SOL     OW 8697   3.519   4.328   1.206
 2376SOL    HW1 8698   3.481   4.259   1.268
 2376SOL    HW2 8699   3.601   4.292   1.162
 2377SOL     OW 8700   2.533   4.188   1.269
 2377SOL    HW1 8701   2.499   4.099   1.239
 2377SOL    HW2 8702   2.559   4.242   1.189
 2378SOL     OW 8703   3.209   4.783   1.234
 2378SOL    HW1 8704   3.233   4.720   1.160
 2378SOL    HW2 8705   3.119   4.823   1.216
 2379SOL     OW 8706   3.164   4.579   0.309
 2379SOL    HW1 8707   3.078   4.548   0.351
 2379SOL    HW2 8708   3.160   4.565   0.210
 2380SOL     OW 8709   1.945   4.982   1.022
 2380SOL    HW1 8710   1.940   4.981   1.122
 2380SOL    HW2 8711   1.862   4.941   0.984
 2381SOL     OW 8712   2.765   3.810   0.133
 2381SOL    HW1 8713   2.816   3.811   0.047
 2381SOL    HW2 8714   2.821   3.768   0.204
 2382SOL     OW 8715   3.588   3.859   0.523
 2382SOL    HW1 8716   3.661   3.842   0.456
 2382SOL    HW2 8717   3.557   3.772   0.561
 2383SOL     OW 8718   3.142   4.651   0.672
 2383SOL    HW1 8719   3.202   4.570   0.674
 2383SOL    HW2 8720   3.182   4.720   0.612
 2384SOL     OW 8721   2.692   4.997   1.422
 2384SOL    HW1 8722   2.687   5.030   1.517
 2384SOL    HW2 8723   2.606   5.016   1.376
 2385SOL     OW 8724   3.703   3.899   0.963
 2385SOL    HW1 8725   3.742   3.814   0.927
 2385SOL    HW2 8726   3.605   3.901   0.944
 2386SOL     OW 8727   2.125   4.050   0.720
 2386SOL    HW1 8728   2.046   4.101   0.686
 2386SOL    HW2 8729   2.116   4.035   0.818
 2387SOL     OW 8730   2.778   4.634   0.291
 2387SOL    HW1 8731   2.841   4.672   0.223
 2387SOL    HW2 8732   2.818   4.551   0.330
 2388SOL     OW 8733   2.234   5.012   1.490
 2388SOL    HW1 8734   2.221   5.105   1.456
 2388SOL    HW2 8735   2.150   4.960   1.477
 2389SOL     OW 8736   2.876   3.960   0.971
 2389SOL    HW1 8737   2.868   3.924   0.878
 2389SOL    HW2 8738   2.874   3.884   1.036
 2390SOL     OW 8739   3.571   4.109   1.381
 2390SOL    HW1 8740   3.644   4.178   1.385
 2390SOL    HW2 8741   3.599   4.034   1.322
 2391SOL     OW 8742   2.534   3.927   1.489
 2391SOL    HW1 8743   2.624   3.911   1.449
 2391SOL    HW2 8744   2.542   3.932   1.588
 2392SOL     OW 8745   3.302   4.580   1.398
 2392SOL    HW1 8746   3.245   4.632   1.335
 2392SOL    HW2 8747   3.398   4.592   1.374
 2393SOL     OW 8748   1.934   3.890   0.318
 2393SOL    HW1 8749   1.917   3.973   0.264
 2393SOL    HW2 8750   2.024   3.853   0.296
 2394SOL     OW 8751   2.475   4.566   1.431
 2394SOL    HW1 8752   2.531   4.647   1.414
 2394SOL    HW2 8753   2.534   4.486   1.434
 2395SOL     OW 8754   3.312   4.944   1.633
 2395SOL    HW1 8755   3.303   4.934   1.732
 2395SOL    HW2 8756   3.408   4.937   1.607
 2396SOL     OW 8757   3.536   4.607   1.254
 2396SOL    HW1 8758   3.509   4.518   1.217
 2396SOL    HW2 8759   3.537   4.675   1.181
 2397SOL     OW 8760   3.087   4.049   0.449
 2397SOL    HW1 8761   3.152   3.975   0.438
 2397SOL    HW2 8762   3.107   4.099   0.533
 2398SOL     OW 8763   2.456   4.469   0.652
 2398SOL    HW1 8764   2.506   4.554   0.633
 2398SOL    HW2 8765   2.368   4.471   0.604
 2399SOL     OW 8766   3.639   4.066   1.642
 2399SOL    HW1 8767   3.622   4.097   1.548
 2399SOL    HW2 8768   3.555   4.029   1.680
 2400SOL     OW 8769   3.592   4.658   1.517
 2400SOL    HW1 8770   3.630   4.749   1.532
 2400SOL    HW2 8771   3.584   4.641   1.418
 2401SOL     OW 8772   2.945   4.708   0.087
 2401SOL    HW1 8773   2.922   4.761   0.005
 2401SOL    HW2 8774   3.026   4.652   0.068
 2402SOL     OW 8775   1.941   4.964   0.653
 2402SOL    HW1 8776   1.940   4.917   0.741
 2402SOL    HW2 8777   2.023   4.936   0.602
 2403SOL     OW 8778   3.686   3.916   1.227
 2403SOL    HW1 8779   3.682   3.826   1.271
 2403SOL    HW2 8780   3.689   3.905   1.128
 2404SOL     OW 8781   3.286   3.938   1.112
 2404SOL    HW1 8782   3.338   3.873   1.167
 2404SOL    HW2 8783   3.237   4.001   1.173
 2405SOL     OW 8784   2.863   3.758   1.154
 2405SOL    HW1 8785   2.800   3.686   1.123
 2405SOL    HW2 8786   2.956   3.722   1.154
 2406SOL     OW 8787   2.632   5.054   0.301
 2406SOL    HW1 8788   2.586   4.967   0.318
 2406SOL    HW2 8789   2.723   5.051   0.342
 2407SOL     OW 8790   3.214   3.776   0.168
 2407SOL    HW1 8791   3.249   3.735   0.084
 2407SOL    HW2 8792   3.124   3.738   0.188
 2408SOL     OW 8793   3.162   4.177   0.691
 2408SOL    HW1 8794   3.103   4.257   0.695
 2408SOL    HW2 8795   3.177   4.142   0.784
 2409SOL     OW 8796   3.455   3.945   0.882
 2409SOL    HW1 8797   3.371   3.944   0.936
 2409SOL    HW2 8798   3.457   4.028   0.826
 2410SOL     OW 8799   2.087   3.999   2.858
 2410SOL    HW1 8800   2.122   3.982   2.950
 2410SOL    HW2 8801   1.999   3.954   2.846
 2411SOL     OW 8802   1.881   4.092   2.509
 2411SOL    HW1 8803   1.799   4.135   2.548
 2411SOL    HW2 8804   1.853   4.019   2.446
 2412SOL     OW 8805   2.431   4.999   3.027
 2412SOL    HW1 8806   2.338   4.992   2.990
 2412SOL    HW2 8807   2.442   5.088   3.071
 2413SOL     OW 8808   3.417   5.235   2.565
 2413SOL    HW1 8809   3.360   5.219   2.646
 2413SOL    HW2 8810   3.358   5.245   2.485
 2414SOL     OW 8811   2.997   4.427   2.579
 2414SOL    HW1 8812   3.054   4.505   2.554
 2414SOL    HW2 8813   2.937   4.453   2.655
 2415SOL     OW 8814   3.617   4.331   2.093
 2415SOL    HW1 8815   3.605   4.318   1.994
 2415SOL    HW2 8816   3.587   4.250   2.142
 2416SOL     OW 8817   2.630   4.868   2.885
 2416SOL    HW1 8818   2.552   4.885   2.945
 2416SOL    HW2 8819   2.664   4.955   2.849
 2417SOL     OW 8820   2.547   4.736   2.527
 2417SOL    HW1 8821   2.616   4.720   2.597
 2417SOL    HW2 8822   2.474   4.793   2.565
 2418SOL     OW 8823   2.197   5.159   2.923
 2418SOL    HW1 8824   2.119   5.128   2.870
 2418SOL    HW2 8825   2.255   5.217   2.866
 2419SOL     OW 8826   3.465   4.171   2.599
 2419SOL    HW1 8827   3.391   4.217   2.549
 2419SOL    HW2 8828   3.516   4.239   2.652
 2420SOL     OW 8829   2.102   4.815   2.748
 2420SOL    HW1 8830   2.116   4.731   2.800
 2420SOL    HW2 8831   2.047   4.879   2.803
 2421SOL     OW 8832   3.456   3.838   3.342
 2421SOL    HW1 8833   3.438   3.905   3.270
 2421SOL    HW2 8834   3.453   3.884   3.431
 2422SOL     OW 8835   1.984   4.367   2.425
 2422SOL    HW1 8836   1.939   4.279   2.442
 2422SOL    HW2 8837   1.983   4.421   2.509
 2423SOL     OW 8838   3.551   4.646   2.474
 2423SOL    HW1 8839   3.646   4.617   2.482
 2423SOL    HW2 8840   3.543   4.711   2.399
 2424SOL     OW 8841   3.503   4.832   2.294
 2424SOL    HW1 8842   3.589   4.834   2.242
 2424SOL    HW2 8843   3.517   4.879   2.382
 2425SOL     OW 8844   1.975   4.461   3.459
 2425SOL    HW1 8845   2.063   4.448   3.504
 2425SOL    HW2 8846   1.962   4.558   3.437
 2426SOL     OW 8847   3.155   4.952   3.285
 2426SOL    HW1 8848   3.192   4.879   3.227
 2426SOL    HW2 8849   3.207   4.957   3.370
 2427SOL     OW 8850   2.671   3.728   2.364
 2427SOL    HW1 8851   2.711   3.819   2.355
 2427SOL    HW2 8852   2.571   3.736   2.370
 2428SOL     OW 8853   2.059   4.700   3.126
 2428SOL    HW1 8854   2.148   4.655   3.112
 2428SOL    HW2 8855   1.986   4.635   3.107
 2429SOL     OW 8856   3.387   4.723   2.052
 2429SOL    HW1 8857   3.324   4.647   2.065
 2429SOL    HW2 8858   3.435   4.741   2.138
 2430SOL     OW 8859   2.179   3.975   3.663
 2430SOL    HW1 8860   2.250   4.046   3.669
 2430SOL    HW2 8861   2.091   4.014   3.691
 2431SOL     OW 8862   3.143   4.069   2.806
 2431SOL    HW1 8863   3.057   4.019   2.793
 2431SOL    HW2 8864   3.205   4.015   2.862
 2432SOL     OW 8865   3.256   4.193   3.536
 2432SOL    HW1 8866   3.236   4.236   3.624
 2432SOL    HW2 8867   3.334   4.131   3.545
 2433SOL     OW 8868   2.853   4.134   3.104
 2433SOL    HW1 8869   2.776   4.168   3.158
 2433SOL    HW2 8870   2.819   4.083   3.025
 2434SOL     OW 8871   2.903   4.425   2.291
 2434SOL    HW1 8872   2.929   4.421   2.387
 2434SOL    HW2 8873   2.818   4.374   2.277
 2435SOL     OW 8874   1.938   4.535   2.651
 2435SOL    HW1 8875   2.037   4.523   2.660
 2435SOL    HW2 8876   1.914   4.630   2.672
 2436SOL     OW 8877   3.581   4.309   3.693
 2436SOL    HW1 8878   3.555   4.398   3.657
 2436SOL    HW2 8879   3.579   4.241   3.620
 2437SOL     OW 8880   2.412   3.920   2.747
 2437SOL    HW1 8881   2.407   3.915   2.847
 2437SOL    HW2 8882   2.414   4.016   2.718
 2438SOL     OW 8883   3.657   4.790   2.735
 2438SOL    HW1 8884   3.595   4.775   2.659
 2438SOL    HW2 8885   3.605   4.801   2.820
 2439SOL     OW 8886   3.320   4.459   2.590
 2439SOL    HW1 8887   3.315   4.394   2.665
 2439SOL    HW2 8888   3.400   4.518   2.603
 2440SOL     OW 8889   2.064   4.009   3.360
 2440SOL    HW1 8890   1.984   4.069   3.347
 2440SOL    HW2 8891   2.054   3.960   3.446
 2441SOL     OW 8892   3.494   5.101   1.943
 2441SOL    HW1 8893   3.462   5.195   1.933
 2441SOL    HW2 8894   3.418   5.038   1.931
 2442SOL     OW 8895   3.262   3.831   2.288
 2442SOL    HW1 8896   3.238   3.794   2.198
 2442SOL    HW2 8897   3.361   3.847   2.292
 2443SOL     OW 8898   2.244   4.424   2.342
 2443SOL    HW1 8899   2.289   4.334   2.339
 2443SOL    HW2 8900   2.150   4.413   2.375
 2444SOL     OW 8901   3.409   3.946   3.591
 2444SOL    HW1 8902   3.404   3.983   3.683
 2444SOL    HW2 8903   3.337   3.877   3.579
 2445SOL     OW 8904   2.476   3.846   1.979
 2445SOL    HW1 8905   2.574   3.824   1.986
 2445SOL    HW2 8906   2.445   3.829   1.886
 2446SOL     OW 8907   2.643   3.988   3.611
 2446SOL    HW1 8908   2.710   3.927   3.654
 2446SOL    HW2 8909   2.570   4.007   3.676
 2447SOL     OW 8910   3.213   4.314   3.295
 2447SOL    HW1 8911   3.241   4.271   3.380
 2447SOL    HW2 8912   3.238   4.410   3.296
 2448SOL     OW 8913   2.665   5.126   2.786
 2448SOL    HW1 8914   2.755   5.140   2.744
 2448SOL    HW2 8915   2.594   5.128   2.715
 2449SOL     OW 8916   2.784   4.227   2.761
 2449SOL    HW1 8917   2.759   4.218   2.665
 2449SOL    HW2 8918   2.832   4.145   2.792
 2450SOL     OW 8919   2.401   3.788   2.374
 2450SOL    HW1 8920   2.320   3.789   2.432
 2450SOL    HW2 8921   2.404   3.871   2.319
 2451SOL     OW 8922   3.296   4.912   1.903
 2451SOL    HW1 8923   3.328   4.836   1.960
 2451SOL    HW2 8924   3.204   4.939   1.933
 2452SOL     OW 8925   2.159   3.759   2.033
 2452SOL    HW1 8926   2.208   3.843   2.012
 2452SOL    HW2 8927   2.221   3.694   2.078
 2453SOL     OW 8928   2.938   4.407   3.326
 2453SOL    HW1 8929   2.858   4.346   3.329
 2453SOL    HW2 8930   3.019   4.354   3.302
 2454SOL     OW 8931   3.089   5.294   2.655
 2454SOL    HW1 8932   3.110   5.368   2.590
 2454SOL    HW2 8933   3.157   5.294   2.728
 2455SOL     OW 8934   2.321   4.876   2.603
 2455SOL    HW1 8935   2.250   4.849   2.668
 2455SOL    HW2 8936   2.295   4.848   2.510
 2456SOL     OW 8937   1.940   4.280   3.248
 2456SOL    HW1 8938   2.032   4.279   3.207
 2456SOL    HW2 8939   1.934   4.354   3.315
 2457SOL     OW 8940   2.423   3.946   3.009
 2457SOL    HW1 8941   2.461   3.862   3.046
 2457SOL    HW2 8942   2.335   3.965   3.053
 2458SOL     OW 8943   2.728   4.178   2.504
 2458SOL    HW1 8944   2.696   4.250   2.442
 2458SOL    HW2 8945   2.752   4.097   2.451
 2459SOL     OW 8946   2.879   3.763   2.615
 2459SOL    HW1 8947   2.807   3.768   2.546
 2459SOL    HW2 8948   2.855   3.694   2.684
 2460SOL     OW 8949   3.328   4.314   2.854
 2460SOL    HW1 8950   3.298   4.219   2.861
 2460SOL    HW2 8951   3.401   4.330   2.920
 2461SOL     OW 8952   3.719   4.557   2.239
 2461SOL    HW1 8953   3.761   4.493   2.303
 2461SOL    HW2 8954   3.681   4.506   2.161
 2462SOL     OW 8955   3.252   4.299   1.940
 2462SOL    HW1 8956   3.198   4.278   2.021
 2462SOL    HW2 8957   3.343   4.258   1.949
 2463SOL     OW 8958   2.389   3.980   2.190
 2463SOL    HW1 8959   2.416   3.921   2.115
 2463SOL    HW2 8960   2.389   4.075   2.159
 2464SOL     OW 8961   3.616   4.947   3.450
 2464SOL    HW1 8962   3.707   4.908   3.437
 2464SOL    HW2 8963   3.624   5.043   3.474
 2465SOL     OW 8964   3.500   4.823   2.941
 2465SOL    HW1 8965   3.505   4.904   3.000
 2465SOL    HW2 8966   3.414   4.825   2.890
 2466SOL     OW 8967   2.777   3.813   3.264
 2466SOL    HW1 8968   2.802   3.793   3.169
 2466SOL    HW2 8969   2.849   3.869   3.306
 2467SOL     OW 8970   2.567   4.774   2.230
 2467SOL    HW1 8971   2.553   4.781   2.329
 2467SOL    HW2 8972   2.651   4.723   2.212
 2468SOL     OW 8973   2.272   4.537   3.113
 2468SOL    HW1 8974   2.358   4.549   3.163
 2468SOL    HW2 8975   2.230   4.450   3.140
 2469SOL     OW 8976   3.136   4.110   3.124
 2469SOL    HW1 8977   3.157   4.184   3.188
 2469SOL    HW2 8978   3.047   4.127   3.081
 2470SOL     OW 8979   2.428   4.261   2.727
 2470SOL    HW1 8980   2.440   4.327   2.653
 2470SOL    HW2 8981   2.474   4.295   2.810
 2471SOL     OW 8982   3.444   4.363   2.334
 2471SOL    HW1 8983   3.413   4.424   2.407
 2471SOL    HW2 8984   3.494   4.415   2.265
 2472SOL     OW 8985   3.449   4.503   3.532
 2472SOL    HW1 8986   3.357   4.541   3.527
 2472SOL    HW2 8987   3.509   4.550   3.467
 2473SOL     OW 8988   2.875   3.829   3.632
 2473SOL    HW1 8989   2.881   3.914   3.580
 2473SOL    HW2 8990   2.907   3.753   3.575
 2474SOL     OW 8991   2.366   3.774   3.602
 2474SOL    HW1 8992   2.324   3.717   3.532
 2474SOL    HW2 8993   2.300   3.843   3.634
 2475SOL     OW 8994   2.435   4.594   2.891
 2475SOL    HW1 8995   2.479   4.683   2.882
 2475SOL    HW2 8996   2.372   4.594   2.968
 2476SOL     OW 8997   3.222   4.586   2.907
 2476SOL    HW1 8998   3.147   4.586   2.841
 2476SOL    HW2 8999   3.259   4.494   2.916
 2477SOL     OW 9000   3.071   4.249   2.137
 2477SOL    HW1 9001   3.084   4.165   2.191
 2477SOL    HW2 9002   3.042   4.323   2.197
 2478SOL     OW 9003   2.169   3.937   3.093
 2478SOL    HW1 9004   2.146   3.974   3.183
 2478SOL    HW2 9005   2.139   3.842   3.087
 2479SOL     OW 9006   2.594   4.358   2.926
 2479SOL    HW1 9007   2.653   4.332   2.850
 2479SOL    HW2 9008   2.566   4.454   2.915
 2480SOL     OW 9009   3.590   4.659   3.716
 2480SOL    HW1 9010   3.544   4.652   3.627
 2480SOL    HW2 9011   3.528   4.703   3.782
 2481SOL     OW 9012   2.169   3.787   2.480
 2481SOL    HW1 9013   2.158   3.881   2.513
 2481SOL    HW2 9014   2.164   3.724   2.557
 2482SOL     OW 9015   3.484   4.091   2.236
 2482SOL    HW1 9016   3.486   4.015   2.300
 2482SOL    HW2 9017   3.436   4.168   2.276
 2483SOL     OW 9018   2.885   4.490   2.828
 2483SOL    HW1 9019   2.900   4.511   2.924
 2483SOL    HW2 9020   2.855   4.395   2.819
 2484SOL     OW 9021   3.721   5.242   3.467
 2484SOL    HW1 9022   3.735   5.269   3.372
 2484SOL    HW2 9023   3.804   5.264   3.520
 2485SOL     OW 9024   3.402   3.998   1.987
 2485SOL    HW1 9025   3.341   3.923   2.010
 2485SOL    HW2 9026   3.424   4.050   2.070
 2486SOL     OW 9027   3.165   4.562   1.904
 2486SOL    HW1 9028   3.199   4.469   1.919
 2486SOL    HW2 9029   3.183   4.589   1.809
 2487SOL     OW 9030   2.181   4.534   2.811
 2487SOL    HW1 9031   2.274   4.570   2.816
 2487SOL    HW2 9032   2.175   4.449   2.863
 2488SOL     OW 9033   2.201   4.233   2.868
 2488SOL    HW1 9034   2.149   4.150   2.851
 2488SOL    HW2 9035   2.278   4.238   2.804
 2489SOL     OW 9036   3.000   4.104   3.540
 2489SOL    HW1 9037   2.955   4.167   3.604
 2489SOL    HW2 9038   3.093   4.135   3.523
 2490SOL     OW 9039   3.022   3.931   3.339
 2490SOL    HW1 9040   3.022   3.995   3.416
 2490SOL    HW2 9041   3.050   3.979   3.256
 2491SOL     OW 9042   1.870   5.050   2.062
 2491SOL    HW1 9043   1.777   5.071   2.031
 2491SOL    HW2 9044   1.880   4.951   2.075
 2492SOL     OW 9045   2.864   4.520   3.100
 2492SOL    HW1 9046   2.905   4.488   3.186
 2492SOL    HW2 9047   2.768   4.493   3.097
 2493SOL     OW 9048   1.902   4.268   2.976
 2493SOL    HW1 9049   1.987   4.235   2.935
 2493SOL    HW2 9050   1.915   4.283   3.074
 2494SOL     OW 9051   2.051   4.244   3.584
 2494SOL    HW1 9052   2.110   4.204   3.514
 2494SOL    HW2 9053   1.993   4.315   3.543
 2495SOL     OW 9054   3.231   4.674   3.522
 2495SOL    HW1 9055   3.270   4.763   3.542
 2495SOL    HW2 9056   3.241   4.654   3.425
 2496SOL     OW 9057   2.677   4.296   2.187
 2496SOL    HW1 9058   2.684   4.207   2.141
 2496SOL    HW2 9059   2.583   4.330   2.179
 2497SOL     OW 9060   3.519   4.328   3.068
 2497SOL    HW1 9061   3.481   4.259   3.130
 2497SOL    HW2 9062   3.601   4.292   3.024
 2498SOL     OW 9063   2.335   4.224   2.053
 2498SOL    HW1 9064   2.396   4.304   2.057
 2498SOL    HW2 9065   2.240   4.255   2.060
 2499SOL     OW 9066   2.021   4.861   3.328
 2499SOL    HW1 9067   2.043   4.800   3.404
 2499SOL    HW2 9068   2.031   4.812   3.242
 2500SOL     OW 9069   3.209   4.783   3.096
 2500SOL    HW1 9070   3.233   4.720   3.022
 2500SOL    HW2 9071   3.119   4.823   3.078
 2501SOL     OW 9072   1.945   4.982   2.884
 2501SOL    HW1 9073   1.940   4.981   2.984
 2501SOL    HW2 9074   1.862   4.941   2.846
 2502SOL     OW 9075   3.588   3.859   2.385
 2502SOL    HW1 9076   3.661   3.842   2.318
 2502SOL    HW2 9077   3.557   3.772   2.423
 2503SOL     OW 9078   2.692   4.997   3.284
 2503SOL    HW1 9079   2.687   5.030   3.379
 2503SOL    HW2 9080   2.606   5.016   3.238
 2504SOL     OW 9081   3.703   3.899   2.825
 2504SOL    HW1 9082   3.742   3.814   2.789
 2504SOL    HW2 9083   3.605   3.901   2.806
 2505SOL     OW 9084   2.125   4.050   2.582
 2505SOL    HW1 9085   2.046   4.101   2.548
 2505SOL    HW2 9086   2.116   4.035   2.680
 2506SOL     OW 9087   3.056   5.336   1.893
 2506SOL    HW1 9088   3.062   5.243   1.930
 2506SOL    HW2 9089   2.997   5.336   1.813
 2507SOL     OW 9090   2.684   4.726   3.234
 2507SOL    HW1 9091   2.724   4.725   3.142
 2507SOL    HW2 9092   2.694   4.818   3.274
 2508SOL     OW 9093   2.778   4.634   2.153
 2508SOL    HW1 9094   2.841   4.672   2.085
 2508SOL    HW2 9095   2.818   4.551   2.192
 2509SOL     OW 9096   2.234   5.012   3.352
 2509SOL    HW1 9097   2.221   5.105   3.318
 2509SOL    HW2 9098   2.150   4.960   3.339
 2510SOL     OW 9099   3.476   5.016   3.151
 2510SOL    HW1 9100   3.536   5.019   3.231
 2510SOL    HW2 9101   3.401   5.080   3.164
 2511SOL     OW 9102   2.876   3.960   2.833
 2511SOL    HW1 9103   2.868   3.924   2.740
 2511SOL    HW2 9104   2.874   3.884   2.898
 2512SOL     OW 9105   3.571   4.109   3.243
 2512SOL    HW1 9106   3.644   4.178   3.247
 2512SOL    HW2 9107   3.599   4.034   3.184
 2513SOL     OW 9108   1.967   4.737   3.588
 2513SOL    HW1 9109   1.890   4.704   3.642
 2513SOL    HW2 9110   2.052   4.707   3.630
 2514SOL     OW 9111   2.534   3.927   3.351
 2514SOL    HW1 9112   2.624   3.911   3.311
 2514SOL    HW2 9113   2.542   3.932   3.450
 2515SOL     OW 9114   1.937   4.069   1.895
 2515SOL    HW1 9115   1.845   4.041   1.866
 2515SOL    HW2 9116   1.968   4.146   1.839
 2516SOL     OW 9117   3.302   4.580   3.260
 2516SOL    HW1 9118   3.245   4.632   3.197
 2516SOL    HW2 9119   3.398   4.592   3.236
 2517SOL     OW 9120   1.934   3.890   2.180
 2517SOL    HW1 9121   1.917   3.973   2.126
 2517SOL    HW2 9122   2.024   3.853   2.158
 2518SOL     OW 9123   2.578   4.289   3.570
 2518SOL    HW1 9124   2.597   4.354   3.644
 2518SOL    HW2 9125   2.638   4.209   3.579
 2519SOL     OW 9126   3.312   4.944   3.495
 2519SOL    HW1 9127   3.303   4.934   3.594
 2519SOL    HW2 9128   3.408   4.937   3.469
 2520SOL     OW 9129   3.536   4.607   3.116
 2520SOL    HW1 9130   3.509   4.518   3.079
 2520SOL    HW2 9131   3.537   4.675   3.043
 2521SOL     OW 9132   3.087   4.049   2.311
 2521SOL    HW1 9133   3.152   3.975   2.300
 2521SOL    HW2 9134   3.107   4.099   2.395
 2522SOL     OW 9135   2.456   4.469   2.514
 2522SOL    HW1 9136   2.506   4.554   2.495
 2522SOL    HW2 9137   2.368   4.471   2.466
 2523SOL     OW 9138   3.639   4.066   3.504
 2523SOL    HW1 9139   3.622   4.097   3.410
 2523SOL    HW2 9140   3.555   4.029   3.542
 2524SOL     OW 9141   3.592   4.658   3.379
 2524SOL    HW1 9142   3.630   4.749   3.394
 2524SOL    HW2 9143   3.584   4.641   3.280
 2525SOL     OW 9144   2.721   4.680   2.723
 2525SOL    HW1 9145   2.775   4.611   2.771
 2525SOL    HW2 9146   2.689   4.749   2.789
 2526SOL     OW 9147   2.945   4.708   1.949
 2526SOL    HW1 9148   2.922   4.761   1.867
 2526SOL    HW2 9149   3.026   4.652   1.930
 2527SOL     OW 9150   1.941   4.964   2.515
 2527SOL    HW1 9151   1.940   4.917   2.603
 2527SOL    HW2 9152   2.023   4.936   2.464
 2528SOL     OW 9153   3.686   3.916   3.089
 2528SOL    HW1 9154   3.682   3.826   3.133
 2528SOL    HW2 9155   3.689   3.905   2.990
 2529SOL     OW 9156   2.290   4.148   2.382
 2529SOL    HW1 9157   2.320   4.076   2.320
 2529SOL    HW2 9158   2.251   4.108   2.465
 2530SOL     OW 9159   2.179   4.271   3.142
 2530SOL    HW1 9160   2.217   4.212   3.214
 2530SOL    HW2 9161   2.219   4.245   3.054
 2531SOL     OW 9162   3.286   3.938   2.974
 2531SOL    HW1 9163   3.338   3.873   3.029
 2531SOL    HW2 9164   3.237   4.001   3.035
 2532SOL     OW 9165   2.863   3.758   3.016
 2532SOL    HW1 9166   2.800   3.686   2.985
 2532SOL    HW2 9167   2.956   3.722   3.016
 2533SOL     OW 9168   3.214   3.776   2.030
 2533SOL    HW1 9169   3.249   3.735   1.946
 2533SOL    HW2 9170   3.124   3.738   2.050
 2534SOL     OW 9171   3.162   4.177   2.553
 2534SOL    HW1 9172   3.103   4.257   2.557
 2534SOL    HW2 9173   3.177   4.142   2.646
 2535SOL     OW 9174   3.455   3.945   2.744
 2535SOL    HW1 9175   3.371   3.944   2.798
 2535SOL    HW2 9176   3.457   4.028   2.688
 2536SOL     OW 9177   2.092   4.352   3.837
 2536SOL    HW1 9178   1.999   4.350   3.874
 2536SOL    HW2 9179   2.093   4.313   3.745
 2537SOL     OW 9180   2.087   3.999   4.720
 2537SOL    HW1 9181   2.122   3.982   4.812
 2537SOL    HW2 9182   1.999   3.954   4.708
 2538SOL     OW 9183   2.431   4.999   4.889
 2538SOL    HW1 9184   2.338   4.992   4.852
 2538SOL    HW2 9185   2.442   5.088   4.933
 2539SOL     OW 9186   3.417   5.235   4.427
 2539SOL    HW1 9187   3.360   5.219   4.508
 2539SOL    HW2 9188   3.358   5.245   4.347
 2540SOL     OW 9189   2.997   4.427   4.441
 2540SOL    HW1 9190   3.054   4.505   4.416
 2540SOL    HW2 9191   2.937   4.453   4.517
 2541SOL     OW 9192   3.617   4.331   3.955
 2541SOL    HW1 9193   3.605   4.318   3.856
 2541SOL    HW2 9194   3.587   4.250   4.004
 2542SOL     OW 9195   2.630   4.868   4.747
 2542SOL    HW1 9196   2.552   4.885   4.807
 2542SOL    HW2 9197   2.664   4.955   4.711
 2543SOL     OW 9198   2.547   4.736   4.389
 2543SOL    HW1 9199   2.616   4.720   4.459
 2543SOL    HW2 9200   2.474   4.793   4.427
 2544SOL     OW 9201   2.197   5.159   4.785
 2544SOL    HW1 9202   2.119   5.128   4.732
 2544SOL    HW2 9203   2.255   5.217   4.728
 2545SOL     OW 9204   3.465   4.171   4.461
 2545SOL    HW1 9205   3.391   4.217   4.411
 2545SOL    HW2 9206   3.516   4.239   4.514
 2546SOL     OW 9207   2.102   4.815   4.610
 2546SOL    HW1 9208   2.116   4.731   4.662
 2546SOL    HW2 9209   2.047   4.879   4.665
 2547SOL     OW 9210   1.984   4.367   4.287
 2547SOL    HW1 9211   1.939   4.279   4.304
 2547SOL    HW2 9212   1.983   4.421   4.371
 2548SOL     OW 9213   3.551   4.646   4.336
 2548SOL    HW1 9214   3.646   4.617   4.344
 2548SOL    HW2 9215   3.543   4.711   4.261
 2549SOL     OW 9216   3.503   4.832   4.156
 2549SOL    HW1 9217   3.589   4.834   4.104
 2549SOL    HW2 9218   3.517   4.879   4.244
 2550SOL     OW 9219   2.671   3.728   4.226
 2550SOL    HW1 9220   2.711   3.819   4.217
 2550SOL    HW2 9221   2.571   3.736   4.232
 2551SOL     OW 9222   2.059   4.700   4.988
 2551SOL    HW1 9223   2.148   4.655   4.974
 2551SOL    HW2 9224   1.986   4.635   4.969
 2552SOL     OW 9225   3.387   4.723   3.914
 2552SOL    HW1 9226   3.324   4.647   3.927
 2552SOL    HW2 9227   3.435   4.741   4.000
 2553SOL     OW 9228   3.328   5.141   4.677
 2553SOL    HW1 9229   3.269   5.147   4.757
 2553SOL    HW2 9230   3.313   5.053   4.631
 2554SOL     OW 9231   2.460   4.453   3.994
 2554SOL    HW1 9232   2.484   4.522   3.926
 2554SOL    HW2 9233   2.382   4.486   4.048
 2555SOL     OW 9234   3.143   4.069   4.668
 2555SOL    HW1 9235   3.057   4.019   4.655
 2555SOL    HW2 9236   3.205   4.015   4.724
 2556SOL     OW 9237   2.903   4.425   4.153
 2556SOL    HW1 9238   2.929   4.421   4.249
 2556SOL    HW2 9239   2.818   4.374   4.139
 2557SOL     OW 9240   1.938   4.535   4.513
 2557SOL    HW1 9241   2.037   4.523   4.522
 2557SOL    HW2 9242   1.914   4.630   4.534
 2558SOL     OW 9243   2.727   4.072   3.919
 2558SOL    HW1 9244   2.786   4.135   3.870
 2558SOL    HW2 9245   2.746   3.978   3.890
 2559SOL     OW 9246   3.224   4.868   4.269
 2559SOL    HW1 9247   3.307   4.839   4.221
 2559SOL    HW2 9248   3.175   4.935   4.213
 2560SOL     OW 9249   3.657   4.790   4.597
 2560SOL    HW1 9250   3.595   4.775   4.521
 2560SOL    HW2 9251   3.605   4.801   4.682
 2561SOL     OW 9252   2.183   4.667   3.966
 2561SOL    HW1 9253   2.265   4.706   3.924
 2561SOL    HW2 9254   2.156   4.585   3.917
 2562SOL     OW 9255   3.320   4.459   4.452
 2562SOL    HW1 9256   3.315   4.394   4.527
 2562SOL    HW2 9257   3.400   4.518   4.465
 2563SOL     OW 9258   3.494   5.101   3.805
 2563SOL    HW1 9259   3.462   5.195   3.795
 2563SOL    HW2 9260   3.418   5.038   3.793
 2564SOL     OW 9261   3.262   3.831   4.150
 2564SOL    HW1 9262   3.238   3.794   4.060
 2564SOL    HW2 9263   3.361   3.847   4.154
 2565SOL     OW 9264   2.244   4.424   4.204
 2565SOL    HW1 9265   2.289   4.334   4.201
 2565SOL    HW2 9266   2.150   4.413   4.237
 2566SOL     OW 9267   2.476   3.846   3.841
 2566SOL    HW1 9268   2.574   3.824   3.848
 2566SOL    HW2 9269   2.445   3.829   3.748
 2567SOL     OW 9270   2.665   5.126   4.648
 2567SOL    HW1 9271   2.755   5.140   4.606
 2567SOL    HW2 9272   2.594   5.128   4.577
 2568SOL     OW 9273   2.401   3.788   4.236
 2568SOL    HW1 9274   2.320   3.789   4.294
 2568SOL    HW2 9275   2.404   3.871   4.181
 2569SOL     OW 9276   3.296   4.912   3.765
 2569SOL    HW1 9277   3.328   4.836   3.822
 2569SOL    HW2 9278   3.204   4.939   3.795
 2570SOL     OW 9279   2.159   3.759   3.895
 2570SOL    HW1 9280   2.208   3.843   3.874
 2570SOL    HW2 9281   2.221   3.694   3.940
 2571SOL     OW 9282   2.797   3.960   4.204
 2571SOL    HW1 9283   2.749   4.001   4.126
 2571SOL    HW2 9284   2.896   3.958   4.185
 2572SOL     OW 9285   3.089   5.294   4.517
 2572SOL    HW1 9286   3.110   5.368   4.452
 2572SOL    HW2 9287   3.157   5.294   4.590
 2573SOL     OW 9288   2.321   4.876   4.465
 2573SOL    HW1 9289   2.250   4.849   4.530
 2573SOL    HW2 9290   2.295   4.848   4.372
 2574SOL     OW 9291   2.894   4.273   3.740
 2574SOL    HW1 9292   2.853   4.355   3.701
 2574SOL    HW2 9293   2.958   4.299   3.813
 2575SOL     OW 9294   2.728   4.178   4.366
 2575SOL    HW1 9295   2.696   4.250   4.304
 2575SOL    HW2 9296   2.752   4.097   4.313
 2576SOL     OW 9297   2.879   3.763   4.477
 2576SOL    HW1 9298   2.807   3.768   4.408
 2576SOL    HW2 9299   2.855   3.694   4.546
 2577SOL     OW 9300   3.291   4.897   4.591
 2577SOL    HW1 9301   3.236   4.813   4.584
 2577SOL    HW2 9302   3.317   4.926   4.499
 2578SOL     OW 9303   3.328   4.314   4.716
 2578SOL    HW1 9304   3.298   4.219   4.723
 2578SOL    HW2 9305   3.401   4.330   4.782
 2579SOL     OW 9306   3.719   4.557   4.101
 2579SOL    HW1 9307   3.761   4.493   4.165
 2579SOL    HW2 9308   3.681   4.506   4.023
 2580SOL     OW 9309   3.526   5.004   4.381
 2580SOL    HW1 9310   3.625   5.012   4.395
 2580SOL    HW2 9311   3.481   5.088   4.412
 2581SOL     OW 9312   3.252   4.299   3.802
 2581SOL    HW1 9313   3.198   4.278   3.883
 2581SOL    HW2 9314   3.343   4.258   3.811
 2582SOL     OW 9315   2.389   3.980   4.052
 2582SOL    HW1 9316   2.416   3.921   3.977
 2582SOL    HW2 9317   2.389   4.075   4.021
 2583SOL     OW 9318   3.500   4.823   4.803
 2583SOL    HW1 9319   3.505   4.904   4.862
 2583SOL    HW2 9320   3.414   4.825   4.752
 2584SOL     OW 9321   2.567   4.774   4.092
 2584SOL    HW1 9322   2.553   4.781   4.191
 2584SOL    HW2 9323   2.651   4.723   4.074
 2585SOL     OW 9324   2.272   4.537   4.975
 2585SOL    HW1 9325   2.358   4.549   5.025
 2585SOL    HW2 9326   2.230   4.450   5.002
 2586SOL     OW 9327   3.136   4.110   4.986
 2586SOL    HW1 9328   3.157   4.184   5.050
 2586SOL    HW2 9329   3.047   4.127   4.943
 2587SOL     OW 9330   2.229   4.824   4.225
 2587SOL    HW1 9331   2.222   4.907   4.169
 2587SOL    HW2 9332   2.233   4.744   4.165
 2588SOL     OW 9333   2.428   4.261   4.589
 2588SOL    HW1 9334   2.440   4.327   4.515
 2588SOL    HW2 9335   2.474   4.295   4.672
 2589SOL     OW 9336   3.444   4.363   4.196
 2589SOL    HW1 9337   3.413   4.424   4.269
 2589SOL    HW2 9338   3.494   4.415   4.127
 2590SOL     OW 9339   2.435   4.594   4.753
 2590SOL    HW1 9340   2.479   4.683   4.744
 2590SOL    HW2 9341   2.372   4.594   4.830
 2591SOL     OW 9342   3.222   4.586   4.769
 2591SOL    HW1 9343   3.147   4.586   4.703
 2591SOL    HW2 9344   3.259   4.494   4.778
 2592SOL     OW 9345   3.071   4.249   3.999
 2592SOL    HW1 9346   3.084   4.165   4.053
 2592SOL    HW2 9347   3.042   4.323   4.059
 2593SOL     OW 9348   2.169   3.937   4.955
 2593SOL    HW1 9349   2.146   3.974   5.045
 2593SOL    HW2 9350   2.139   3.842   4.949
 2594SOL     OW 9351   3.484   4.091   4.098
 2594SOL    HW1 9352   3.486   4.015   4.162
 2594SOL    HW2 9353   3.436   4.168   4.138
 2595SOL     OW 9354   3.402   3.998   3.849
 2595SOL    HW1 9355   3.341   3.923   3.872
 2595SOL    HW2 9356   3.424   4.050   3.932
 2596SOL     OW 9357   3.165   4.562   3.766
 2596SOL    HW1 9358   3.199   4.469   3.781
 2596SOL    HW2 9359   3.183   4.589   3.671
 2597SOL     OW 9360   2.181   4.534   4.673
 2597SOL    HW1 9361   2.274   4.570   4.678
 2597SOL    HW2 9362   2.175   4.449   4.725
 2598SOL     OW 9363   3.022   3.931   5.201
 2598SOL    HW1 9364   3.022   3.995   5.278
 2598SOL    HW2 9365   3.050   3.979   5.118
 2599SOL     OW 9366   1.870   5.050   3.924
 2599SOL    HW1 9367   1.777   5.071   3.893
 2599SOL    HW2 9368   1.880   4.951   3.937
 2600SOL     OW 9369   2.864   4.520   4.962
 2600SOL    HW1 9370   2.905   4.488   5.048
 2600SOL    HW2 9371   2.768   4.493   4.959
 2601SOL     OW 9372   1.902   4.268   4.838
 2601SOL    HW1 9373   1.987   4.235   4.797
 2601SOL    HW2 9374   1.915   4.283   4.936
 2602SOL     OW 9375   2.677   4.296   4.049
 2602SOL    HW1 9376   2.684   4.207   4.003
 2602SOL    HW2 9377   2.583   4.330   4.041
 2603SOL     OW 9378   3.519   4.328   4.930
 2603SOL    HW1 9379   3.481   4.259   4.992
 2603SOL    HW2 9380   3.601   4.292   4.886
 2604SOL     OW 9381   2.335   4.224   3.915
 2604SOL    HW1 9382   2.396   4.304   3.919
 2604SOL    HW2 9383   2.240   4.255   3.922
 2605SOL     OW 9384   3.209   4.783   4.958
 2605SOL    HW1 9385   3.233   4.720   4.884
 2605SOL    HW2 9386   3.119   4.823   4.940
 2606SOL     OW 9387   3.164   4.579   4.033
 2606SOL    HW1 9388   3.078   4.548   4.075
 2606SOL    HW2 9389   3.160   4.565   3.934
 2607SOL     OW 9390   1.945   4.982   4.746
 2607SOL    HW1 9391   1.940   4.981   4.846
 2607SOL    HW2 9392   1.862   4.941   4.708
 2608SOL     OW 9393   3.588   3.859   4.247
 2608SOL    HW1 9394   3.661   3.842   4.180
 2608SOL    HW2 9395   3.557   3.772   4.285
 2609SOL     OW 9396   3.142   4.651   4.396
 2609SOL    HW1 9397   3.202   4.570   4.398
 2609SOL    HW2 9398   3.182   4.720   4.336
 2610SOL     OW 9399   2.692   4.997   5.146
 2610SOL    HW1 9400   2.687   5.030   5.241
 2610SOL    HW2 9401   2.606   5.016   5.100
 2611SOL     OW 9402   3.703   3.899   4.687
 2611SOL    HW1 9403   3.742   3.814   4.651
 2611SOL    HW2 9404   3.605   3.901   4.668
 2612SOL     OW 9405   3.056   5.336   3.755
 2612SOL    HW1 9406   3.062   5.243   3.792
 2612SOL    HW2 9407   2.997   5.336   3.675
 2613SOL     OW 9408   2.684   4.726   5.096
 2613SOL    HW1 9409   2.724   4.725   5.004
 2613SOL    HW2 9410   2.694   4.818   5.136
 2614SOL     OW 9411   2.778   4.634   4.015
 2614SOL    HW1 9412   2.841   4.672   3.947
 2614SOL    HW2 9413   2.818   4.551   4.054
 2615SOL     OW 9414   2.901   4.822   4.420
 2615SOL    HW1 9415   2.831   4.775   4.474
 2615SOL    HW2 9416   2.960   4.754   4.377
 2616SOL     OW 9417   2.876   3.960   4.695
 2616SOL    HW1 9418   2.868   3.924   4.602
 2616SOL    HW2 9419   2.874   3.884   4.760
 2617SOL     OW 9420   3.571   4.109   5.105
 2617SOL    HW1 9421   3.644   4.178   5.109
 2617SOL    HW2 9422   3.599   4.034   5.046
 2618SOL     OW 9423   1.937   4.069   3.757
 2618SOL    HW1 9424   1.845   4.041   3.728
 2618SOL    HW2 9425   1.968   4.146   3.701
 2619SOL     OW 9426   1.934   3.890   4.042
 2619SOL    HW1 9427   1.917   3.973   3.988
 2619SOL    HW2 9428   2.024   3.853   4.020
 2620SOL     OW 9429   3.312   4.944   5.357
 2620SOL    HW1 9430   3.303   4.934   5.456
 2620SOL    HW2 9431   3.408   4.937   5.331
 2621SOL     OW 9432   3.536   4.607   4.978
 2621SOL    HW1 9433   3.509   4.518   4.941
 2621SOL    HW2 9434   3.537   4.675   4.905
 2622SOL     OW 9435   3.087   4.049   4.173
 2622SOL    HW1 9436   3.152   3.975   4.162
 2622SOL    HW2 9437   3.107   4.099   4.257
 2623SOL     OW 9438   2.456   4.469   4.376
 2623SOL    HW1 9439   2.506   4.554   4.357
 2623SOL    HW2 9440   2.368   4.471   4.328
 2624SOL     OW 9441   3.592   4.658   5.241
 2624SOL    HW1 9442   3.630   4.749   5.256
 2624SOL    HW2 9443   3.584   4.641   5.142
 2625SOL     OW 9444   2.721   4.680   4.585
 2625SOL    HW1 9445   2.775   4.611   4.633
 2625SOL    HW2 9446   2.689   4.749   4.651
 2626SOL     OW 9447   2.945   4.708   3.811
 2626SOL    HW1 9448   2.922   4.761   3.729
 2626SOL    HW2 9449   3.026   4.652   3.792
 2627SOL     OW 9450   1.941   4.964   4.377
 2627SOL    HW1 9451   1.940   4.917   4.465
 2627SOL    HW2 9452   2.023   4.936   4.326
 2628SOL     OW 9453   3.686   3.916   4.951
 2628SOL    HW1 9454   3.682   3.826   4.995
 2628SOL    HW2 9455   3.689   3.905   4.852
 2629SOL     OW 9456   2.290   4.148   4.244
 2629SOL    HW1 9457   2.320   4.076   4.182
 2629SOL    HW2 9458   2.251   4.108   4.327
 2630SOL     OW 9459   3.286   3.938   4.836
 2630SOL    HW1 9460   3.338   3.873   4.891
 2630SOL    HW2 9461   3.237   4.001   4.897
 2631SOL     OW 9462   2.632   5.054   4.025
 2631SOL    HW1 9463   2.586   4.967   4.042
 2631SOL    HW2 9464   2.723   5.051   4.066
 2632SOL     OW 9465   3.214   3.776   3.892
 2632SOL    HW1 9466   3.249   3.735   3.808
 2632SOL    HW2 9467   3.124   3.738   3.912
 2633SOL     OW 9468   3.162   4.177   4.415
 2633SOL    HW1 9469   3.103   4.257   4.419
 2633SOL    HW2 9470   3.177   4.142   4.508
 2634SOL     OW 9471   3.455   3.945   4.606
 2634SOL    HW1 9472   3.371   3.944   4.660
 2634SOL    HW2 9473   3.457   4.028   4.550
 2635SOL     OW 9474   1.901   4.801   4.024
 2635SOL    HW1 9475   2.000   4.790   4.015
 2635SOL    HW2 9476   1.861   4.715   4.056
 2636SOL     OW 9477   3.954   0.628   0.113
 2636SOL    HW1 9478   3.861   0.626   0.150
 2636SOL    HW2 9479   3.955   0.589   0.021
 2637SOL     OW 9480   3.949   0.275   0.996
 2637SOL    HW1 9481   3.984   0.258   1.088
 2637SOL    HW2 9482   3.861   0.230   0.984
 2638SOL     OW 9483   3.743   0.368   0.647
 2638SOL    HW1 9484   3.661   0.411   0.686
 2638SOL    HW2 9485   3.715   0.295   0.584
 2639SOL     OW 9486   4.293   1.275   1.165
 2639SOL    HW1 9487   4.200   1.268   1.128
 2639SOL    HW2 9488   4.304   1.364   1.209
 2640SOL     OW 9489   4.859   0.703   0.717
 2640SOL    HW1 9490   4.916   0.781   0.692
 2640SOL    HW2 9491   4.799   0.729   0.793
 2641SOL     OW 9492   4.492   1.144   1.023
 2641SOL    HW1 9493   4.414   1.161   1.083
 2641SOL    HW2 9494   4.526   1.231   0.987
 2642SOL     OW 9495   4.574   0.798   1.823
 2642SOL    HW1 9496   4.570   0.874   1.888
 2642SOL    HW2 9497   4.596   0.834   1.732
 2643SOL     OW 9498   4.409   1.012   0.665
 2643SOL    HW1 9499   4.478   0.996   0.735
 2643SOL    HW2 9500   4.336   1.069   0.703
 2644SOL     OW 9501   4.410   1.161   1.803
 2644SOL    HW1 9502   4.470   1.240   1.817
 2644SOL    HW2 9503   4.324   1.192   1.762
 2645SOL     OW 9504   4.059   1.435   1.061
 2645SOL    HW1 9505   3.981   1.404   1.008
 2645SOL    HW2 9506   4.117   1.493   1.004
 2646SOL     OW 9507   4.162   0.392   1.499
 2646SOL    HW1 9508   4.244   0.336   1.508
 2646SOL    HW2 9509   4.081   0.334   1.503
 2647SOL     OW 9510   3.955   1.713   0.483
 2647SOL    HW1 9511   3.989   1.790   0.537
 2647SOL    HW2 9512   3.999   1.713   0.393
 2648SOL     OW 9513   4.851   1.341   1.690
 2648SOL    HW1 9514   4.898   1.341   1.778
 2648SOL    HW2 9515   4.803   1.254   1.679
 2649SOL     OW 9516   3.964   1.091   0.886
 2649SOL    HW1 9517   3.978   1.007   0.938
 2649SOL    HW2 9518   3.909   1.155   0.941
 2650SOL     OW 9519   4.344   1.786   1.439
 2650SOL    HW1 9520   4.252   1.769   1.474
 2650SOL    HW2 9521   4.372   1.878   1.465
 2651SOL     OW 9522   4.330   0.964   0.123
 2651SOL    HW1 9523   4.337   1.048   0.069
 2651SOL    HW2 9524   4.376   0.977   0.211
 2652SOL     OW 9525   3.846   0.643   0.563
 2652SOL    HW1 9526   3.801   0.555   0.580
 2652SOL    HW2 9527   3.845   0.697   0.647
 2653SOL     OW 9528   3.751   1.596   0.117
 2653SOL    HW1 9529   3.732   1.500   0.138
 2653SOL    HW2 9530   3.718   1.654   0.192
 2654SOL     OW 9531   5.017   1.228   1.423
 2654SOL    HW1 9532   5.054   1.155   1.365
 2654SOL    HW2 9533   5.069   1.233   1.508
 2655SOL     OW 9534   4.533   0.004   0.502
 2655SOL    HW1 9535   4.573   0.095   0.493
 2655SOL    HW2 9536   4.433   0.012   0.508
 2656SOL     OW 9537   3.921   0.976   1.264
 2656SOL    HW1 9538   4.010   0.931   1.250
 2656SOL    HW2 9539   3.848   0.911   1.245
 2657SOL     OW 9540   4.041   0.251   1.801
 2657SOL    HW1 9541   4.112   0.322   1.807
 2657SOL    HW2 9542   3.953   0.290   1.829
 2658SOL     OW 9543   4.322   0.729   0.270
 2658SOL    HW1 9544   4.346   0.798   0.202
 2658SOL    HW2 9545   4.244   0.762   0.324
 2659SOL     OW 9546   4.531   0.605   1.465
 2659SOL    HW1 9547   4.484   0.602   1.554
 2659SOL    HW2 9548   4.480   0.550   1.399
 2660SOL     OW 9549   4.697   0.890   1.572
 2660SOL    HW1 9550   4.743   0.806   1.543
 2660SOL    HW2 9551   4.641   0.924   1.497
 2661SOL     OW 9552   4.715   0.410   1.242
 2661SOL    HW1 9553   4.638   0.444   1.296
 2661SOL    HW2 9554   4.681   0.359   1.163
 2662SOL     OW 9555   4.765   0.701   0.429
 2662SOL    HW1 9556   4.791   0.697   0.525
 2662SOL    HW2 9557   4.680   0.650   0.415
 2663SOL     OW 9558   3.800   0.811   0.789
 2663SOL    HW1 9559   3.899   0.799   0.798
 2663SOL    HW2 9560   3.776   0.906   0.810
 2664SOL     OW 9561   3.854   1.821   1.571
 2664SOL    HW1 9562   3.844   1.806   1.670
 2664SOL    HW2 9563   3.768   1.857   1.535
 2665SOL     OW 9564   4.589   0.348   0.195
 2665SOL    HW1 9565   4.648   0.411   0.146
 2665SOL    HW2 9566   4.608   0.254   0.166
 2666SOL     OW 9567   4.274   0.196   0.885
 2666SOL    HW1 9568   4.269   0.191   0.985
 2666SOL    HW2 9569   4.276   0.292   0.856
 2667SOL     OW 9570   4.075   1.801   0.853
 2667SOL    HW1 9571   4.125   1.715   0.859
 2667SOL    HW2 9572   4.140   1.878   0.850
 2668SOL     OW 9573   4.951   1.550   1.506
 2668SOL    HW1 9574   4.957   1.473   1.570
 2668SOL    HW2 9575   4.899   1.524   1.426
 2669SOL     OW 9576   4.045   0.943   0.242
 2669SOL    HW1 9577   4.127   0.982   0.200
 2669SOL    HW2 9578   4.018   0.861   0.193
 2670SOL     OW 9579   4.185   1.266   1.727
 2670SOL    HW1 9580   4.135   1.267   1.641
 2670SOL    HW2 9581   4.122   1.248   1.803
 2671SOL     OW 9582   3.926   0.285   1.498
 2671SOL    HW1 9583   3.846   0.345   1.485
 2671SOL    HW2 9584   3.916   0.236   1.584
 2672SOL     OW 9585   5.356   1.377   0.081
 2672SOL    HW1 9586   5.324   1.471   0.071
 2672SOL    HW2 9587   5.280   1.314   0.069
 2673SOL     OW 9588   4.188   1.743   0.323
 2673SOL    HW1 9589   4.221   1.782   0.409
 2673SOL    HW2 9590   4.264   1.736   0.258
 2674SOL     OW 9591   3.973   1.785   1.241
 2674SOL    HW1 9592   4.030   1.720   1.291
 2674SOL    HW2 9593   3.957   1.752   1.148
 2675SOL     OW 9594   4.664   1.698   0.904
 2675SOL    HW1 9595   4.744   1.641   0.925
 2675SOL    HW2 9596   4.615   1.658   0.827
 2676SOL     OW 9597   4.106   0.700   0.480
 2676SOL    HW1 9598   4.151   0.610   0.477
 2676SOL    HW2 9599   4.012   0.689   0.513
 2677SOL     OW 9600   4.338   0.122   0.117
 2677SOL    HW1 9601   4.436   0.100   0.124
 2677SOL    HW2 9602   4.307   0.105   0.024
 2678SOL     OW 9603   4.612   1.514   1.195
 2678SOL    HW1 9604   4.589   1.489   1.101
 2678SOL    HW2 9605   4.673   1.445   1.234
 2679SOL     OW 9606   4.646   0.503   0.899
 2679SOL    HW1 9607   4.621   0.494   0.803
 2679SOL    HW2 9608   4.694   0.421   0.930
 2680SOL     OW 9609   4.263   0.064   0.512
 2680SOL    HW1 9610   4.182   0.065   0.570
 2680SOL    HW2 9611   4.266   0.147   0.457
 2681SOL     OW 9612   4.021   0.035   0.171
 2681SOL    HW1 9613   4.070   0.119   0.150
 2681SOL    HW2 9614   4.083  -0.030   0.216
 2682SOL     OW 9615   4.659   0.236   0.480
 2682SOL    HW1 9616   4.611   0.277   0.402
 2682SOL    HW2 9617   4.758   0.234   0.461
 2683SOL     OW 9618   4.800   0.683   1.464
 2683SOL    HW1 9619   4.720   0.622   1.467
 2683SOL    HW2 9620   4.881   0.630   1.440
 2684SOL     OW 9621   4.951   1.570   0.793
 2684SOL    HW1 9622   4.972   1.644   0.728
 2684SOL    HW2 9623   5.019   1.570   0.866
 2685SOL     OW 9624   4.756   0.549   0.016
 2685SOL    HW1 9625   4.715   0.631  -0.023
 2685SOL    HW2 9626   4.820   0.575   0.089
 2686SOL     OW 9627   4.285   0.222   1.147
 2686SOL    HW1 9628   4.323   0.138   1.184
 2686SOL    HW2 9629   4.197   0.241   1.191
 2687SOL     OW 9630   4.590   0.454   0.642
 2687SOL    HW1 9631   4.558   0.526   0.580
 2687SOL    HW2 9632   4.614   0.373   0.589
 2688SOL     OW 9633   4.741   0.039   0.753
 2688SOL    HW1 9634   4.669   0.044   0.684
 2688SOL    HW2 9635   4.717  -0.030   0.822
 2689SOL     OW 9636   4.251   0.256   0.328
 2689SOL    HW1 9637   4.278   0.197   0.253
 2689SOL    HW2 9638   4.251   0.351   0.297
 2690SOL     OW 9639   4.788   1.347   1.340
 2690SOL    HW1 9640   4.708   1.324   1.395
 2690SOL    HW2 9641   4.871   1.321   1.389
 2691SOL     OW 9642   4.835   1.195   1.100
 2691SOL    HW1 9643   4.795   1.239   1.181
 2691SOL    HW2 9644   4.794   1.232   1.017
 2692SOL     OW 9645   4.639   0.089   1.402
 2692SOL    HW1 9646   4.664   0.069   1.307
 2692SOL    HW2 9647   4.711   0.145   1.444
 2693SOL     OW 9648   4.704   1.116   1.719
 2693SOL    HW1 9649   4.605   1.122   1.729
 2693SOL    HW2 9650   4.727   1.036   1.663
 2694SOL     OW 9651   4.429   1.050   0.368
 2694SOL    HW1 9652   4.415   1.057   0.467
 2694SOL    HW2 9653   4.513   0.999   0.350
 2695SOL     OW 9654   4.134   0.813   1.251
 2695SOL    HW1 9655   4.220   0.825   1.301
 2695SOL    HW2 9656   4.092   0.726   1.278
 2696SOL     OW 9657   4.998   0.386   1.262
 2696SOL    HW1 9658   5.019   0.460   1.326
 2696SOL    HW2 9659   4.909   0.403   1.219
 2697SOL     OW 9660   3.788   1.564   1.331
 2697SOL    HW1 9661   3.742   1.646   1.297
 2697SOL    HW2 9662   3.886   1.583   1.340
 2698SOL     OW 9663   4.290   0.537   0.865
 2698SOL    HW1 9664   4.302   0.603   0.791
 2698SOL    HW2 9665   4.336   0.571   0.948
 2699SOL     OW 9666   4.078   1.510   1.329
 2699SOL    HW1 9667   4.057   1.466   1.242
 2699SOL    HW2 9668   4.175   1.536   1.332
 2700SOL     OW 9669   4.126   0.751   1.598
 2700SOL    HW1 9670   4.194   0.806   1.551
 2700SOL    HW2 9671   4.166   0.663   1.625
 2701SOL     OW 9672   4.228   0.050   1.740
 2701SOL    HW1 9673   4.186  -0.007   1.670
 2701SOL    HW2 9674   4.162   0.119   1.772
 2702SOL     OW 9675   4.297   0.870   1.029
 2702SOL    HW1 9676   4.341   0.959   1.020
 2702SOL    HW2 9677   4.234   0.870   1.106
 2703SOL     OW 9678   4.933   0.525   0.275
 2703SOL    HW1 9679   4.946   0.441   0.329
 2703SOL    HW2 9680   4.904   0.599   0.335
 2704SOL     OW 9681   4.031   0.213   1.231
 2704SOL    HW1 9682   4.008   0.250   1.321
 2704SOL    HW2 9683   4.001   0.118   1.225
 2705SOL     OW 9684   3.761   1.310   1.282
 2705SOL    HW1 9685   3.814   1.261   1.350
 2705SOL    HW2 9686   3.783   1.408   1.287
 2706SOL     OW 9687   4.456   0.634   1.064
 2706SOL    HW1 9688   4.515   0.608   0.988
 2706SOL    HW2 9689   4.428   0.730   1.053
 2707SOL     OW 9690   4.031   0.063   0.618
 2707SOL    HW1 9691   4.020   0.157   0.651
 2707SOL    HW2 9692   4.026   0.000   0.695
 2708SOL     OW 9693   4.747   0.766   0.966
 2708SOL    HW1 9694   4.762   0.787   1.062
 2708SOL    HW2 9695   4.717   0.671   0.957
 2709SOL     OW 9696   4.704   1.573   1.700
 2709SOL    HW1 9697   4.684   1.617   1.612
 2709SOL    HW2 9698   4.743   1.482   1.684
 2710SOL     OW 9699   4.074   0.898   1.804
 2710SOL    HW1 9700   4.150   0.942   1.852
 2710SOL    HW2 9701   4.109   0.851   1.722
 2711SOL     OW 9702   5.027   0.838   0.042
 2711SOL    HW1 9703   5.061   0.745   0.057
 2711SOL    HW2 9704   5.045   0.865  -0.053
 2712SOL     OW 9705   4.792   1.333   0.849
 2712SOL    HW1 9706   4.799   1.249   0.794
 2712SOL    HW2 9707   4.854   1.402   0.813
 2713SOL     OW 9708   4.043   0.810   0.949
 2713SOL    HW1 9709   4.136   0.846   0.954
 2713SOL    HW2 9710   4.037   0.725   1.001
 2714SOL     OW 9711   4.063   0.509   1.006
 2714SOL    HW1 9712   4.011   0.426   0.989
 2714SOL    HW2 9713   4.140   0.514   0.942
 2715SOL     OW 9714   4.884   0.207   1.477
 2715SOL    HW1 9715   4.884   0.271   1.554
 2715SOL    HW2 9716   4.912   0.255   1.394
 2716SOL     OW 9717   3.812   1.801   0.927
 2716SOL    HW1 9718   3.770   1.715   0.900
 2716SOL    HW2 9719   3.906   1.804   0.893
 2717SOL     OW 9720   4.726   0.796   1.238
 2717SOL    HW1 9721   4.767   0.764   1.324
 2717SOL    HW2 9722   4.630   0.769   1.235
 2718SOL     OW 9723   3.764   0.544   1.114
 2718SOL    HW1 9724   3.849   0.511   1.073
 2718SOL    HW2 9725   3.777   0.559   1.212
 2719SOL     OW 9726   4.539   0.572   0.325
 2719SOL    HW1 9727   4.546   0.483   0.279
 2719SOL    HW2 9728   4.445   0.606   0.317
 2720SOL     OW 9729   3.976   1.564   1.744
 2720SOL    HW1 9730   3.946   1.621   1.820
 2720SOL    HW2 9731   3.969   1.467   1.770
 2721SOL     OW 9732   4.395   0.464   1.269
 2721SOL    HW1 9733   4.361   0.375   1.239
 2721SOL    HW2 9734   4.421   0.518   1.189
 2722SOL     OW 9735   4.654   1.678   1.465
 2722SOL    HW1 9736   4.630   1.660   1.370
 2722SOL    HW2 9737   4.684   1.772   1.475
 2723SOL     OW 9738   4.197   0.500   0.191
 2723SOL    HW1 9739   4.258   0.580   0.195
 2723SOL    HW2 9740   4.102   0.531   0.198
 2724SOL     OW 9741   3.883   1.137   1.466
 2724SOL    HW1 9742   3.905   1.076   1.542
 2724SOL    HW2 9743   3.893   1.088   1.380
 2725SOL     OW 9744   5.071   1.059   1.234
 2725SOL    HW1 9745   5.095   0.996   1.160
 2725SOL    HW2 9746   4.981   1.099   1.216
 2726SOL     OW 9747   4.976   1.731   1.128
 2726SOL    HW1 9748   5.060   1.736   1.074
 2726SOL    HW2 9749   4.953   1.635   1.146
 2727SOL     OW 9750   3.807   1.258   1.022
 2727SOL    HW1 9751   3.802   1.257   1.122
 2727SOL    HW2 9752   3.724   1.217   0.984
 2728SOL     OW 9753   4.412   1.662   1.716
 2728SOL    HW1 9754   4.356   1.743   1.725
 2728SOL    HW2 9755   4.464   1.666   1.630
 2729SOL     OW 9756   4.627   0.086   0.133
 2729SOL    HW1 9757   4.678   0.087   0.047
 2729SOL    HW2 9758   4.683   0.044   0.204
 2730SOL     OW 9759   3.854   1.794   1.851
 2730SOL    HW1 9760   3.813   1.720   1.904
 2730SOL    HW2 9761   3.918   1.845   1.909
 2731SOL     OW 9762   4.554   1.273   1.422
 2731SOL    HW1 9763   4.549   1.306   1.517
 2731SOL    HW2 9764   4.468   1.292   1.376
 2732SOL     OW 9765   4.396   1.616   0.154
 2732SOL    HW1 9766   4.405   1.626   0.055
 2732SOL    HW2 9767   4.356   1.527   0.175
 2733SOL     OW 9768   3.987   0.326   0.720
 2733SOL    HW1 9769   3.908   0.377   0.686
 2733SOL    HW2 9770   3.978   0.311   0.818
 2734SOL     OW 9771   4.918   1.612   0.031
 2734SOL    HW1 9772   4.924   1.519   0.068
 2734SOL    HW2 9773   4.859   1.612  -0.049
 2735SOL     OW 9774   4.546   1.002   1.372
 2735SOL    HW1 9775   4.586   1.001   1.280
 2735SOL    HW2 9776   4.556   1.094   1.412
 2736SOL     OW 9777   4.640   0.910   0.291
 2736SOL    HW1 9778   4.703   0.948   0.223
 2736SOL    HW2 9779   4.680   0.827   0.330
 2737SOL     OW 9780   4.096   1.288   1.490
 2737SOL    HW1 9781   4.083   1.381   1.456
 2737SOL    HW2 9782   4.012   1.236   1.477
 2738SOL     OW 9783   4.763   1.098   0.696
 2738SOL    HW1 9784   4.693   1.051   0.750
 2738SOL    HW2 9785   4.822   1.030   0.653
 2739SOL     OW 9786   4.738   0.236   0.971
 2739SOL    HW1 9787   4.730   0.200   0.878
 2739SOL    HW2 9788   4.736   0.160   1.036
 2740SOL     OW 9789   3.979   1.348   0.290
 2740SOL    HW1 9790   3.883   1.349   0.263
 2740SOL    HW2 9791   3.991   1.401   0.374
 2741SOL     OW 9792   3.829   1.013   1.726
 2741SOL    HW1 9793   3.752   0.980   1.780
 2741SOL    HW2 9794   3.914   0.983   1.768
 2742SOL     OW 9795   4.396   0.203   1.489
 2742SOL    HW1 9796   4.486   0.187   1.449
 2742SOL    HW2 9797   4.404   0.208   1.588
 2743SOL     OW 9798   5.164   0.856   1.398
 2743SOL    HW1 9799   5.107   0.908   1.335
 2743SOL    HW2 9800   5.260   0.868   1.374
 2744SOL     OW 9801   3.796   0.166   0.318
 2744SOL    HW1 9802   3.779   0.249   0.264
 2744SOL    HW2 9803   3.886   0.129   0.296
 2745SOL     OW 9804   4.337   0.842   1.431
 2745SOL    HW1 9805   4.393   0.923   1.414
 2745SOL    HW2 9806   4.396   0.762   1.434
 2746SOL     OW 9807   4.440   0.565   1.708
 2746SOL    HW1 9808   4.459   0.630   1.782
 2746SOL    HW2 9809   4.500   0.485   1.717
 2747SOL     OW 9810   4.114   1.741   1.560
 2747SOL    HW1 9811   4.023   1.782   1.558
 2747SOL    HW2 9812   4.107   1.647   1.592
 2748SOL     OW 9813   4.318   0.745   0.652
 2748SOL    HW1 9814   4.368   0.830   0.633
 2748SOL    HW2 9815   4.230   0.747   0.604
 2749SOL     OW 9816   4.385   1.790   0.953
 2749SOL    HW1 9817   4.339   1.878   0.940
 2749SOL    HW2 9818   4.484   1.802   0.946
 2750SOL     OW 9819   4.583   0.956   0.861
 2750SOL    HW1 9820   4.637   0.887   0.909
 2750SOL    HW2 9821   4.551   1.025   0.927
 2751SOL     OW 9822   4.807   0.984   0.087
 2751SOL    HW1 9823   4.784   1.037   0.005
 2751SOL    HW2 9824   4.888   0.928   0.068
 2752SOL     OW 9825   3.945   1.314   1.844
 2752SOL    HW1 9826   3.880   1.241   1.823
 2752SOL    HW2 9827   3.949   1.328   1.942
 2753SOL     OW 9828   4.396   1.391   1.624
 2753SOL    HW1 9829   4.318   1.341   1.662
 2753SOL    HW2 9830   4.393   1.486   1.655
 2754SOL     OW 9831   4.152   0.424   0.520
 2754SOL    HW1 9832   4.182   0.352   0.458
 2754SOL    HW2 9833   4.113   0.384   0.603
 2755SOL     OW 9834   4.041   0.547   1.280
 2755SOL    HW1 9835   4.079   0.488   1.352
 2755SOL    HW2 9836   4.081   0.521   1.192
 2756SOL     OW 9837   4.725   0.034   1.154
 2756SOL    HW1 9838   4.662  -0.038   1.123
 2756SOL    HW2 9839   4.818  -0.002   1.154
 2757SOL     OW 9840   4.342   1.567   1.284
 2757SOL    HW1 9841   4.337   1.649   1.341
 2757SOL    HW2 9842   4.431   1.564   1.239
 2758SOL     OW 9843   3.763   1.077   0.300
 2758SOL    HW1 9844   3.862   1.066   0.291
 2758SOL    HW2 9845   3.723   0.991   0.332
 2759SOL     OW 9846   4.599   1.646   0.337
 2759SOL    HW1 9847   4.522   1.611   0.283
 2759SOL    HW2 9848   4.567   1.717   0.399
 2760SOL     OW 9849   3.954   0.628   1.975
 2760SOL    HW1 9850   3.861   0.626   2.012
 2760SOL    HW2 9851   3.955   0.589   1.883
 2761SOL     OW 9852   3.949   0.275   2.858
 2761SOL    HW1 9853   3.984   0.258   2.950
 2761SOL    HW2 9854   3.861   0.230   2.846
 2762SOL     OW 9855   3.743   0.368   2.509
 2762SOL    HW1 9856   3.661   0.411   2.548
 2762SOL    HW2 9857   3.715   0.295   2.446
 2763SOL     OW 9858   4.859   0.703   2.579
 2763SOL    HW1 9859   4.916   0.781   2.554
 2763SOL    HW2 9860   4.799   0.729   2.655
 2764SOL     OW 9861   4.574   0.798   3.685
 2764SOL    HW1 9862   4.570   0.874   3.750
 2764SOL    HW2 9863   4.596   0.834   3.594
 2765SOL     OW 9864   4.059   1.435   2.923
 2765SOL    HW1 9865   3.981   1.404   2.870
 2765SOL    HW2 9866   4.117   1.493   2.866
 2766SOL     OW 9867   4.162   0.392   3.361
 2766SOL    HW1 9868   4.244   0.336   3.370
 2766SOL    HW2 9869   4.081   0.334   3.365
 2767SOL     OW 9870   3.955   1.713   2.345
 2767SOL    HW1 9871   3.989   1.790   2.399
 2767SOL    HW2 9872   3.999   1.713   2.255
 2768SOL     OW 9873   4.851   1.341   3.552
 2768SOL    HW1 9874   4.898   1.341   3.640
 2768SOL    HW2 9875   4.803   1.254   3.541
 2769SOL     OW 9876   3.954   1.434   2.400
 2769SOL    HW1 9877   3.928   1.530   2.400
 2769SOL    HW2 9878   3.883   1.380   2.445
 2770SOL     OW 9879   4.344   1.786   3.301
 2770SOL    HW1 9880   4.252   1.769   3.336
 2770SOL    HW2 9881   4.372   1.878   3.327
 2771SOL     OW 9882   4.330   0.964   1.985
 2771SOL    HW1 9883   4.337   1.048   1.931
 2771SOL    HW2 9884   4.376   0.977   2.073
 2772SOL     OW 9885   3.846   0.643   2.425
 2772SOL    HW1 9886   3.801   0.555   2.442
 2772SOL    HW2 9887   3.845   0.697   2.509
 2773SOL     OW 9888   3.751   1.596   1.979
 2773SOL    HW1 9889   3.732   1.500   2.000
 2773SOL    HW2 9890   3.718   1.654   2.054
 2774SOL     OW 9891   5.017   1.228   3.285
 2774SOL    HW1 9892   5.054   1.155   3.227
 2774SOL    HW2 9893   5.069   1.233   3.370
 2775SOL     OW 9894   4.533   0.004   2.364
 2775SOL    HW1 9895   4.573   0.095   2.355
 2775SOL    HW2 9896   4.433   0.012   2.370
 2776SOL     OW 9897   3.921   0.976   3.126
 2776SOL    HW1 9898   4.010   0.931   3.112
 2776SOL    HW2 9899   3.848   0.911   3.107
 2777SOL     OW 9900   4.911   1.792   3.478
 2777SOL    HW1 9901   4.935   1.852   3.402
 2777SOL    HW2 9902   4.918   1.697   3.448
 2778SOL     OW 9903   4.041   0.251   3.663
 2778SOL    HW1 9904   4.112   0.322   3.669
 2778SOL    HW2 9905   3.953   0.290   3.691
 2779SOL     OW 9906   4.322   0.729   2.132
 2779SOL    HW1 9907   4.346   0.798   2.064
 2779SOL    HW2 9908   4.244   0.762   2.186
 2780SOL     OW 9909   5.005   0.345   2.806
 2780SOL    HW1 9910   4.919   0.295   2.793
 2780SOL    HW2 9911   5.067   0.291   2.862
 2781SOL     OW 9912   4.531   0.605   3.327
 2781SOL    HW1 9913   4.484   0.602   3.416
 2781SOL    HW2 9914   4.480   0.550   3.261
 2782SOL     OW 9915   4.697   0.890   3.434
 2782SOL    HW1 9916   4.743   0.806   3.405
 2782SOL    HW2 9917   4.641   0.924   3.359
 2783SOL     OW 9918   4.715   0.410   3.104
 2783SOL    HW1 9919   4.638   0.444   3.158
 2783SOL    HW2 9920   4.681   0.359   3.025
 2784SOL     OW 9921   4.765   0.701   2.291
 2784SOL    HW1 9922   4.791   0.697   2.387
 2784SOL    HW2 9923   4.680   0.650   2.277
 2785SOL     OW 9924   3.800   0.811   2.651
 2785SOL    HW1 9925   3.899   0.799   2.660
 2785SOL    HW2 9926   3.776   0.906   2.672
 2786SOL     OW 9927   4.274   0.196   2.747
 2786SOL    HW1 9928   4.269   0.191   2.847
 2786SOL    HW2 9929   4.276   0.292   2.718
 2787SOL     OW 9930   4.075   1.801   2.715
 2787SOL    HW1 9931   4.125   1.715   2.721
 2787SOL    HW2 9932   4.140   1.878   2.712
 2788SOL     OW 9933   4.951   1.550   3.368
 2788SOL    HW1 9934   4.957   1.473   3.432
 2788SOL    HW2 9935   4.899   1.524   3.288
 2789SOL     OW 9936   4.045   0.943   2.104
 2789SOL    HW1 9937   4.127   0.982   2.062
 2789SOL    HW2 9938   4.018   0.861   2.055
 2790SOL     OW 9939   4.835   1.776   2.099
 2790SOL    HW1 9940   4.775   1.714   2.149
 2790SOL    HW2 9941   4.866   1.732   2.014
 2791SOL     OW 9942   3.926   0.285   3.360
 2791SOL    HW1 9943   3.846   0.345   3.347
 2791SOL    HW2 9944   3.916   0.236   3.446
 2792SOL     OW 9945   4.188   1.743   2.185
 2792SOL    HW1 9946   4.221   1.782   2.271
 2792SOL    HW2 9947   4.264   1.736   2.120
 2793SOL     OW 9948   3.973   1.785   3.103
 2793SOL    HW1 9949   4.030   1.720   3.153
 2793SOL    HW2 9950   3.957   1.752   3.010
 2794SOL     OW 9951   4.664   1.698   2.766
 2794SOL    HW1 9952   4.744   1.641   2.787
 2794SOL    HW2 9953   4.615   1.658   2.689
 2795SOL     OW 9954   4.106   0.700   2.342
 2795SOL    HW1 9955   4.151   0.610   2.339
 2795SOL    HW2 9956   4.012   0.689   2.375
 2796SOL     OW 9957   4.505   0.264   3.611
 2796SOL    HW1 9958   4.572   0.203   3.654
 2796SOL    HW2 9959   4.432   0.283   3.676
 2797SOL     OW 9960   4.612   1.514   3.057
 2797SOL    HW1 9961   4.589   1.489   2.963
 2797SOL    HW2 9962   4.673   1.445   3.096
 2798SOL     OW 9963   4.646   0.503   2.761
 2798SOL    HW1 9964   4.621   0.494   2.665
 2798SOL    HW2 9965   4.694   0.421   2.792
 2799SOL     OW 9966   4.263   0.064   2.374
 2799SOL    HW1 9967   4.182   0.065   2.432
 2799SOL    HW2 9968   4.266   0.147   2.319
 2800SOL     OW 9969   4.021   0.035   2.033
 2800SOL    HW1 9970   4.070   0.119   2.012
 2800SOL    HW2 9971   4.083  -0.030   2.078
 2801SOL     OW 9972   4.800   0.683   3.326
 2801SOL    HW1 9973   4.720   0.622   3.329
 2801SOL    HW2 9974   4.881   0.630   3.302
 2802SOL     OW 9975   4.951   1.570   2.655
 2802SOL    HW1 9976   4.972   1.644   2.590
 2802SOL    HW2 9977   5.019   1.570   2.728
 2803SOL     OW 9978   4.995   1.797   2.453
 2803SOL    HW1 9979   5.039   1.861   2.389
 2803SOL    HW2 9980   4.945   1.849   2.523
 2804SOL     OW 9981   4.756   0.549   1.878
 2804SOL    HW1 9982   4.715   0.631   1.839
 2804SOL    HW2 9983   4.820   0.575   1.951
 2805SOL     OW 9984   4.285   0.222   3.009
 2805SOL    HW1 9985   4.323   0.138   3.046
 2805SOL    HW2 9986   4.197   0.241   3.053
 2806SOL     OW 9987   4.590   0.454   2.504
 2806SOL    HW1 9988   4.558   0.526   2.442
 2806SOL    HW2 9989   4.614   0.373   2.451
 2807SOL     OW 9990   4.741   0.039   2.615
 2807SOL    HW1 9991   4.669   0.044   2.546
 2807SOL    HW2 9992   4.717  -0.030   2.684
 2808SOL     OW 9993   4.212   1.385   2.036
 2808SOL    HW1 9994   4.125   1.370   2.083
 2808SOL    HW2 9995   4.195   1.411   1.941
 2809SOL     OW 9996   5.388   1.280   2.519
 2809SOL    HW1 9997   5.487   1.288   2.533
 2809SOL    HW2 9998   5.343   1.364   2.550
 2810SOL     OW 9999   4.251   0.256   2.190
 2810SOL    HW110000   4.278   0.197   2.115
 2810SOL    HW210001   4.251   0.351   2.159
 2811SOL     OW10002   4.788   1.347   3.202
 2811SOL    HW110003   4.708   1.324   3.257
 2811SOL    HW210004   4.871   1.321   3.251
 2812SOL     OW10005   4.835   1.195   2.962
 2812SOL    HW110006   4.795   1.239   3.043
 2812SOL    HW210007   4.794   1.232   2.879
 2813SOL     OW10008   4.704   1.116   3.581
 2813SOL    HW110009   4.605   1.122   3.591
 2813SOL    HW210010   4.727   1.036   3.525
 2814SOL     OW10011   4.134   0.813   3.113
 2814SOL    HW110012   4.220   0.825   3.163
 2814SOL    HW210013   4.092   0.726   3.140
 2815SOL     OW10014   4.998   0.386   3.124
 2815SOL    HW110015   5.019   0.460   3.188
 2815SOL    HW210016   4.909   0.403   3.081
 2816SOL     OW10017   3.788   1.564   3.193
 2816SOL    HW110018   3.742   1.646   3.159
 2816SOL    HW210019   3.886   1.583   3.202
 2817SOL     OW10020   4.290   0.537   2.727
 2817SOL    HW110021   4.302   0.603   2.653
 2817SOL    HW210022   4.336   0.571   2.810
 2818SOL     OW10023   4.976   1.348   2.250
 2818SOL    HW110024   5.026   1.425   2.290
 2818SOL    HW210025   4.881   1.350   2.282
 2819SOL     OW10026   4.078   1.510   3.191
 2819SOL    HW110027   4.057   1.466   3.104
 2819SOL    HW210028   4.175   1.536   3.194
 2820SOL     OW10029   4.126   0.751   3.460
 2820SOL    HW110030   4.194   0.806   3.413
 2820SOL    HW210031   4.166   0.663   3.487
 2821SOL     OW10032   4.228   0.050   3.602
 2821SOL    HW110033   4.186  -0.007   3.532
 2821SOL    HW210034   4.162   0.119   3.634
 2822SOL     OW10035   4.297   0.870   2.891
 2822SOL    HW110036   4.341   0.959   2.882
 2822SOL    HW210037   4.234   0.870   2.968
 2823SOL     OW10038   5.084   0.862   2.907
 2823SOL    HW110039   5.009   0.862   2.841
 2823SOL    HW210040   5.121   0.770   2.916
 2824SOL     OW10041   4.933   0.525   2.137
 2824SOL    HW110042   4.946   0.441   2.191
 2824SOL    HW210043   4.904   0.599   2.197
 2825SOL     OW10044   4.031   0.213   3.093
 2825SOL    HW110045   4.008   0.250   3.183
 2825SOL    HW210046   4.001   0.118   3.087
 2826SOL     OW10047   3.761   1.310   3.144
 2826SOL    HW110048   3.814   1.261   3.212
 2826SOL    HW210049   3.783   1.408   3.149
 2827SOL     OW10050   4.456   0.634   2.926
 2827SOL    HW110051   4.515   0.608   2.850
 2827SOL    HW210052   4.428   0.730   2.915
 2828SOL     OW10053   4.031   0.063   2.480
 2828SOL    HW110054   4.020   0.157   2.513
 2828SOL    HW210055   4.026   0.000   2.557
 2829SOL     OW10056   5.346   0.367   2.236
 2829SOL    HW110057   5.348   0.291   2.300
 2829SOL    HW210058   5.298   0.444   2.276
 2830SOL     OW10059   4.747   0.766   2.828
 2830SOL    HW110060   4.762   0.787   2.924
 2830SOL    HW210061   4.717   0.671   2.819
 2831SOL     OW10062   4.704   1.573   3.562
 2831SOL    HW110063   4.684   1.617   3.474
 2831SOL    HW210064   4.743   1.482   3.546
 2832SOL     OW10065   4.074   0.898   3.666
 2832SOL    HW110066   4.150   0.942   3.714
 2832SOL    HW210067   4.109   0.851   3.584
 2833SOL     OW10068   5.027   0.838   1.904
 2833SOL    HW110069   5.061   0.745   1.919
 2833SOL    HW210070   5.045   0.865   1.809
 2834SOL     OW10071   4.792   1.333   2.711
 2834SOL    HW110072   4.799   1.249   2.656
 2834SOL    HW210073   4.854   1.402   2.675
 2835SOL     OW10074   4.043   0.810   2.811
 2835SOL    HW110075   4.136   0.846   2.816
 2835SOL    HW210076   4.037   0.725   2.863
 2836SOL     OW10077   3.812   1.801   2.789
 2836SOL    HW110078   3.770   1.715   2.762
 2836SOL    HW210079   3.906   1.804   2.755
 2837SOL     OW10080   4.726   0.796   3.100
 2837SOL    HW110081   4.767   0.764   3.186
 2837SOL    HW210082   4.630   0.769   3.097
 2838SOL     OW10083   3.913   0.520   3.584
 2838SOL    HW110084   3.972   0.480   3.514
 2838SOL    HW210085   3.855   0.591   3.543
 2839SOL     OW10086   4.539   0.572   2.187
 2839SOL    HW110087   4.546   0.483   2.141
 2839SOL    HW210088   4.445   0.606   2.179
 2840SOL     OW10089   4.395   0.464   3.131
 2840SOL    HW110090   4.361   0.375   3.101
 2840SOL    HW210091   4.421   0.518   3.051
 2841SOL     OW10092   4.654   1.678   3.327
 2841SOL    HW110093   4.630   1.660   3.232
 2841SOL    HW210094   4.684   1.772   3.337
 2842SOL     OW10095   4.197   0.500   2.053
 2842SOL    HW110096   4.258   0.580   2.057
 2842SOL    HW210097   4.102   0.531   2.060
 2843SOL     OW10098   3.883   1.137   3.328
 2843SOL    HW110099   3.905   1.076   3.404
 2843SOL    HW210100   3.893   1.088   3.242
 2844SOL     OW10101   5.071   1.059   3.096
 2844SOL    HW110102   5.095   0.996   3.022
 2844SOL    HW210103   4.981   1.099   3.078
 2845SOL     OW10104   4.976   1.731   2.990
 2845SOL    HW110105   5.060   1.736   2.936
 2845SOL    HW210106   4.953   1.635   3.008
 2846SOL     OW10107   3.807   1.258   2.884
 2846SOL    HW110108   3.802   1.257   2.984
 2846SOL    HW210109   3.724   1.217   2.846
 2847SOL     OW10110   4.412   1.662   3.578
 2847SOL    HW110111   4.356   1.743   3.587
 2847SOL    HW210112   4.464   1.666   3.492
 2848SOL     OW10113   5.112   1.573   2.339
 2848SOL    HW110114   5.179   1.585   2.265
 2848SOL    HW210115   5.072   1.662   2.362
 2849SOL     OW10116   5.004   0.927   2.534
 2849SOL    HW110117   5.064   0.846   2.536
 2849SOL    HW210118   5.044   0.996   2.474
 2850SOL     OW10119   4.554   1.273   3.284
 2850SOL    HW110120   4.549   1.306   3.379
 2850SOL    HW210121   4.468   1.292   3.238
 2851SOL     OW10122   4.396   1.616   2.016
 2851SOL    HW110123   4.405   1.626   1.917
 2851SOL    HW210124   4.356   1.527   2.037
 2852SOL     OW10125   3.987   0.326   2.582
 2852SOL    HW110126   3.908   0.377   2.548
 2852SOL    HW210127   3.978   0.311   2.680
 2853SOL     OW10128   4.918   1.612   1.893
 2853SOL    HW110129   4.924   1.519   1.930
 2853SOL    HW210130   4.859   1.612   1.813
 2854SOL     OW10131   4.546   1.002   3.234
 2854SOL    HW110132   4.586   1.001   3.142
 2854SOL    HW210133   4.556   1.094   3.274
 2855SOL     OW10134   4.640   0.910   2.153
 2855SOL    HW110135   4.703   0.948   2.085
 2855SOL    HW210136   4.680   0.827   2.192
 2856SOL     OW10137   4.096   1.288   3.352
 2856SOL    HW110138   4.083   1.381   3.318
 2856SOL    HW210139   4.012   1.236   3.339
 2857SOL     OW10140   4.763   1.098   2.558
 2857SOL    HW110141   4.693   1.051   2.612
 2857SOL    HW210142   4.822   1.030   2.515
 2858SOL     OW10143   4.738   0.236   2.833
 2858SOL    HW110144   4.730   0.200   2.740
 2858SOL    HW210145   4.736   0.160   2.898
 2859SOL     OW10146   4.314   1.487   2.353
 2859SOL    HW110147   4.356   1.429   2.283
 2859SOL    HW210148   4.270   1.566   2.309
 2860SOL     OW10149   3.979   1.348   2.152
 2860SOL    HW110150   3.883   1.349   2.125
 2860SOL    HW210151   3.991   1.401   2.236
 2861SOL     OW10152   4.396   0.203   3.351
 2861SOL    HW110153   4.486   0.187   3.311
 2861SOL    HW210154   4.404   0.208   3.450
 2862SOL     OW10155   3.799   0.345   1.895
 2862SOL    HW110156   3.707   0.317   1.866
 2862SOL    HW210157   3.830   0.422   1.839
 2863SOL     OW10158   5.164   0.856   3.260
 2863SOL    HW110159   5.107   0.908   3.197
 2863SOL    HW210160   5.260   0.868   3.236
 2864SOL     OW10161   3.796   0.166   2.180
 2864SOL    HW110162   3.779   0.249   2.126
 2864SOL    HW210163   3.886   0.129   2.158
 2865SOL     OW10164   4.337   0.842   3.293
 2865SOL    HW110165   4.393   0.923   3.276
 2865SOL    HW210166   4.396   0.762   3.296
 2866SOL     OW10167   4.440   0.565   3.570
 2866SOL    HW110168   4.459   0.630   3.644
 2866SOL    HW210169   4.500   0.485   3.579
 2867SOL     OW10170   4.114   1.741   3.422
 2867SOL    HW110171   4.023   1.782   3.420
 2867SOL    HW210172   4.107   1.647   3.454
 2868SOL     OW10173   4.949   0.325   2.311
 2868SOL    HW110174   5.014   0.251   2.300
 2868SOL    HW210175   4.969   0.375   2.395
 2869SOL     OW10176   4.318   0.745   2.514
 2869SOL    HW110177   4.368   0.830   2.495
 2869SOL    HW210178   4.230   0.747   2.466
 2870SOL     OW10179   4.583   1.374   1.878
 2870SOL    HW110180   4.537   1.389   1.966
 2870SOL    HW210181   4.627   1.459   1.848
 2871SOL     OW10182   4.385   1.790   2.815
 2871SOL    HW110183   4.339   1.878   2.802
 2871SOL    HW210184   4.484   1.802   2.808
 2872SOL     OW10185   4.807   0.984   1.949
 2872SOL    HW110186   4.784   1.037   1.867
 2872SOL    HW210187   4.888   0.928   1.930
 2873SOL     OW10188   3.803   1.240   2.515
 2873SOL    HW110189   3.802   1.193   2.603
 2873SOL    HW210190   3.885   1.212   2.464
 2874SOL     OW10191   4.152   0.424   2.382
 2874SOL    HW110192   4.182   0.352   2.320
 2874SOL    HW210193   4.113   0.384   2.465
 2875SOL     OW10194   4.725   0.034   3.016
 2875SOL    HW110195   4.662  -0.038   2.985
 2875SOL    HW210196   4.818  -0.002   3.016
 2876SOL     OW10197   4.494   1.330   2.163
 2876SOL    HW110198   4.448   1.243   2.180
 2876SOL    HW210199   4.585   1.327   2.204
 2877SOL     OW10200   4.342   1.567   3.146
 2877SOL    HW110201   4.337   1.649   3.203
 2877SOL    HW210202   4.431   1.564   3.101
 2878SOL     OW10203   3.763   1.077   2.162
 2878SOL    HW110204   3.862   1.066   2.153
 2878SOL    HW210205   3.723   0.991   2.194
 2879SOL     OW10206   4.599   1.646   2.199
 2879SOL    HW110207   4.522   1.611   2.145
 2879SOL    HW210208   4.567   1.717   2.261
 2880SOL     OW10209   3.954   0.628   3.837
 2880SOL    HW110210   3.861   0.626   3.874
 2880SOL    HW210211   3.955   0.589   3.745
 2881SOL     OW10212   3.949   0.275   4.720
 2881SOL    HW110213   3.984   0.258   4.812
 2881SOL    HW210214   3.861   0.230   4.708
 2882SOL     OW10215   3.743   0.368   4.371
 2882SOL    HW110216   3.661   0.411   4.410
 2882SOL    HW210217   3.715   0.295   4.308
 2883SOL     OW10218   4.859   0.703   4.441
 2883SOL    HW110219   4.916   0.781   4.416
 2883SOL    HW210220   4.799   0.729   4.517
 2884SOL     OW10221   4.492   1.144   4.747
 2884SOL    HW110222   4.414   1.161   4.807
 2884SOL    HW210223   4.526   1.231   4.711
 2885SOL     OW10224   4.409   1.012   4.389
 2885SOL    HW110225   4.478   0.996   4.459
 2885SOL    HW210226   4.336   1.069   4.427
 2886SOL     OW10227   4.059   1.435   4.785
 2886SOL    HW110228   3.981   1.404   4.732
 2886SOL    HW210229   4.117   1.493   4.728
 2887SOL     OW10230   3.955   1.713   4.207
 2887SOL    HW110231   3.989   1.790   4.261
 2887SOL    HW210232   3.999   1.713   4.117
 2888SOL     OW10233   3.954   1.434   4.262
 2888SOL    HW110234   3.928   1.530   4.262
 2888SOL    HW210235   3.883   1.380   4.307
 2889SOL     OW10236   3.964   1.091   4.610
 2889SOL    HW110237   3.978   1.007   4.662
 2889SOL    HW210238   3.909   1.155   4.665
 2890SOL     OW10239   4.344   1.786   5.163
 2890SOL    HW110240   4.252   1.769   5.198
 2890SOL    HW210241   4.372   1.878   5.189
 2891SOL     OW10242   4.330   0.964   3.847
 2891SOL    HW110243   4.337   1.048   3.793
 2891SOL    HW210244   4.376   0.977   3.935
 2892SOL     OW10245   3.846   0.643   4.287
 2892SOL    HW110246   3.801   0.555   4.304
 2892SOL    HW210247   3.845   0.697   4.371
 2893SOL     OW10248   3.751   1.596   3.841
 2893SOL    HW110249   3.732   1.500   3.862
 2893SOL    HW210250   3.718   1.654   3.916
 2894SOL     OW10251   4.337   1.365   4.450
 2894SOL    HW110252   4.288   1.278   4.459
 2894SOL    HW210253   4.314   1.408   4.363
 2895SOL     OW10254   4.533   0.004   4.226
 2895SOL    HW110255   4.573   0.095   4.217
 2895SOL    HW210256   4.433   0.012   4.232
 2896SOL     OW10257   3.921   0.976   4.988
 2896SOL    HW110258   4.010   0.931   4.974
 2896SOL    HW210259   3.848   0.911   4.969
 2897SOL     OW10260   4.322   0.729   3.994
 2897SOL    HW110261   4.346   0.798   3.926
 2897SOL    HW210262   4.244   0.762   4.048
 2898SOL     OW10263   5.005   0.345   4.668
 2898SOL    HW110264   4.919   0.295   4.655
 2898SOL    HW210265   5.067   0.291   4.724
 2899SOL     OW10266   4.715   0.410   4.966
 2899SOL    HW110267   4.638   0.444   5.020
 2899SOL    HW210268   4.681   0.359   4.887
 2900SOL     OW10269   4.765   0.701   4.153
 2900SOL    HW110270   4.791   0.697   4.249
 2900SOL    HW210271   4.680   0.650   4.139
 2901SOL     OW10272   3.800   0.811   4.513
 2901SOL    HW110273   3.899   0.799   4.522
 2901SOL    HW210274   3.776   0.906   4.534
 2902SOL     OW10275   4.589   0.348   3.919
 2902SOL    HW110276   4.648   0.411   3.870
 2902SOL    HW210277   4.608   0.254   3.890
 2903SOL     OW10278   4.274   0.196   4.609
 2903SOL    HW110279   4.269   0.191   4.709
 2903SOL    HW210280   4.276   0.292   4.580
 2904SOL     OW10281   4.075   1.801   4.577
 2904SOL    HW110282   4.125   1.715   4.583
 2904SOL    HW210283   4.140   1.878   4.574
 2905SOL     OW10284   4.045   0.943   3.966
 2905SOL    HW110285   4.127   0.982   3.924
 2905SOL    HW210286   4.018   0.861   3.917
 2906SOL     OW10287   4.835   1.776   3.961
 2906SOL    HW110288   4.775   1.714   4.011
 2906SOL    HW210289   4.866   1.732   3.876
 2907SOL     OW10290   3.973   1.785   4.965
 2907SOL    HW110291   4.030   1.720   5.015
 2907SOL    HW210292   3.957   1.752   4.872
 2908SOL     OW10293   4.664   1.698   4.628
 2908SOL    HW110294   4.744   1.641   4.649
 2908SOL    HW210295   4.615   1.658   4.551
 2909SOL     OW10296   4.106   0.700   4.204
 2909SOL    HW110297   4.151   0.610   4.201
 2909SOL    HW210298   4.012   0.689   4.237
 2910SOL     OW10299   4.338   0.122   3.841
 2910SOL    HW110300   4.436   0.100   3.848
 2910SOL    HW210301   4.307   0.105   3.748
 2911SOL     OW10302   4.527   1.402   4.648
 2911SOL    HW110303   4.617   1.416   4.606
 2911SOL    HW210304   4.456   1.404   4.577
 2912SOL     OW10305   4.646   0.503   4.623
 2912SOL    HW110306   4.621   0.494   4.527
 2912SOL    HW210307   4.694   0.421   4.654
 2913SOL     OW10308   4.263   0.064   4.236
 2913SOL    HW110309   4.182   0.065   4.294
 2913SOL    HW210310   4.266   0.147   4.181
 2914SOL     OW10311   4.021   0.035   3.895
 2914SOL    HW110312   4.070   0.119   3.874
 2914SOL    HW210313   4.083  -0.030   3.940
 2915SOL     OW10314   4.659   0.236   4.204
 2915SOL    HW110315   4.611   0.277   4.126
 2915SOL    HW210316   4.758   0.234   4.185
 2916SOL     OW10317   4.951   1.570   4.517
 2916SOL    HW110318   4.972   1.644   4.452
 2916SOL    HW210319   5.019   1.570   4.590
 2917SOL     OW10320   4.183   1.152   4.465
 2917SOL    HW110321   4.112   1.125   4.530
 2917SOL    HW210322   4.157   1.124   4.372
 2918SOL     OW10323   4.995   1.797   4.315
 2918SOL    HW110324   5.039   1.861   4.251
 2918SOL    HW210325   4.945   1.849   4.385
 2919SOL     OW10326   4.285   0.222   4.871
 2919SOL    HW110327   4.323   0.138   4.908
 2919SOL    HW210328   4.197   0.241   4.915
 2920SOL     OW10329   4.590   0.454   4.366
 2920SOL    HW110330   4.558   0.526   4.304
 2920SOL    HW210331   4.614   0.373   4.313
 2921SOL     OW10332   4.741   0.039   4.477
 2921SOL    HW110333   4.669   0.044   4.408
 2921SOL    HW210334   4.717  -0.030   4.546
 2922SOL     OW10335   4.251   0.256   4.052
 2922SOL    HW110336   4.278   0.197   3.977
 2922SOL    HW210337   4.251   0.351   4.021
 2923SOL     OW10338   5.316   1.629   5.349
 2923SOL    HW110339   5.343   1.663   5.259
 2923SOL    HW210340   5.395   1.591   5.395
 2924SOL     OW10341   4.835   1.195   4.824
 2924SOL    HW110342   4.795   1.239   4.905
 2924SOL    HW210343   4.794   1.232   4.741
 2925SOL     OW10344   4.429   1.050   4.092
 2925SOL    HW110345   4.415   1.057   4.191
 2925SOL    HW210346   4.513   0.999   4.074
 2926SOL     OW10347   4.134   0.813   4.975
 2926SOL    HW110348   4.220   0.825   5.025
 2926SOL    HW210349   4.092   0.726   5.002
 2927SOL     OW10350   4.091   1.100   4.225
 2927SOL    HW110351   4.084   1.183   4.169
 2927SOL    HW210352   4.095   1.020   4.165
 2928SOL     OW10353   4.290   0.537   4.589
 2928SOL    HW110354   4.302   0.603   4.515
 2928SOL    HW210355   4.336   0.571   4.672
 2929SOL     OW10356   4.078   1.510   5.053
 2929SOL    HW110357   4.057   1.466   4.966
 2929SOL    HW210358   4.175   1.536   5.056
 2930SOL     OW10359   4.297   0.870   4.753
 2930SOL    HW110360   4.341   0.959   4.744
 2930SOL    HW210361   4.234   0.870   4.830
 2931SOL     OW10362   5.084   0.862   4.769
 2931SOL    HW110363   5.009   0.862   4.703
 2931SOL    HW210364   5.121   0.770   4.778
 2932SOL     OW10365   4.933   0.525   3.999
 2932SOL    HW110366   4.946   0.441   4.053
 2932SOL    HW210367   4.904   0.599   4.059
 2933SOL     OW10368   4.031   0.213   4.955
 2933SOL    HW110369   4.008   0.250   5.045
 2933SOL    HW210370   4.001   0.118   4.949
 2934SOL     OW10371   3.761   1.310   5.006
 2934SOL    HW110372   3.814   1.261   5.074
 2934SOL    HW210373   3.783   1.408   5.011
 2935SOL     OW10374   4.456   0.634   4.788
 2935SOL    HW110375   4.515   0.608   4.712
 2935SOL    HW210376   4.428   0.730   4.777
 2936SOL     OW10377   4.031   0.063   4.342
 2936SOL    HW110378   4.020   0.157   4.375
 2936SOL    HW210379   4.026   0.000   4.419
 2937SOL     OW10380   5.346   0.367   4.098
 2937SOL    HW110381   5.348   0.291   4.162
 2937SOL    HW210382   5.298   0.444   4.138
 2938SOL     OW10383   4.747   0.766   4.690
 2938SOL    HW110384   4.762   0.787   4.786
 2938SOL    HW210385   4.717   0.671   4.681
 2939SOL     OW10386   5.027   0.838   3.766
 2939SOL    HW110387   5.061   0.745   3.781
 2939SOL    HW210388   5.045   0.865   3.671
 2940SOL     OW10389   4.792   1.333   4.573
 2940SOL    HW110390   4.799   1.249   4.518
 2940SOL    HW210391   4.854   1.402   4.537
 2941SOL     OW10392   4.043   0.810   4.673
 2941SOL    HW110393   4.136   0.846   4.678
 2941SOL    HW210394   4.037   0.725   4.725
 2942SOL     OW10395   4.063   0.509   4.730
 2942SOL    HW110396   4.011   0.426   4.713
 2942SOL    HW210397   4.140   0.514   4.666
 2943SOL     OW10398   4.884   0.207   5.201
 2943SOL    HW110399   4.884   0.271   5.278
 2943SOL    HW210400   4.912   0.255   5.118
 2944SOL     OW10401   3.732   1.326   3.924
 2944SOL    HW110402   3.639   1.347   3.893
 2944SOL    HW210403   3.742   1.227   3.937
 2945SOL     OW10404   3.812   1.801   4.651
 2945SOL    HW110405   3.770   1.715   4.624
 2945SOL    HW210406   3.906   1.804   4.617
 2946SOL     OW10407   4.228   1.568   4.634
 2946SOL    HW110408   4.294   1.642   4.643
 2946SOL    HW210409   4.272   1.489   4.592
 2947SOL     OW10410   4.726   0.796   4.962
 2947SOL    HW110411   4.767   0.764   5.048
 2947SOL    HW210412   4.630   0.769   4.959
 2948SOL     OW10413   3.764   0.544   4.838
 2948SOL    HW110414   3.849   0.511   4.797
 2948SOL    HW210415   3.777   0.559   4.936
 2949SOL     OW10416   4.539   0.572   4.049
 2949SOL    HW110417   4.546   0.483   4.003
 2949SOL    HW210418   4.445   0.606   4.041
 2950SOL     OW10419   4.395   0.464   4.993
 2950SOL    HW110420   4.361   0.375   4.963
 2950SOL    HW210421   4.421   0.518   4.913
 2951SOL     OW10422   4.654   1.678   5.189
 2951SOL    HW110423   4.630   1.660   5.094
 2951SOL    HW210424   4.684   1.772   5.199
 2952SOL     OW10425   4.197   0.500   3.915
 2952SOL    HW110426   4.258   0.580   3.919
 2952SOL    HW210427   4.102   0.531   3.922
 2953SOL     OW10428   5.071   1.059   4.958
 2953SOL    HW110429   5.095   0.996   4.884
 2953SOL    HW210430   4.981   1.099   4.940
 2954SOL     OW10431   4.976   1.731   4.852
 2954SOL    HW110432   5.060   1.736   4.798
 2954SOL    HW210433   4.953   1.635   4.870
 2955SOL     OW10434   5.004   0.927   4.396
 2955SOL    HW110435   5.064   0.846   4.398
 2955SOL    HW210436   5.044   0.996   4.336
 2956SOL     OW10437   3.987   0.326   4.444
 2956SOL    HW110438   3.908   0.377   4.410
 2956SOL    HW210439   3.978   0.311   4.542
 2957SOL     OW10440   4.918   1.612   3.755
 2957SOL    HW110441   4.924   1.519   3.792
 2957SOL    HW210442   4.859   1.612   3.675
 2958SOL     OW10443   4.546   1.002   5.096
 2958SOL    HW110444   4.586   1.001   5.004
 2958SOL    HW210445   4.556   1.094   5.136
 2959SOL     OW10446   4.640   0.910   4.015
 2959SOL    HW110447   4.703   0.948   3.947
 2959SOL    HW210448   4.680   0.827   4.054
 2960SOL     OW10449   4.763   1.098   4.420
 2960SOL    HW110450   4.693   1.051   4.474
 2960SOL    HW210451   4.822   1.030   4.377
 2961SOL     OW10452   4.738   0.236   4.695
 2961SOL    HW110453   4.730   0.200   4.602
 2961SOL    HW210454   4.736   0.160   4.760
 2962SOL     OW10455   4.314   1.487   4.215
 2962SOL    HW110456   4.356   1.429   4.145
 2962SOL    HW210457   4.270   1.566   4.171
 2963SOL     OW10458   3.799   0.345   3.757
 2963SOL    HW110459   3.707   0.317   3.728
 2963SOL    HW210460   3.830   0.422   3.701
 2964SOL     OW10461   3.796   0.166   4.042
 2964SOL    HW110462   3.779   0.249   3.988
 2964SOL    HW210463   3.886   0.129   4.020
 2965SOL     OW10464   4.949   0.325   4.173
 2965SOL    HW110465   5.014   0.251   4.162
 2965SOL    HW210466   4.969   0.375   4.257
 2966SOL     OW10467   4.318   0.745   4.376
 2966SOL    HW110468   4.368   0.830   4.357
 2966SOL    HW210469   4.230   0.747   4.328
 2967SOL     OW10470   4.583   1.374   3.740
 2967SOL    HW110471   4.537   1.389   3.828
 2967SOL    HW210472   4.627   1.459   3.710
 2968SOL     OW10473   4.385   1.790   4.677
 2968SOL    HW110474   4.339   1.878   4.664
 2968SOL    HW210475   4.484   1.802   4.670
 2969SOL     OW10476   4.583   0.956   4.585
 2969SOL    HW110477   4.637   0.887   4.633
 2969SOL    HW210478   4.551   1.025   4.651
 2970SOL     OW10479   4.807   0.984   3.811
 2970SOL    HW110480   4.784   1.037   3.729
 2970SOL    HW210481   4.888   0.928   3.792
 2971SOL     OW10482   4.152   0.424   4.244
 2971SOL    HW110483   4.182   0.352   4.182
 2971SOL    HW210484   4.113   0.384   4.327
 2972SOL     OW10485   4.536   1.586   4.411
 2972SOL    HW110486   4.568   1.596   4.317
 2972SOL    HW210487   4.457   1.524   4.413
 2973SOL     OW10488   4.725   0.034   4.878
 2973SOL    HW110489   4.662  -0.038   4.847
 2973SOL    HW210490   4.818  -0.002   4.878
 2974SOL     OW10491   4.494   1.330   4.025
 2974SOL    HW110492   4.448   1.243   4.042
 2974SOL    HW210493   4.585   1.327   4.066
 2975SOL     OW10494   3.763   1.077   4.024
 2975SOL    HW110495   3.862   1.066   4.015
 2975SOL    HW210496   3.723   0.991   4.056
 2976SOL     OW10497   3.954   2.490   0.113
 2976SOL    HW110498   3.861   2.488   0.150
 2976SOL    HW210499   3.955   2.451   0.021
 2977SOL     OW10500   3.949   2.137   0.996
 2977SOL    HW110501   3.984   2.120   1.088
 2977SOL    HW210502   3.861   2.092   0.984
 2978SOL     OW10503   3.743   2.230   0.647
 2978SOL    HW110504   3.661   2.273   0.686
 2978SOL    HW210505   3.715   2.157   0.584
 2979SOL     OW10506   4.293   3.137   1.165
 2979SOL    HW110507   4.200   3.130   1.128
 2979SOL    HW210508   4.304   3.226   1.209
 2980SOL     OW10509   4.859   2.565   0.717
 2980SOL    HW110510   4.916   2.643   0.692
 2980SOL    HW210511   4.799   2.591   0.793
 2981SOL     OW10512   4.492   3.006   1.023
 2981SOL    HW110513   4.414   3.023   1.083
 2981SOL    HW210514   4.526   3.093   0.987
 2982SOL     OW10515   4.409   2.874   0.665
 2982SOL    HW110516   4.478   2.858   0.735
 2982SOL    HW210517   4.336   2.931   0.703
 2983SOL     OW10518   4.410   3.023   1.803
 2983SOL    HW110519   4.470   3.102   1.817
 2983SOL    HW210520   4.324   3.054   1.762
 2984SOL     OW10521   4.059   3.297   1.061
 2984SOL    HW110522   3.981   3.266   1.008
 2984SOL    HW210523   4.117   3.355   1.004
 2985SOL     OW10524   4.162   2.254   1.499
 2985SOL    HW110525   4.244   2.198   1.508
 2985SOL    HW210526   4.081   2.196   1.503
 2986SOL     OW10527   3.955   3.575   0.483
 2986SOL    HW110528   3.989   3.652   0.537
 2986SOL    HW210529   3.999   3.575   0.393
 2987SOL     OW10530   4.851   3.203   1.690
 2987SOL    HW110531   4.898   3.203   1.778
 2987SOL    HW210532   4.803   3.116   1.679
 2988SOL     OW10533   3.954   3.296   0.538
 2988SOL    HW110534   3.928   3.392   0.538
 2988SOL    HW210535   3.883   3.242   0.583
 2989SOL     OW10536   3.964   2.953   0.886
 2989SOL    HW110537   3.978   2.869   0.938
 2989SOL    HW210538   3.909   3.017   0.941
 2990SOL     OW10539   4.344   3.648   1.439
 2990SOL    HW110540   4.252   3.631   1.474
 2990SOL    HW210541   4.372   3.740   1.465
 2991SOL     OW10542   4.330   2.826   0.123
 2991SOL    HW110543   4.337   2.910   0.069
 2991SOL    HW210544   4.376   2.839   0.211
 2992SOL     OW10545   3.751   3.458   0.117
 2992SOL    HW110546   3.732   3.362   0.138
 2992SOL    HW210547   3.718   3.516   0.192
 2993SOL     OW10548   3.837   2.599   1.597
 2993SOL    HW110549   3.925   2.586   1.642
 2993SOL    HW210550   3.824   2.696   1.575
 2994SOL     OW10551   4.337   3.227   0.726
 2994SOL    HW110552   4.288   3.140   0.735
 2994SOL    HW210553   4.314   3.270   0.639
 2995SOL     OW10554   5.017   3.090   1.423
 2995SOL    HW110555   5.054   3.017   1.365
 2995SOL    HW210556   5.069   3.095   1.508
 2996SOL     OW10557   4.533   1.866   0.502
 2996SOL    HW110558   4.573   1.957   0.493
 2996SOL    HW210559   4.433   1.874   0.508
 2997SOL     OW10560   3.921   2.838   1.264
 2997SOL    HW110561   4.010   2.793   1.250
 2997SOL    HW210562   3.848   2.773   1.245
 2998SOL     OW10563   4.911   3.654   1.616
 2998SOL    HW110564   4.935   3.714   1.540
 2998SOL    HW210565   4.918   3.559   1.586
 2999SOL     OW10566   4.041   2.113   1.801
 2999SOL    HW110567   4.112   2.184   1.807
 2999SOL    HW210568   3.953   2.152   1.829
 3000SOL     OW10569   4.322   2.591   0.270
 3000SOL    HW110570   4.346   2.660   0.202
 3000SOL    HW210571   4.244   2.624   0.324
 3001SOL     OW10572   5.005   2.207   0.944
 3001SOL    HW110573   4.919   2.157   0.931
 3001SOL    HW210574   5.067   2.153   1.000
 3002SOL     OW10575   4.531   2.467   1.465
 3002SOL    HW110576   4.484   2.464   1.554
 3002SOL    HW210577   4.480   2.412   1.399
 3003SOL     OW10578   4.715   2.272   1.242
 3003SOL    HW110579   4.638   2.306   1.296
 3003SOL    HW210580   4.681   2.221   1.163
 3004SOL     OW10581   4.765   2.563   0.429
 3004SOL    HW110582   4.791   2.559   0.525
 3004SOL    HW210583   4.680   2.512   0.415
 3005SOL     OW10584   3.800   2.673   0.789
 3005SOL    HW110585   3.899   2.661   0.798
 3005SOL    HW210586   3.776   2.768   0.810
 3006SOL     OW10587   3.854   3.683   1.571
 3006SOL    HW110588   3.844   3.668   1.670
 3006SOL    HW210589   3.768   3.719   1.535
 3007SOL     OW10590   4.589   2.210   0.195
 3007SOL    HW110591   4.648   2.273   0.146
 3007SOL    HW210592   4.608   2.116   0.166
 3008SOL     OW10593   4.274   2.058   0.885
 3008SOL    HW110594   4.269   2.053   0.985
 3008SOL    HW210595   4.276   2.154   0.856
 3009SOL     OW10596   4.732   3.318   0.477
 3009SOL    HW110597   4.686   3.390   0.425
 3009SOL    HW210598   4.728   3.338   0.575
 3010SOL     OW10599   4.075   3.663   0.853
 3010SOL    HW110600   4.125   3.577   0.859
 3010SOL    HW210601   4.140   3.740   0.850
 3011SOL     OW10602   4.951   3.412   1.506
 3011SOL    HW110603   4.957   3.335   1.570
 3011SOL    HW210604   4.899   3.386   1.426
 3012SOL     OW10605   4.045   2.805   0.242
 3012SOL    HW110606   4.127   2.844   0.200
 3012SOL    HW210607   4.018   2.723   0.193
 3013SOL     OW10608   4.835   3.638   0.237
 3013SOL    HW110609   4.775   3.576   0.287
 3013SOL    HW210610   4.866   3.594   0.152
 3014SOL     OW10611   3.926   2.147   1.498
 3014SOL    HW110612   3.846   2.207   1.485
 3014SOL    HW210613   3.916   2.098   1.584
 3015SOL     OW10614   5.356   3.239   0.081
 3015SOL    HW110615   5.324   3.333   0.071
 3015SOL    HW210616   5.280   3.176   0.069
 3016SOL     OW10617   4.188   3.605   0.323
 3016SOL    HW110618   4.221   3.644   0.409
 3016SOL    HW210619   4.264   3.598   0.258
 3017SOL     OW10620   3.973   3.647   1.241
 3017SOL    HW110621   4.030   3.582   1.291
 3017SOL    HW210622   3.957   3.614   1.148
 3018SOL     OW10623   4.664   3.560   0.904
 3018SOL    HW110624   4.744   3.503   0.925
 3018SOL    HW210625   4.615   3.520   0.827
 3019SOL     OW10626   4.106   2.562   0.480
 3019SOL    HW110627   4.151   2.472   0.477
 3019SOL    HW210628   4.012   2.551   0.513
 3020SOL     OW10629   4.505   2.126   1.749
 3020SOL    HW110630   4.572   2.065   1.792
 3020SOL    HW210631   4.432   2.145   1.814
 3021SOL     OW10632   4.612   3.376   1.195
 3021SOL    HW110633   4.589   3.351   1.101
 3021SOL    HW210634   4.673   3.307   1.234
 3022SOL     OW10635   4.527   3.264   0.924
 3022SOL    HW110636   4.617   3.278   0.882
 3022SOL    HW210637   4.456   3.266   0.853
 3023SOL     OW10638   4.646   2.365   0.899
 3023SOL    HW110639   4.621   2.356   0.803
 3023SOL    HW210640   4.694   2.283   0.930
 3024SOL     OW10641   4.263   1.926   0.512
 3024SOL    HW110642   4.182   1.927   0.570
 3024SOL    HW210643   4.266   2.009   0.457
 3025SOL     OW10644   4.021   1.897   0.171
 3025SOL    HW110645   4.070   1.981   0.150
 3025SOL    HW210646   4.083   1.832   0.216
 3026SOL     OW10647   4.659   2.098   0.480
 3026SOL    HW110648   4.611   2.139   0.402
 3026SOL    HW210649   4.758   2.096   0.461
 3027SOL     OW10650   4.800   2.545   1.464
 3027SOL    HW110651   4.720   2.484   1.467
 3027SOL    HW210652   4.881   2.492   1.440
 3028SOL     OW10653   4.951   3.432   0.793
 3028SOL    HW110654   4.972   3.506   0.728
 3028SOL    HW210655   5.019   3.432   0.866
 3029SOL     OW10656   4.183   3.014   0.741
 3029SOL    HW110657   4.112   2.987   0.806
 3029SOL    HW210658   4.157   2.986   0.648
 3030SOL     OW10659   4.995   3.659   0.591
 3030SOL    HW110660   5.039   3.723   0.527
 3030SOL    HW210661   4.945   3.711   0.661
 3031SOL     OW10662   4.756   2.411   0.016
 3031SOL    HW110663   4.715   2.493  -0.023
 3031SOL    HW210664   4.820   2.437   0.089
 3032SOL     OW10665   3.802   2.418   1.386
 3032SOL    HW110666   3.894   2.417   1.345
 3032SOL    HW210667   3.796   2.492   1.453
 3033SOL     OW10668   4.285   2.084   1.147
 3033SOL    HW110669   4.323   2.000   1.184
 3033SOL    HW210670   4.197   2.103   1.191
 3034SOL     OW10671   4.590   2.316   0.642
 3034SOL    HW110672   4.558   2.388   0.580
 3034SOL    HW210673   4.614   2.235   0.589
 3035SOL     OW10674   4.741   1.901   0.753
 3035SOL    HW110675   4.669   1.906   0.684
 3035SOL    HW210676   4.717   1.832   0.822
 3036SOL     OW10677   4.212   3.247   0.174
 3036SOL    HW110678   4.125   3.232   0.221
 3036SOL    HW210679   4.195   3.273   0.079
 3037SOL     OW10680   5.388   3.142   0.657
 3037SOL    HW110681   5.487   3.150   0.671
 3037SOL    HW210682   5.343   3.226   0.688
 3038SOL     OW10683   4.251   2.118   0.328
 3038SOL    HW110684   4.278   2.059   0.253
 3038SOL    HW210685   4.251   2.213   0.297
 3039SOL     OW10686   4.788   3.209   1.340
 3039SOL    HW110687   4.708   3.186   1.395
 3039SOL    HW210688   4.871   3.183   1.389
 3040SOL     OW10689   4.835   3.057   1.100
 3040SOL    HW110690   4.795   3.101   1.181
 3040SOL    HW210691   4.794   3.094   1.017
 3041SOL     OW10692   4.639   1.951   1.402
 3041SOL    HW110693   4.664   1.931   1.307
 3041SOL    HW210694   4.711   2.007   1.444
 3042SOL     OW10695   4.704   2.978   1.719
 3042SOL    HW110696   4.605   2.984   1.729
 3042SOL    HW210697   4.727   2.898   1.663
 3043SOL     OW10698   4.429   2.912   0.368
 3043SOL    HW110699   4.415   2.919   0.467
 3043SOL    HW210700   4.513   2.861   0.350
 3044SOL     OW10701   4.134   2.675   1.251
 3044SOL    HW110702   4.220   2.687   1.301
 3044SOL    HW210703   4.092   2.588   1.278
 3045SOL     OW10704   4.998   2.248   1.262
 3045SOL    HW110705   5.019   2.322   1.326
 3045SOL    HW210706   4.909   2.265   1.219
 3046SOL     OW10707   3.788   3.426   1.331
 3046SOL    HW110708   3.742   3.508   1.297
 3046SOL    HW210709   3.886   3.445   1.340
 3047SOL     OW10710   4.091   2.962   0.501
 3047SOL    HW110711   4.084   3.045   0.445
 3047SOL    HW210712   4.095   2.882   0.441
 3048SOL     OW10713   4.290   2.399   0.865
 3048SOL    HW110714   4.302   2.465   0.791
 3048SOL    HW210715   4.336   2.433   0.948
 3049SOL     OW10716   4.976   3.210   0.388
 3049SOL    HW110717   5.026   3.287   0.428
 3049SOL    HW210718   4.881   3.212   0.420
 3050SOL     OW10719   4.078   3.372   1.329
 3050SOL    HW110720   4.057   3.328   1.242
 3050SOL    HW210721   4.175   3.398   1.332
 3051SOL     OW10722   4.126   2.613   1.598
 3051SOL    HW110723   4.194   2.668   1.551
 3051SOL    HW210724   4.166   2.525   1.625
 3052SOL     OW10725   4.737   1.967   1.770
 3052SOL    HW110726   4.743   2.052   1.718
 3052SOL    HW210727   4.769   1.891   1.713
 3053SOL     OW10728   4.228   1.912   1.740
 3053SOL    HW110729   4.186   1.855   1.670
 3053SOL    HW210730   4.162   1.981   1.772
 3054SOL     OW10731   4.297   2.732   1.029
 3054SOL    HW110732   4.341   2.821   1.020
 3054SOL    HW210733   4.234   2.732   1.106
 3055SOL     OW10734   5.084   2.724   1.045
 3055SOL    HW110735   5.009   2.724   0.979
 3055SOL    HW210736   5.121   2.632   1.054
 3056SOL     OW10737   4.031   2.075   1.231
 3056SOL    HW110738   4.008   2.112   1.321
 3056SOL    HW210739   4.001   1.980   1.225
 3057SOL     OW10740   3.761   3.172   1.282
 3057SOL    HW110741   3.814   3.123   1.350
 3057SOL    HW210742   3.783   3.270   1.287
 3058SOL     OW10743   4.456   2.496   1.064
 3058SOL    HW110744   4.515   2.470   0.988
 3058SOL    HW210745   4.428   2.592   1.053
 3059SOL     OW10746   4.031   1.925   0.618
 3059SOL    HW110747   4.020   2.019   0.651
 3059SOL    HW210748   4.026   1.862   0.695
 3060SOL     OW10749   5.346   2.229   0.374
 3060SOL    HW110750   5.348   2.153   0.438
 3060SOL    HW210751   5.298   2.306   0.414
 3061SOL     OW10752   4.747   2.628   0.966
 3061SOL    HW110753   4.762   2.649   1.062
 3061SOL    HW210754   4.717   2.533   0.957
 3062SOL     OW10755   4.704   3.435   1.700
 3062SOL    HW110756   4.684   3.479   1.612
 3062SOL    HW210757   4.743   3.344   1.684
 3063SOL     OW10758   5.027   2.700   0.042
 3063SOL    HW110759   5.061   2.607   0.057
 3063SOL    HW210760   5.045   2.727  -0.053
 3064SOL     OW10761   4.792   3.195   0.849
 3064SOL    HW110762   4.799   3.111   0.794
 3064SOL    HW210763   4.854   3.264   0.813
 3065SOL     OW10764   4.043   2.672   0.949
 3065SOL    HW110765   4.136   2.708   0.954
 3065SOL    HW210766   4.037   2.587   1.001
 3066SOL     OW10767   4.063   2.371   1.006
 3066SOL    HW110768   4.011   2.288   0.989
 3066SOL    HW210769   4.140   2.376   0.942
 3067SOL     OW10770   4.862   2.242   1.678
 3067SOL    HW110771   4.817   2.305   1.742
 3067SOL    HW210772   4.955   2.273   1.661
 3068SOL     OW10773   3.812   3.663   0.927
 3068SOL    HW110774   3.770   3.577   0.900
 3068SOL    HW210775   3.906   3.666   0.893
 3069SOL     OW10776   4.228   3.430   0.910
 3069SOL    HW110777   4.294   3.504   0.919
 3069SOL    HW210778   4.272   3.351   0.868
 3070SOL     OW10779   4.726   2.658   1.238
 3070SOL    HW110780   4.767   2.626   1.324
 3070SOL    HW210781   4.630   2.631   1.235
 3071SOL     OW10782   3.764   2.406   1.114
 3071SOL    HW110783   3.849   2.373   1.073
 3071SOL    HW210784   3.777   2.421   1.212
 3072SOL     OW10785   3.913   2.382   1.722
 3072SOL    HW110786   3.972   2.342   1.652
 3072SOL    HW210787   3.855   2.453   1.681
 3073SOL     OW10788   4.539   2.434   0.325
 3073SOL    HW110789   4.546   2.345   0.279
 3073SOL    HW210790   4.445   2.468   0.317
 3074SOL     OW10791   3.976   3.426   1.744
 3074SOL    HW110792   3.946   3.483   1.820
 3074SOL    HW210793   3.969   3.329   1.770
 3075SOL     OW10794   4.395   2.326   1.269
 3075SOL    HW110795   4.361   2.237   1.239
 3075SOL    HW210796   4.421   2.380   1.189
 3076SOL     OW10797   4.654   3.540   1.465
 3076SOL    HW110798   4.630   3.522   1.370
 3076SOL    HW210799   4.684   3.634   1.475
 3077SOL     OW10800   4.197   2.362   0.191
 3077SOL    HW110801   4.258   2.442   0.195
 3077SOL    HW210802   4.102   2.393   0.198
 3078SOL     OW10803   3.883   2.999   1.466
 3078SOL    HW110804   3.905   2.938   1.542
 3078SOL    HW210805   3.893   2.950   1.380
 3079SOL     OW10806   5.071   2.921   1.234
 3079SOL    HW110807   5.095   2.858   1.160
 3079SOL    HW210808   4.981   2.961   1.216
 3080SOL     OW10809   4.976   3.593   1.128
 3080SOL    HW110810   5.060   3.598   1.074
 3080SOL    HW210811   4.953   3.497   1.146
 3081SOL     OW10812   3.807   3.120   1.022
 3081SOL    HW110813   3.802   3.119   1.122
 3081SOL    HW210814   3.724   3.079   0.984
 3082SOL     OW10815   4.627   1.948   0.133
 3082SOL    HW110816   4.678   1.949   0.047
 3082SOL    HW210817   4.683   1.906   0.204
 3083SOL     OW10818   5.112   3.435   0.477
 3083SOL    HW110819   5.179   3.447   0.403
 3083SOL    HW210820   5.072   3.524   0.500
 3084SOL     OW10821   3.854   3.656   1.851
 3084SOL    HW110822   3.813   3.582   1.904
 3084SOL    HW210823   3.918   3.707   1.909
 3085SOL     OW10824   5.004   2.789   0.672
 3085SOL    HW110825   5.064   2.708   0.674
 3085SOL    HW210826   5.044   2.858   0.612
 3086SOL     OW10827   4.554   3.135   1.422
 3086SOL    HW110828   4.549   3.168   1.517
 3086SOL    HW210829   4.468   3.154   1.376
 3087SOL     OW10830   4.396   3.478   0.154
 3087SOL    HW110831   4.405   3.488   0.055
 3087SOL    HW210832   4.356   3.389   0.175
 3088SOL     OW10833   3.987   2.188   0.720
 3088SOL    HW110834   3.908   2.239   0.686
 3088SOL    HW210835   3.978   2.173   0.818
 3089SOL     OW10836   4.918   3.474   0.031
 3089SOL    HW110837   4.924   3.381   0.068
 3089SOL    HW210838   4.859   3.474  -0.049
 3090SOL     OW10839   4.640   2.772   0.291
 3090SOL    HW110840   4.703   2.810   0.223
 3090SOL    HW210841   4.680   2.689   0.330
 3091SOL     OW10842   4.096   3.150   1.490
 3091SOL    HW110843   4.083   3.243   1.456
 3091SOL    HW210844   4.012   3.098   1.477
 3092SOL     OW10845   4.763   2.960   0.696
 3092SOL    HW110846   4.693   2.913   0.750
 3092SOL    HW210847   4.822   2.892   0.653
 3093SOL     OW10848   4.738   2.098   0.971
 3093SOL    HW110849   4.730   2.062   0.878
 3093SOL    HW210850   4.736   2.022   1.036
 3094SOL     OW10851   4.314   3.349   0.491
 3094SOL    HW110852   4.356   3.291   0.421
 3094SOL    HW210853   4.270   3.428   0.447
 3095SOL     OW10854   3.979   3.210   0.290
 3095SOL    HW110855   3.883   3.211   0.263
 3095SOL    HW210856   3.991   3.263   0.374
 3096SOL     OW10857   3.829   2.875   1.726
 3096SOL    HW110858   3.752   2.842   1.780
 3096SOL    HW210859   3.914   2.845   1.768
 3097SOL     OW10860   4.396   2.065   1.489
 3097SOL    HW110861   4.486   2.049   1.449
 3097SOL    HW210862   4.404   2.070   1.588
 3098SOL     OW10863   5.164   2.718   1.398
 3098SOL    HW110864   5.107   2.770   1.335
 3098SOL    HW210865   5.260   2.730   1.374
 3099SOL     OW10866   3.796   2.028   0.318
 3099SOL    HW110867   3.779   2.111   0.264
 3099SOL    HW210868   3.886   1.991   0.296
 3100SOL     OW10869   4.440   2.427   1.708
 3100SOL    HW110870   4.459   2.492   1.782
 3100SOL    HW210871   4.500   2.347   1.717
 3101SOL     OW10872   4.114   3.603   1.560
 3101SOL    HW110873   4.023   3.644   1.558
 3101SOL    HW210874   4.107   3.509   1.592
 3102SOL     OW10875   4.318   2.607   0.652
 3102SOL    HW110876   4.368   2.692   0.633
 3102SOL    HW210877   4.230   2.609   0.604
 3103SOL     OW10878   4.583   3.236   0.016
 3103SOL    HW110879   4.537   3.251   0.104
 3103SOL    HW210880   4.627   3.321  -0.014
 3104SOL     OW10881   4.385   3.652   0.953
 3104SOL    HW110882   4.339   3.740   0.940
 3104SOL    HW210883   4.484   3.664   0.946
 3105SOL     OW10884   4.583   2.818   0.861
 3105SOL    HW110885   4.637   2.749   0.909
 3105SOL    HW210886   4.551   2.887   0.927
 3106SOL     OW10887   4.807   2.846   0.087
 3106SOL    HW110888   4.784   2.899   0.005
 3106SOL    HW210889   4.888   2.790   0.068
 3107SOL     OW10890   3.945   3.176   1.844
 3107SOL    HW110891   3.880   3.103   1.823
 3107SOL    HW210892   3.949   3.190   1.942
 3108SOL     OW10893   3.803   3.102   0.653
 3108SOL    HW110894   3.802   3.055   0.741
 3108SOL    HW210895   3.885   3.074   0.602
 3109SOL     OW10896   4.396   3.253   1.624
 3109SOL    HW110897   4.318   3.203   1.662
 3109SOL    HW210898   4.393   3.348   1.655
 3110SOL     OW10899   4.152   2.286   0.520
 3110SOL    HW110900   4.182   2.214   0.458
 3110SOL    HW210901   4.113   2.246   0.603
 3111SOL     OW10902   4.041   2.409   1.280
 3111SOL    HW110903   4.079   2.350   1.352
 3111SOL    HW210904   4.081   2.383   1.192
 3112SOL     OW10905   4.536   3.448   0.687
 3112SOL    HW110906   4.568   3.458   0.593
 3112SOL    HW210907   4.457   3.386   0.689
 3113SOL     OW10908   4.725   1.896   1.154
 3113SOL    HW110909   4.662   1.824   1.123
 3113SOL    HW210910   4.818   1.860   1.154
 3114SOL     OW10911   4.494   3.192   0.301
 3114SOL    HW110912   4.448   3.105   0.318
 3114SOL    HW210913   4.585   3.189   0.342
 3115SOL     OW10914   4.342   3.429   1.284
 3115SOL    HW110915   4.337   3.511   1.341
 3115SOL    HW210916   4.431   3.426   1.239
 3116SOL     OW10917   4.599   3.508   0.337
 3116SOL    HW110918   4.522   3.473   0.283
 3116SOL    HW210919   4.567   3.579   0.399
 3117SOL     OW10920   3.954   2.490   1.975
 3117SOL    HW110921   3.861   2.488   2.012
 3117SOL    HW210922   3.955   2.451   1.883
 3118SOL     OW10923   3.949   2.137   2.858
 3118SOL    HW110924   3.984   2.120   2.950
 3118SOL    HW210925   3.861   2.092   2.846
 3119SOL     OW10926   3.743   2.230   2.509
 3119SOL    HW110927   3.661   2.273   2.548
 3119SOL    HW210928   3.715   2.157   2.446
 3120SOL     OW10929   4.293   3.137   3.027
 3120SOL    HW110930   4.200   3.130   2.990
 3120SOL    HW210931   4.304   3.226   3.071
 3121SOL     OW10932   4.859   2.565   2.579
 3121SOL    HW110933   4.916   2.643   2.554
 3121SOL    HW210934   4.799   2.591   2.655
 3122SOL     OW10935   4.409   2.874   2.527
 3122SOL    HW110936   4.478   2.858   2.597
 3122SOL    HW210937   4.336   2.931   2.565
 3123SOL     OW10938   4.410   3.023   3.665
 3123SOL    HW110939   4.470   3.102   3.679
 3123SOL    HW210940   4.324   3.054   3.624
 3124SOL     OW10941   4.162   2.254   3.361
 3124SOL    HW110942   4.244   2.198   3.370
 3124SOL    HW210943   4.081   2.196   3.365
 3125SOL     OW10944   3.955   3.575   2.345
 3125SOL    HW110945   3.989   3.652   2.399
 3125SOL    HW210946   3.999   3.575   2.255
 3126SOL     OW10947   4.851   3.203   3.552
 3126SOL    HW110948   4.898   3.203   3.640
 3126SOL    HW210949   4.803   3.116   3.541
 3127SOL     OW10950   3.954   3.296   2.400
 3127SOL    HW110951   3.928   3.392   2.400
 3127SOL    HW210952   3.883   3.242   2.445
 3128SOL     OW10953   3.846   2.505   2.425
 3128SOL    HW110954   3.801   2.417   2.442
 3128SOL    HW210955   3.845   2.559   2.509
 3129SOL     OW10956   3.751   3.458   1.979
 3129SOL    HW110957   3.732   3.362   2.000
 3129SOL    HW210958   3.718   3.516   2.054
 3130SOL     OW10959   3.837   2.599   3.459
 3130SOL    HW110960   3.925   2.586   3.504
 3130SOL    HW210961   3.824   2.696   3.437
 3131SOL     OW10962   5.017   3.090   3.285
 3131SOL    HW110963   5.054   3.017   3.227
 3131SOL    HW210964   5.069   3.095   3.370
 3132SOL     OW10965   4.533   1.866   2.364
 3132SOL    HW110966   4.573   1.957   2.355
 3132SOL    HW210967   4.433   1.874   2.370
 3133SOL     OW10968   3.921   2.838   3.126
 3133SOL    HW110969   4.010   2.793   3.112
 3133SOL    HW210970   3.848   2.773   3.107
 3134SOL     OW10971   4.911   3.654   3.478
 3134SOL    HW110972   4.935   3.714   3.402
 3134SOL    HW210973   4.918   3.559   3.448
 3135SOL     OW10974   5.005   2.207   2.806
 3135SOL    HW110975   4.919   2.157   2.793
 3135SOL    HW210976   5.067   2.153   2.862
 3136SOL     OW10977   4.531   2.467   3.327
 3136SOL    HW110978   4.484   2.464   3.416
 3136SOL    HW210979   4.480   2.412   3.261
 3137SOL     OW10980   4.715   2.272   3.104
 3137SOL    HW110981   4.638   2.306   3.158
 3137SOL    HW210982   4.681   2.221   3.025
 3138SOL     OW10983   4.765   2.563   2.291
 3138SOL    HW110984   4.791   2.559   2.387
 3138SOL    HW210985   4.680   2.512   2.277
 3139SOL     OW10986   3.854   3.683   3.433
 3139SOL    HW110987   3.844   3.668   3.532
 3139SOL    HW210988   3.768   3.719   3.397
 3140SOL     OW10989   4.589   2.210   2.057
 3140SOL    HW110990   4.648   2.273   2.008
 3140SOL    HW210991   4.608   2.116   2.028
 3141SOL     OW10992   4.274   2.058   2.747
 3141SOL    HW110993   4.269   2.053   2.847
 3141SOL    HW210994   4.276   2.154   2.718
 3142SOL     OW10995   4.732   3.318   2.339
 3142SOL    HW110996   4.686   3.390   2.287
 3142SOL    HW210997   4.728   3.338   2.437
 3143SOL     OW10998   4.075   3.663   2.715
 3143SOL    HW110999   4.125   3.577   2.721
 3143SOL    HW211000   4.140   3.740   2.712
 3144SOL     OW11001   4.951   3.412   3.368
 3144SOL    HW111002   4.957   3.335   3.432
 3144SOL    HW211003   4.899   3.386   3.288
 3145SOL     OW11004   4.185   3.128   3.589
 3145SOL    HW111005   4.135   3.129   3.503
 3145SOL    HW211006   4.122   3.110   3.665
 3146SOL     OW11007   3.926   2.147   3.360
 3146SOL    HW111008   3.846   2.207   3.347
 3146SOL    HW211009   3.916   2.098   3.446
 3147SOL     OW11010   4.188   3.605   2.185
 3147SOL    HW111011   4.221   3.644   2.271
 3147SOL    HW211012   4.264   3.598   2.120
 3148SOL     OW11013   3.973   3.647   3.103
 3148SOL    HW111014   4.030   3.582   3.153
 3148SOL    HW211015   3.957   3.614   3.010
 3149SOL     OW11016   4.664   3.560   2.766
 3149SOL    HW111017   4.744   3.503   2.787
 3149SOL    HW211018   4.615   3.520   2.689
 3150SOL     OW11019   4.106   2.562   2.342
 3150SOL    HW111020   4.151   2.472   2.339
 3150SOL    HW211021   4.012   2.551   2.375
 3151SOL     OW11022   4.338   1.984   1.979
 3151SOL    HW111023   4.436   1.962   1.986
 3151SOL    HW211024   4.307   1.967   1.886
 3152SOL     OW11025   4.505   2.126   3.611
 3152SOL    HW111026   4.572   2.065   3.654
 3152SOL    HW211027   4.432   2.145   3.676
 3153SOL     OW11028   4.646   2.365   2.761
 3153SOL    HW111029   4.621   2.356   2.665
 3153SOL    HW211030   4.694   2.283   2.792
 3154SOL     OW11031   4.263   1.926   2.374
 3154SOL    HW111032   4.182   1.927   2.432
 3154SOL    HW211033   4.266   2.009   2.319
 3155SOL     OW11034   4.021   1.897   2.033
 3155SOL    HW111035   4.070   1.981   2.012
 3155SOL    HW211036   4.083   1.832   2.078
 3156SOL     OW11037   4.659   2.098   2.342
 3156SOL    HW111038   4.611   2.139   2.264
 3156SOL    HW211039   4.758   2.096   2.323
 3157SOL     OW11040   4.800   2.545   3.326
 3157SOL    HW111041   4.720   2.484   3.329
 3157SOL    HW211042   4.881   2.492   3.302
 3158SOL     OW11043   4.951   3.432   2.655
 3158SOL    HW111044   4.972   3.506   2.590
 3158SOL    HW211045   5.019   3.432   2.728
 3159SOL     OW11046   4.756   2.411   1.878
 3159SOL    HW111047   4.715   2.493   1.839
 3159SOL    HW211048   4.820   2.437   1.951
 3160SOL     OW11049   3.802   2.418   3.248
 3160SOL    HW111050   3.894   2.417   3.207
 3160SOL    HW211051   3.796   2.492   3.315
 3161SOL     OW11052   4.285   2.084   3.009
 3161SOL    HW111053   4.323   2.000   3.046
 3161SOL    HW211054   4.197   2.103   3.053
 3162SOL     OW11055   4.590   2.316   2.504
 3162SOL    HW111056   4.558   2.388   2.442
 3162SOL    HW211057   4.614   2.235   2.451
 3163SOL     OW11058   4.741   1.901   2.615
 3163SOL    HW111059   4.669   1.906   2.546
 3163SOL    HW211060   4.717   1.832   2.684
 3164SOL     OW11061   4.212   3.247   2.036
 3164SOL    HW111062   4.125   3.232   2.083
 3164SOL    HW211063   4.195   3.273   1.941
 3165SOL     OW11064   5.388   3.142   2.519
 3165SOL    HW111065   5.487   3.150   2.533
 3165SOL    HW211066   5.343   3.226   2.550
 3166SOL     OW11067   4.251   2.118   2.190
 3166SOL    HW111068   4.278   2.059   2.115
 3166SOL    HW211069   4.251   2.213   2.159
 3167SOL     OW11070   4.639   1.951   3.264
 3167SOL    HW111071   4.664   1.931   3.169
 3167SOL    HW211072   4.711   2.007   3.306
 3168SOL     OW11073   4.704   2.978   3.581
 3168SOL    HW111074   4.605   2.984   3.591
 3168SOL    HW211075   4.727   2.898   3.525
 3169SOL     OW11076   4.998   2.248   3.124
 3169SOL    HW111077   5.019   2.322   3.188
 3169SOL    HW211078   4.909   2.265   3.081
 3170SOL     OW11079   3.788   3.426   3.193
 3170SOL    HW111080   3.742   3.508   3.159
 3170SOL    HW211081   3.886   3.445   3.202
 3171SOL     OW11082   4.091   2.962   2.363
 3171SOL    HW111083   4.084   3.045   2.307
 3171SOL    HW211084   4.095   2.882   2.303
 3172SOL     OW11085   4.290   2.399   2.727
 3172SOL    HW111086   4.302   2.465   2.653
 3172SOL    HW211087   4.336   2.433   2.810
 3173SOL     OW11088   4.976   3.210   2.250
 3173SOL    HW111089   5.026   3.287   2.290
 3173SOL    HW211090   4.881   3.212   2.282
 3174SOL     OW11091   4.737   1.967   3.632
 3174SOL    HW111092   4.743   2.052   3.580
 3174SOL    HW211093   4.769   1.891   3.575
 3175SOL     OW11094   4.228   1.912   3.602
 3175SOL    HW111095   4.186   1.855   3.532
 3175SOL    HW211096   4.162   1.981   3.634
 3176SOL     OW11097   4.297   2.732   2.891
 3176SOL    HW111098   4.341   2.821   2.882
 3176SOL    HW211099   4.234   2.732   2.968
 3177SOL     OW11100   5.084   2.724   2.907
 3177SOL    HW111101   5.009   2.724   2.841
 3177SOL    HW211102   5.121   2.632   2.916
 3178SOL     OW11103   4.933   2.387   2.137
 3178SOL    HW111104   4.946   2.303   2.191
 3178SOL    HW211105   4.904   2.461   2.197
 3179SOL     OW11106   4.031   2.075   3.093
 3179SOL    HW111107   4.008   2.112   3.183
 3179SOL    HW211108   4.001   1.980   3.087
 3180SOL     OW11109   3.761   3.172   3.144
 3180SOL    HW111110   3.814   3.123   3.212
 3180SOL    HW211111   3.783   3.270   3.149
 3181SOL     OW11112   4.456   2.496   2.926
 3181SOL    HW111113   4.515   2.470   2.850
 3181SOL    HW211114   4.428   2.592   2.915
 3182SOL     OW11115   4.031   1.925   2.480
 3182SOL    HW111116   4.020   2.019   2.513
 3182SOL    HW211117   4.026   1.862   2.557
 3183SOL     OW11118   5.346   2.229   2.236
 3183SOL    HW111119   5.348   2.153   2.300
 3183SOL    HW211120   5.298   2.306   2.276
 3184SOL     OW11121   4.747   2.628   2.828
 3184SOL    HW111122   4.762   2.649   2.924
 3184SOL    HW211123   4.717   2.533   2.819
 3185SOL     OW11124   4.704   3.435   3.562
 3185SOL    HW111125   4.684   3.479   3.474
 3185SOL    HW211126   4.743   3.344   3.546
 3186SOL     OW11127   4.074   2.760   3.666
 3186SOL    HW111128   4.150   2.804   3.714
 3186SOL    HW211129   4.109   2.713   3.584
 3187SOL     OW11130   5.027   2.700   1.904
 3187SOL    HW111131   5.061   2.607   1.919
 3187SOL    HW211132   5.045   2.727   1.809
 3188SOL     OW11133   4.792   3.195   2.711
 3188SOL    HW111134   4.799   3.111   2.656
 3188SOL    HW211135   4.854   3.264   2.675
 3189SOL     OW11136   4.043   2.672   2.811
 3189SOL    HW111137   4.136   2.708   2.816
 3189SOL    HW211138   4.037   2.587   2.863
 3190SOL     OW11139   4.063   2.371   2.868
 3190SOL    HW111140   4.011   2.288   2.851
 3190SOL    HW211141   4.140   2.376   2.804
 3191SOL     OW11142   4.862   2.242   3.540
 3191SOL    HW111143   4.817   2.305   3.604
 3191SOL    HW211144   4.955   2.273   3.523
 3192SOL     OW11145   4.884   2.069   3.339
 3192SOL    HW111146   4.884   2.133   3.416
 3192SOL    HW211147   4.912   2.117   3.256
 3193SOL     OW11148   3.732   3.188   2.062
 3193SOL    HW111149   3.639   3.209   2.031
 3193SOL    HW211150   3.742   3.089   2.075
 3194SOL     OW11151   3.812   3.663   2.789
 3194SOL    HW111152   3.770   3.577   2.762
 3194SOL    HW211153   3.906   3.666   2.755
 3195SOL     OW11154   4.726   2.658   3.100
 3195SOL    HW111155   4.767   2.626   3.186
 3195SOL    HW211156   4.630   2.631   3.097
 3196SOL     OW11157   3.764   2.406   2.976
 3196SOL    HW111158   3.849   2.373   2.935
 3196SOL    HW211159   3.777   2.421   3.074
 3197SOL     OW11160   3.913   2.382   3.584
 3197SOL    HW111161   3.972   2.342   3.514
 3197SOL    HW211162   3.855   2.453   3.543
 3198SOL     OW11163   3.976   3.426   3.606
 3198SOL    HW111164   3.946   3.483   3.682
 3198SOL    HW211165   3.969   3.329   3.632
 3199SOL     OW11166   4.395   2.326   3.131
 3199SOL    HW111167   4.361   2.237   3.101
 3199SOL    HW211168   4.421   2.380   3.051
 3200SOL     OW11169   4.197   2.362   2.053
 3200SOL    HW111170   4.258   2.442   2.057
 3200SOL    HW211171   4.102   2.393   2.060
 3201SOL     OW11172   3.883   2.999   3.328
 3201SOL    HW111173   3.905   2.938   3.404
 3201SOL    HW211174   3.893   2.950   3.242
 3202SOL     OW11175   4.976   3.593   2.990
 3202SOL    HW111176   5.060   3.598   2.936
 3202SOL    HW211177   4.953   3.497   3.008
 3203SOL     OW11178   4.412   3.524   3.578
 3203SOL    HW111179   4.356   3.605   3.587
 3203SOL    HW211180   4.464   3.528   3.492
 3204SOL     OW11181   5.112   3.435   2.339
 3204SOL    HW111182   5.179   3.447   2.265
 3204SOL    HW211183   5.072   3.524   2.362
 3205SOL     OW11184   3.854   3.656   3.713
 3205SOL    HW111185   3.813   3.582   3.766
 3205SOL    HW211186   3.918   3.707   3.771
 3206SOL     OW11187   5.004   2.789   2.534
 3206SOL    HW111188   5.064   2.708   2.536
 3206SOL    HW211189   5.044   2.858   2.474
 3207SOL     OW11190   4.396   3.478   2.016
 3207SOL    HW111191   4.405   3.488   1.917
 3207SOL    HW211192   4.356   3.389   2.037
 3208SOL     OW11193   3.987   2.188   2.582
 3208SOL    HW111194   3.908   2.239   2.548
 3208SOL    HW211195   3.978   2.173   2.680
 3209SOL     OW11196   4.918   3.474   1.893
 3209SOL    HW111197   4.924   3.381   1.930
 3209SOL    HW211198   4.859   3.474   1.813
 3210SOL     OW11199   4.096   3.150   3.352
 3210SOL    HW111200   4.083   3.243   3.318
 3210SOL    HW211201   4.012   3.098   3.339
 3211SOL     OW11202   4.763   2.960   2.558
 3211SOL    HW111203   4.693   2.913   2.612
 3211SOL    HW211204   4.822   2.892   2.515
 3212SOL     OW11205   4.738   2.098   2.833
 3212SOL    HW111206   4.730   2.062   2.740
 3212SOL    HW211207   4.736   2.022   2.898
 3213SOL     OW11208   4.314   3.349   2.353
 3213SOL    HW111209   4.356   3.291   2.283
 3213SOL    HW211210   4.270   3.428   2.309
 3214SOL     OW11211   3.979   3.210   2.152
 3214SOL    HW111212   3.883   3.211   2.125
 3214SOL    HW211213   3.991   3.263   2.236
 3215SOL     OW11214   3.829   2.875   3.588
 3215SOL    HW111215   3.752   2.842   3.642
 3215SOL    HW211216   3.914   2.845   3.630
 3216SOL     OW11217   4.396   2.065   3.351
 3216SOL    HW111218   4.486   2.049   3.311
 3216SOL    HW211219   4.404   2.070   3.450
 3217SOL     OW11220   3.799   2.207   1.895
 3217SOL    HW111221   3.707   2.179   1.866
 3217SOL    HW211222   3.830   2.284   1.839
 3218SOL     OW11223   5.164   2.718   3.260
 3218SOL    HW111224   5.107   2.770   3.197
 3218SOL    HW211225   5.260   2.730   3.236
 3219SOL     OW11226   3.796   2.028   2.180
 3219SOL    HW111227   3.779   2.111   2.126
 3219SOL    HW211228   3.886   1.991   2.158
 3220SOL     OW11229   4.440   2.427   3.570
 3220SOL    HW111230   4.459   2.492   3.644
 3220SOL    HW211231   4.500   2.347   3.579
 3221SOL     OW11232   4.114   3.603   3.422
 3221SOL    HW111233   4.023   3.644   3.420
 3221SOL    HW211234   4.107   3.509   3.454
 3222SOL     OW11235   4.949   2.187   2.311
 3222SOL    HW111236   5.014   2.113   2.300
 3222SOL    HW211237   4.969   2.237   2.395
 3223SOL     OW11238   4.318   2.607   2.514
 3223SOL    HW111239   4.368   2.692   2.495
 3223SOL    HW211240   4.230   2.609   2.466
 3224SOL     OW11241   4.583   3.236   1.878
 3224SOL    HW111242   4.537   3.251   1.966
 3224SOL    HW211243   4.627   3.321   1.848
 3225SOL     OW11244   4.583   2.818   2.723
 3225SOL    HW111245   4.637   2.749   2.771
 3225SOL    HW211246   4.551   2.887   2.789
 3226SOL     OW11247   4.807   2.846   1.949
 3226SOL    HW111248   4.784   2.899   1.867
 3226SOL    HW211249   4.888   2.790   1.930
 3227SOL     OW11250   3.945   3.176   3.706
 3227SOL    HW111251   3.880   3.103   3.685
 3227SOL    HW211252   3.949   3.190   3.804
 3228SOL     OW11253   3.803   3.102   2.515
 3228SOL    HW111254   3.802   3.055   2.603
 3228SOL    HW211255   3.885   3.074   2.464
 3229SOL     OW11256   4.396   3.253   3.486
 3229SOL    HW111257   4.318   3.203   3.524
 3229SOL    HW211258   4.393   3.348   3.517
 3230SOL     OW11259   4.152   2.286   2.382
 3230SOL    HW111260   4.182   2.214   2.320
 3230SOL    HW211261   4.113   2.246   2.465
 3231SOL     OW11262   4.041   2.409   3.142
 3231SOL    HW111263   4.079   2.350   3.214
 3231SOL    HW211264   4.081   2.383   3.054
 3232SOL     OW11265   4.536   3.448   2.549
 3232SOL    HW111266   4.568   3.458   2.455
 3232SOL    HW211267   4.457   3.386   2.551
 3233SOL     OW11268   4.725   1.896   3.016
 3233SOL    HW111269   4.662   1.824   2.985
 3233SOL    HW211270   4.818   1.860   3.016
 3234SOL     OW11271   4.494   3.192   2.163
 3234SOL    HW111272   4.448   3.105   2.180
 3234SOL    HW211273   4.585   3.189   2.204
 3235SOL     OW11274   3.763   2.939   2.162
 3235SOL    HW111275   3.862   2.928   2.153
 3235SOL    HW211276   3.723   2.853   2.194
 3236SOL     OW11277   4.599   3.508   2.199
 3236SOL    HW111278   4.522   3.473   2.145
 3236SOL    HW211279   4.567   3.579   2.261
 3237SOL     OW11280   3.949   2.137   4.720
 3237SOL    HW111281   3.984   2.120   4.812
 3237SOL    HW211282   3.861   2.092   4.708
 3238SOL     OW11283   3.743   2.230   4.371
 3238SOL    HW111284   3.661   2.273   4.410
 3238SOL    HW211285   3.715   2.157   4.308
 3239SOL     OW11286   4.293   3.137   4.889
 3239SOL    HW111287   4.200   3.130   4.852
 3239SOL    HW211288   4.304   3.226   4.933
 3240SOL     OW11289   4.409   2.874   4.389
 3240SOL    HW111290   4.478   2.858   4.459
 3240SOL    HW211291   4.336   2.931   4.427
 3241SOL     OW11292   4.059   3.297   4.785
 3241SOL    HW111293   3.981   3.266   4.732
 3241SOL    HW211294   4.117   3.355   4.728
 3242SOL     OW11295   3.955   3.575   4.207
 3242SOL    HW111296   3.989   3.652   4.261
 3242SOL    HW211297   3.999   3.575   4.117
 3243SOL     OW11298   3.954   3.296   4.262
 3243SOL    HW111299   3.928   3.392   4.262
 3243SOL    HW211300   3.883   3.242   4.307
 3244SOL     OW11301   3.964   2.953   4.610
 3244SOL    HW111302   3.978   2.869   4.662
 3244SOL    HW211303   3.909   3.017   4.665
 3245SOL     OW11304   4.344   3.648   5.163
 3245SOL    HW111305   4.252   3.631   5.198
 3245SOL    HW211306   4.372   3.740   5.189
 3246SOL     OW11307   4.330   2.826   3.847
 3246SOL    HW111308   4.337   2.910   3.793
 3246SOL    HW211309   4.376   2.839   3.935
 3247SOL     OW11310   3.751   3.458   3.841
 3247SOL    HW111311   3.732   3.362   3.862
 3247SOL    HW211312   3.718   3.516   3.916
 3248SOL     OW11313   4.337   3.227   4.450
 3248SOL    HW111314   4.288   3.140   4.459
 3248SOL    HW211315   4.314   3.270   4.363
 3249SOL     OW11316   4.533   1.866   4.226
 3249SOL    HW111317   4.573   1.957   4.217
 3249SOL    HW211318   4.433   1.874   4.232
 3250SOL     OW11319   3.921   2.838   4.988
 3250SOL    HW111320   4.010   2.793   4.974
 3250SOL    HW211321   3.848   2.773   4.969
 3251SOL     OW11322   4.322   2.591   3.994
 3251SOL    HW111323   4.346   2.660   3.926
 3251SOL    HW211324   4.244   2.624   4.048
 3252SOL     OW11325   5.005   2.207   4.668
 3252SOL    HW111326   4.919   2.157   4.655
 3252SOL    HW211327   5.067   2.153   4.724
 3253SOL     OW11328   4.715   2.272   4.966
 3253SOL    HW111329   4.638   2.306   5.020
 3253SOL    HW211330   4.681   2.221   4.887
 3254SOL     OW11331   3.800   2.673   4.513
 3254SOL    HW111332   3.899   2.661   4.522
 3254SOL    HW211333   3.776   2.768   4.534
 3255SOL     OW11334   4.589   2.210   3.919
 3255SOL    HW111335   4.648   2.273   3.870
 3255SOL    HW211336   4.608   2.116   3.890
 3256SOL     OW11337   4.274   2.058   4.609
 3256SOL    HW111338   4.269   2.053   4.709
 3256SOL    HW211339   4.276   2.154   4.580
 3257SOL     OW11340   4.732   3.318   4.201
 3257SOL    HW111341   4.686   3.390   4.149
 3257SOL    HW211342   4.728   3.338   4.299
 3258SOL     OW11343   4.075   3.663   4.577
 3258SOL    HW111344   4.125   3.577   4.583
 3258SOL    HW211345   4.140   3.740   4.574
 3259SOL     OW11346   4.045   2.805   3.966
 3259SOL    HW111347   4.127   2.844   3.924
 3259SOL    HW211348   4.018   2.723   3.917
 3260SOL     OW11349   4.835   3.638   3.961
 3260SOL    HW111350   4.775   3.576   4.011
 3260SOL    HW211351   4.866   3.594   3.876
 3261SOL     OW11352   4.188   3.605   4.047
 3261SOL    HW111353   4.221   3.644   4.133
 3261SOL    HW211354   4.264   3.598   3.982
 3262SOL     OW11355   3.973   3.647   4.965
 3262SOL    HW111356   4.030   3.582   5.015
 3262SOL    HW211357   3.957   3.614   4.872
 3263SOL     OW11358   4.664   3.560   4.628
 3263SOL    HW111359   4.744   3.503   4.649
 3263SOL    HW211360   4.615   3.520   4.551
 3264SOL     OW11361   4.106   2.562   4.204
 3264SOL    HW111362   4.151   2.472   4.201
 3264SOL    HW211363   4.012   2.551   4.237
 3265SOL     OW11364   4.527   3.264   4.648
 3265SOL    HW111365   4.617   3.278   4.606
 3265SOL    HW211366   4.456   3.266   4.577
 3266SOL     OW11367   4.263   1.926   4.236
 3266SOL    HW111368   4.182   1.927   4.294
 3266SOL    HW211369   4.266   2.009   4.181
 3267SOL     OW11370   4.659   2.098   4.204
 3267SOL    HW111371   4.611   2.139   4.126
 3267SOL    HW211372   4.758   2.096   4.185
 3268SOL     OW11373   4.951   3.432   4.517
 3268SOL    HW111374   4.972   3.506   4.452
 3268SOL    HW211375   5.019   3.432   4.590
 3269SOL     OW11376   4.183   3.014   4.465
 3269SOL    HW111377   4.112   2.987   4.530
 3269SOL    HW211378   4.157   2.986   4.372
 3270SOL     OW11379   4.995   3.659   4.315
 3270SOL    HW111380   5.039   3.723   4.251
 3270SOL    HW211381   4.945   3.711   4.385
 3271SOL     OW11382   4.756   2.411   3.740
 3271SOL    HW111383   4.715   2.493   3.701
 3271SOL    HW211384   4.820   2.437   3.813
 3272SOL     OW11385   4.285   2.084   4.871
 3272SOL    HW111386   4.323   2.000   4.908
 3272SOL    HW211387   4.197   2.103   4.915
 3273SOL     OW11388   4.741   1.901   4.477
 3273SOL    HW111389   4.669   1.906   4.408
 3273SOL    HW211390   4.717   1.832   4.546
 3274SOL     OW11391   4.212   3.247   3.898
 3274SOL    HW111392   4.125   3.232   3.945
 3274SOL    HW211393   4.195   3.273   3.803
 3275SOL     OW11394   5.388   3.142   4.381
 3275SOL    HW111395   5.487   3.150   4.395
 3275SOL    HW211396   5.343   3.226   4.412
 3276SOL     OW11397   5.316   3.491   5.349
 3276SOL    HW111398   5.343   3.525   5.259
 3276SOL    HW211399   5.395   3.453   5.395
 3277SOL     OW11400   4.429   2.912   4.092
 3277SOL    HW111401   4.415   2.919   4.191
 3277SOL    HW211402   4.513   2.861   4.074
 3278SOL     OW11403   4.134   2.675   4.975
 3278SOL    HW111404   4.220   2.687   5.025
 3278SOL    HW211405   4.092   2.588   5.002
 3279SOL     OW11406   4.091   2.962   4.225
 3279SOL    HW111407   4.084   3.045   4.169
 3279SOL    HW211408   4.095   2.882   4.165
 3280SOL     OW11409   4.976   3.210   4.112
 3280SOL    HW111410   5.026   3.287   4.152
 3280SOL    HW211411   4.881   3.212   4.144
 3281SOL     OW11412   4.078   3.372   5.053
 3281SOL    HW111413   4.057   3.328   4.966
 3281SOL    HW211414   4.175   3.398   5.056
 3282SOL     OW11415   4.297   2.732   4.753
 3282SOL    HW111416   4.341   2.821   4.744
 3282SOL    HW211417   4.234   2.732   4.830
 3283SOL     OW11418   5.084   2.724   4.769
 3283SOL    HW111419   5.009   2.724   4.703
 3283SOL    HW211420   5.121   2.632   4.778
 3284SOL     OW11421   4.031   2.075   4.955
 3284SOL    HW111422   4.008   2.112   5.045
 3284SOL    HW211423   4.001   1.980   4.949
 3285SOL     OW11424   3.761   3.172   5.006
 3285SOL    HW111425   3.814   3.123   5.074
 3285SOL    HW211426   3.783   3.270   5.011
 3286SOL     OW11427   4.456   2.496   4.788
 3286SOL    HW111428   4.515   2.470   4.712
 3286SOL    HW211429   4.428   2.592   4.777
 3287SOL     OW11430   4.031   1.925   4.342
 3287SOL    HW111431   4.020   2.019   4.375
 3287SOL    HW211432   4.026   1.862   4.419
 3288SOL     OW11433   5.027   2.700   3.766
 3288SOL    HW111434   5.061   2.607   3.781
 3288SOL    HW211435   5.045   2.727   3.671
 3289SOL     OW11436   4.792   3.195   4.573
 3289SOL    HW111437   4.799   3.111   4.518
 3289SOL    HW211438   4.854   3.264   4.537
 3290SOL     OW11439   4.043   2.672   4.673
 3290SOL    HW111440   4.136   2.708   4.678
 3290SOL    HW211441   4.037   2.587   4.725
 3291SOL     OW11442   4.063   2.371   4.730
 3291SOL    HW111443   4.011   2.288   4.713
 3291SOL    HW211444   4.140   2.376   4.666
 3292SOL     OW11445   3.732   3.188   3.924
 3292SOL    HW111446   3.639   3.209   3.893
 3292SOL    HW211447   3.742   3.089   3.937
 3293SOL     OW11448   3.812   3.663   4.651
 3293SOL    HW111449   3.770   3.577   4.624
 3293SOL    HW211450   3.906   3.666   4.617
 3294SOL     OW11451   4.228   3.430   4.634
 3294SOL    HW111452   4.294   3.504   4.643
 3294SOL    HW211453   4.272   3.351   4.592
 3295SOL     OW11454   4.726   2.658   4.962
 3295SOL    HW111455   4.767   2.626   5.048
 3295SOL    HW211456   4.630   2.631   4.959
 3296SOL     OW11457   3.764   2.406   4.838
 3296SOL    HW111458   3.849   2.373   4.797
 3296SOL    HW211459   3.777   2.421   4.936
 3297SOL     OW11460   4.539   2.434   4.049
 3297SOL    HW111461   4.546   2.345   4.003
 3297SOL    HW211462   4.445   2.468   4.041
 3298SOL     OW11463   4.395   2.326   4.993
 3298SOL    HW111464   4.361   2.237   4.963
 3298SOL    HW211465   4.421   2.380   4.913
 3299SOL     OW11466   4.654   3.540   5.189
 3299SOL    HW111467   4.630   3.522   5.094
 3299SOL    HW211468   4.684   3.634   5.199
 3300SOL     OW11469   5.071   2.921   4.958
 3300SOL    HW111470   5.095   2.858   4.884
 3300SOL    HW211471   4.981   2.961   4.940
 3301SOL     OW11472   4.976   3.593   4.852
 3301SOL    HW111473   5.060   3.598   4.798
 3301SOL    HW211474   4.953   3.497   4.870
 3302SOL     OW11475   3.807   3.120   4.746
 3302SOL    HW111476   3.802   3.119   4.846
 3302SOL    HW211477   3.724   3.079   4.708
 3303SOL     OW11478   5.112   3.435   4.201
 3303SOL    HW111479   5.179   3.447   4.127
 3303SOL    HW211480   5.072   3.524   4.224
 3304SOL     OW11481   4.396   3.478   3.878
 3304SOL    HW111482   4.405   3.488   3.779
 3304SOL    HW211483   4.356   3.389   3.899
 3305SOL     OW11484   3.987   2.188   4.444
 3305SOL    HW111485   3.908   2.239   4.410
 3305SOL    HW211486   3.978   2.173   4.542
 3306SOL     OW11487   4.918   3.474   3.755
 3306SOL    HW111488   4.924   3.381   3.792
 3306SOL    HW211489   4.859   3.474   3.675
 3307SOL     OW11490   4.546   2.864   5.096
 3307SOL    HW111491   4.586   2.863   5.004
 3307SOL    HW211492   4.556   2.956   5.136
 3308SOL     OW11493   4.640   2.772   4.015
 3308SOL    HW111494   4.703   2.810   3.947
 3308SOL    HW211495   4.680   2.689   4.054
 3309SOL     OW11496   4.738   2.098   4.695
 3309SOL    HW111497   4.730   2.062   4.602
 3309SOL    HW211498   4.736   2.022   4.760
 3310SOL     OW11499   4.314   3.349   4.215
 3310SOL    HW111500   4.356   3.291   4.145
 3310SOL    HW211501   4.270   3.428   4.171
 3311SOL     OW11502   3.979   3.210   4.014
 3311SOL    HW111503   3.883   3.211   3.987
 3311SOL    HW211504   3.991   3.263   4.098
 3312SOL     OW11505   4.949   2.187   4.173
 3312SOL    HW111506   5.014   2.113   4.162
 3312SOL    HW211507   4.969   2.237   4.257
 3313SOL     OW11508   4.318   2.607   4.376
 3313SOL    HW111509   4.368   2.692   4.357
 3313SOL    HW211510   4.230   2.609   4.328
 3314SOL     OW11511   4.583   3.236   3.740
 3314SOL    HW111512   4.537   3.251   3.828
 3314SOL    HW211513   4.627   3.321   3.710
 3315SOL     OW11514   4.385   3.652   4.677
 3315SOL    HW111515   4.339   3.740   4.664
 3315SOL    HW211516   4.484   3.664   4.670
 3316SOL     OW11517   4.807   2.846   3.811
 3316SOL    HW111518   4.784   2.899   3.729
 3316SOL    HW211519   4.888   2.790   3.792
 3317SOL     OW11520   3.803   3.102   4.377
 3317SOL    HW111521   3.802   3.055   4.465
 3317SOL    HW211522   3.885   3.074   4.326
 3318SOL     OW11523   4.152   2.286   4.244
 3318SOL    HW111524   4.182   2.214   4.182
 3318SOL    HW211525   4.113   2.246   4.327
 3319SOL     OW11526   4.536   3.448   4.411
 3319SOL    HW111527   4.568   3.458   4.317
 3319SOL    HW211528   4.457   3.386   4.413
 3320SOL     OW11529   4.725   1.896   4.878
 3320SOL    HW111530   4.662   1.824   4.847
 3320SOL    HW211531   4.818   1.860   4.878
 3321SOL     OW11532   4.494   3.192   4.025
 3321SOL    HW111533   4.448   3.105   4.042
 3321SOL    HW211534   4.585   3.189   4.066
 3322SOL     OW11535   5.076   1.914   3.892
 3322SOL    HW111536   5.111   1.873   3.808
 3322SOL    HW211537   4.986   1.876   3.912
 3323SOL     OW11538   3.763   2.939   4.024
 3323SOL    HW111539   3.862   2.928   4.015
 3323SOL    HW211540   3.723   2.853   4.056
 3324SOL     OW11541   4.599   3.508   4.061
 3324SOL    HW111542   4.522   3.473   4.007
 3324SOL    HW211543   4.567   3.579   4.123
 3325SOL     OW11544   3.949   3.999   0.996
 3325SOL    HW111545   3.984   3.982   1.088
 3325SOL    HW211546   3.861   3.954   0.984
 3326SOL     OW11547   3.743   4.092   0.647
 3326SOL    HW111548   3.661   4.135   0.686
 3326SOL    HW211549   3.715   4.019   0.584
 3327SOL     OW11550   4.293   4.999   1.165
 3327SOL    HW111551   4.200   4.992   1.128
 3327SOL    HW211552   4.304   5.088   1.209
 3328SOL     OW11553   4.859   4.427   0.717
 3328SOL    HW111554   4.916   4.505   0.692
 3328SOL    HW211555   4.799   4.453   0.793
 3329SOL     OW11556   4.492   4.868   1.023
 3329SOL    HW111557   4.414   4.885   1.083
 3329SOL    HW211558   4.526   4.955   0.987
 3330SOL     OW11559   4.574   4.522   1.823
 3330SOL    HW111560   4.570   4.598   1.888
 3330SOL    HW211561   4.596   4.558   1.732
 3331SOL     OW11562   4.409   4.736   0.665
 3331SOL    HW111563   4.478   4.720   0.735
 3331SOL    HW211564   4.336   4.793   0.703
 3332SOL     OW11565   4.162   4.116   1.499
 3332SOL    HW111566   4.244   4.060   1.508
 3332SOL    HW211567   4.081   4.058   1.503
 3333SOL     OW11568   3.964   4.815   0.886
 3333SOL    HW111569   3.978   4.731   0.938
 3333SOL    HW211570   3.909   4.879   0.941
 3334SOL     OW11571   4.330   4.688   0.123
 3334SOL    HW111572   4.337   4.772   0.069
 3334SOL    HW211573   4.376   4.701   0.211
 3335SOL     OW11574   3.837   4.461   1.597
 3335SOL    HW111575   3.925   4.448   1.642
 3335SOL    HW211576   3.824   4.558   1.575
 3336SOL     OW11577   5.017   4.952   1.423
 3336SOL    HW111578   5.054   4.879   1.365
 3336SOL    HW211579   5.069   4.957   1.508
 3337SOL     OW11580   4.533   3.728   0.502
 3337SOL    HW111581   4.573   3.819   0.493
 3337SOL    HW211582   4.433   3.736   0.508
 3338SOL     OW11583   3.921   4.700   1.264
 3338SOL    HW111584   4.010   4.655   1.250
 3338SOL    HW211585   3.848   4.635   1.245
 3339SOL     OW11586   4.041   3.975   1.801
 3339SOL    HW111587   4.112   4.046   1.807
 3339SOL    HW211588   3.953   4.014   1.829
 3340SOL     OW11589   5.005   4.069   0.944
 3340SOL    HW111590   4.919   4.019   0.931
 3340SOL    HW211591   5.067   4.015   1.000
 3341SOL     OW11592   4.531   4.329   1.465
 3341SOL    HW111593   4.484   4.326   1.554
 3341SOL    HW211594   4.480   4.274   1.399
 3342SOL     OW11595   4.697   4.614   1.572
 3342SOL    HW111596   4.743   4.530   1.543
 3342SOL    HW211597   4.641   4.648   1.497
 3343SOL     OW11598   4.715   4.134   1.242
 3343SOL    HW111599   4.638   4.168   1.296
 3343SOL    HW211600   4.681   4.083   1.163
 3344SOL     OW11601   4.765   4.425   0.429
 3344SOL    HW111602   4.791   4.421   0.525
 3344SOL    HW211603   4.680   4.374   0.415
 3345SOL     OW11604   4.589   4.072   0.195
 3345SOL    HW111605   4.648   4.135   0.146
 3345SOL    HW211606   4.608   3.978   0.166
 3346SOL     OW11607   4.274   3.920   0.885
 3346SOL    HW111608   4.269   3.915   0.985
 3346SOL    HW211609   4.276   4.016   0.856
 3347SOL     OW11610   3.926   4.009   1.498
 3347SOL    HW111611   3.846   4.069   1.485
 3347SOL    HW211612   3.916   3.960   1.584
 3348SOL     OW11613   4.505   3.988   1.749
 3348SOL    HW111614   4.572   3.927   1.792
 3348SOL    HW211615   4.432   4.007   1.814
 3349SOL     OW11616   4.527   5.126   0.924
 3349SOL    HW111617   4.617   5.140   0.882
 3349SOL    HW211618   4.456   5.128   0.853
 3350SOL     OW11619   4.646   4.227   0.899
 3350SOL    HW111620   4.621   4.218   0.803
 3350SOL    HW211621   4.694   4.145   0.930
 3351SOL     OW11622   4.263   3.788   0.512
 3351SOL    HW111623   4.182   3.789   0.570
 3351SOL    HW211624   4.266   3.871   0.457
 3352SOL     OW11625   4.021   3.759   0.171
 3352SOL    HW111626   4.070   3.843   0.150
 3352SOL    HW211627   4.083   3.694   0.216
 3353SOL     OW11628   4.659   3.960   0.480
 3353SOL    HW111629   4.611   4.001   0.402
 3353SOL    HW211630   4.758   3.958   0.461
 3354SOL     OW11631   4.800   4.407   1.464
 3354SOL    HW111632   4.720   4.346   1.467
 3354SOL    HW211633   4.881   4.354   1.440
 3355SOL     OW11634   4.951   5.294   0.793
 3355SOL    HW111635   4.972   5.368   0.728
 3355SOL    HW211636   5.019   5.294   0.866
 3356SOL     OW11637   4.756   4.273   0.016
 3356SOL    HW111638   4.715   4.355  -0.023
 3356SOL    HW211639   4.820   4.299   0.089
 3357SOL     OW11640   3.802   4.280   1.386
 3357SOL    HW111641   3.894   4.279   1.345
 3357SOL    HW211642   3.796   4.354   1.453
 3358SOL     OW11643   4.285   3.946   1.147
 3358SOL    HW111644   4.323   3.862   1.184
 3358SOL    HW211645   4.197   3.965   1.191
 3359SOL     OW11646   4.590   4.178   0.642
 3359SOL    HW111647   4.558   4.250   0.580
 3359SOL    HW211648   4.614   4.097   0.589
 3360SOL     OW11649   4.741   3.763   0.753
 3360SOL    HW111650   4.669   3.768   0.684
 3360SOL    HW211651   4.717   3.694   0.822
 3361SOL     OW11652   4.251   3.980   0.328
 3361SOL    HW111653   4.278   3.921   0.253
 3361SOL    HW211654   4.251   4.075   0.297
 3362SOL     OW11655   4.639   3.813   1.402
 3362SOL    HW111656   4.664   3.793   1.307
 3362SOL    HW211657   4.711   3.869   1.444
 3363SOL     OW11658   4.704   4.840   1.719
 3363SOL    HW111659   4.605   4.846   1.729
 3363SOL    HW211660   4.727   4.760   1.663
 3364SOL     OW11661   4.134   4.537   1.251
 3364SOL    HW111662   4.220   4.549   1.301
 3364SOL    HW211663   4.092   4.450   1.278
 3365SOL     OW11664   4.998   4.110   1.262
 3365SOL    HW111665   5.019   4.184   1.326
 3365SOL    HW211666   4.909   4.127   1.219
 3366SOL     OW11667   4.290   4.261   0.865
 3366SOL    HW111668   4.302   4.327   0.791
 3366SOL    HW211669   4.336   4.295   0.948
 3367SOL     OW11670   4.976   5.072   0.388
 3367SOL    HW111671   5.026   5.149   0.428
 3367SOL    HW211672   4.881   5.074   0.420
 3368SOL     OW11673   4.126   4.475   1.598
 3368SOL    HW111674   4.194   4.530   1.551
 3368SOL    HW211675   4.166   4.387   1.625
 3369SOL     OW11676   4.737   3.829   1.770
 3369SOL    HW111677   4.743   3.914   1.718
 3369SOL    HW211678   4.769   3.753   1.713
 3370SOL     OW11679   4.228   3.774   1.740
 3370SOL    HW111680   4.186   3.717   1.670
 3370SOL    HW211681   4.162   3.843   1.772
 3371SOL     OW11682   4.297   4.594   1.029
 3371SOL    HW111683   4.341   4.683   1.020
 3371SOL    HW211684   4.234   4.594   1.106
 3372SOL     OW11685   5.084   4.586   1.045
 3372SOL    HW111686   5.009   4.586   0.979
 3372SOL    HW211687   5.121   4.494   1.054
 3373SOL     OW11688   4.933   4.249   0.275
 3373SOL    HW111689   4.946   4.165   0.329
 3373SOL    HW211690   4.904   4.323   0.335
 3374SOL     OW11691   4.031   3.937   1.231
 3374SOL    HW111692   4.008   3.974   1.321
 3374SOL    HW211693   4.001   3.842   1.225
 3375SOL     OW11694   4.456   4.358   1.064
 3375SOL    HW111695   4.515   4.332   0.988
 3375SOL    HW211696   4.428   4.454   1.053
 3376SOL     OW11697   4.031   3.787   0.618
 3376SOL    HW111698   4.020   3.881   0.651
 3376SOL    HW211699   4.026   3.724   0.695
 3377SOL     OW11700   5.346   4.091   0.374
 3377SOL    HW111701   5.348   4.015   0.438
 3377SOL    HW211702   5.298   4.168   0.414
 3378SOL     OW11703   4.747   4.490   0.966
 3378SOL    HW111704   4.762   4.511   1.062
 3378SOL    HW211705   4.717   4.395   0.957
 3379SOL     OW11706   4.074   4.622   1.804
 3379SOL    HW111707   4.150   4.666   1.852
 3379SOL    HW211708   4.109   4.575   1.722
 3380SOL     OW11709   4.043   4.534   0.949
 3380SOL    HW111710   4.136   4.570   0.954
 3380SOL    HW211711   4.037   4.449   1.001
 3381SOL     OW11712   4.063   4.233   1.006
 3381SOL    HW111713   4.011   4.150   0.989
 3381SOL    HW211714   4.140   4.238   0.942
 3382SOL     OW11715   4.862   4.104   1.678
 3382SOL    HW111716   4.817   4.167   1.742
 3382SOL    HW211717   4.955   4.135   1.661
 3383SOL     OW11718   4.884   3.931   1.477
 3383SOL    HW111719   4.884   3.995   1.554
 3383SOL    HW211720   4.912   3.979   1.394
 3384SOL     OW11721   4.726   4.520   1.238
 3384SOL    HW111722   4.767   4.488   1.324
 3384SOL    HW211723   4.630   4.493   1.235
 3385SOL     OW11724   3.764   4.268   1.114
 3385SOL    HW111725   3.849   4.235   1.073
 3385SOL    HW211726   3.777   4.283   1.212
 3386SOL     OW11727   3.913   4.244   1.722
 3386SOL    HW111728   3.972   4.204   1.652
 3386SOL    HW211729   3.855   4.315   1.681
 3387SOL     OW11730   4.539   4.296   0.325
 3387SOL    HW111731   4.546   4.207   0.279
 3387SOL    HW211732   4.445   4.330   0.317
 3388SOL     OW11733   4.395   4.188   1.269
 3388SOL    HW111734   4.361   4.099   1.239
 3388SOL    HW211735   4.421   4.242   1.189
 3389SOL     OW11736   3.883   4.861   1.466
 3389SOL    HW111737   3.905   4.800   1.542
 3389SOL    HW211738   3.893   4.812   1.380
 3390SOL     OW11739   5.071   4.783   1.234
 3390SOL    HW111740   5.095   4.720   1.160
 3390SOL    HW211741   4.981   4.823   1.216
 3391SOL     OW11742   3.807   4.982   1.022
 3391SOL    HW111743   3.802   4.981   1.122
 3391SOL    HW211744   3.724   4.941   0.984
 3392SOL     OW11745   4.627   3.810   0.133
 3392SOL    HW111746   4.678   3.811   0.047
 3392SOL    HW211747   4.683   3.768   0.204
 3393SOL     OW11748   5.004   4.651   0.672
 3393SOL    HW111749   5.064   4.570   0.674
 3393SOL    HW211750   5.044   4.720   0.612
 3394SOL     OW11751   4.554   4.997   1.422
 3394SOL    HW111752   4.549   5.030   1.517
 3394SOL    HW211753   4.468   5.016   1.376
 3395SOL     OW11754   3.987   4.050   0.720
 3395SOL    HW111755   3.908   4.101   0.686
 3395SOL    HW211756   3.978   4.035   0.818
 3396SOL     OW11757   4.546   4.726   1.372
 3396SOL    HW111758   4.586   4.725   1.280
 3396SOL    HW211759   4.556   4.818   1.412
 3397SOL     OW11760   4.640   4.634   0.291
 3397SOL    HW111761   4.703   4.672   0.223
 3397SOL    HW211762   4.680   4.551   0.330
 3398SOL     OW11763   4.096   5.012   1.490
 3398SOL    HW111764   4.083   5.105   1.456
 3398SOL    HW211765   4.012   4.960   1.477
 3399SOL     OW11766   4.763   4.822   0.696
 3399SOL    HW111767   4.693   4.775   0.750
 3399SOL    HW211768   4.822   4.754   0.653
 3400SOL     OW11769   4.738   3.960   0.971
 3400SOL    HW111770   4.730   3.924   0.878
 3400SOL    HW211771   4.736   3.884   1.036
 3401SOL     OW11772   3.829   4.737   1.726
 3401SOL    HW111773   3.752   4.704   1.780
 3401SOL    HW211774   3.914   4.707   1.768
 3402SOL     OW11775   4.396   3.927   1.489
 3402SOL    HW111776   4.486   3.911   1.449
 3402SOL    HW211777   4.404   3.932   1.588
 3403SOL     OW11778   5.164   4.580   1.398
 3403SOL    HW111779   5.107   4.632   1.335
 3403SOL    HW211780   5.260   4.592   1.374
 3404SOL     OW11781   3.796   3.890   0.318
 3404SOL    HW111782   3.779   3.973   0.264
 3404SOL    HW211783   3.886   3.853   0.296
 3405SOL     OW11784   4.337   4.566   1.431
 3405SOL    HW111785   4.393   4.647   1.414
 3405SOL    HW211786   4.396   4.486   1.434
 3406SOL     OW11787   4.440   4.289   1.708
 3406SOL    HW111788   4.459   4.354   1.782
 3406SOL    HW211789   4.500   4.209   1.717
 3407SOL     OW11790   5.174   4.944   1.633
 3407SOL    HW111791   5.165   4.934   1.732
 3407SOL    HW211792   5.270   4.937   1.607
 3408SOL     OW11793   4.949   4.049   0.449
 3408SOL    HW111794   5.014   3.975   0.438
 3408SOL    HW211795   4.969   4.099   0.533
 3409SOL     OW11796   4.318   4.469   0.652
 3409SOL    HW111797   4.368   4.554   0.633
 3409SOL    HW211798   4.230   4.471   0.604
 3410SOL     OW11799   4.583   4.680   0.861
 3410SOL    HW111800   4.637   4.611   0.909
 3410SOL    HW211801   4.551   4.749   0.927
 3411SOL     OW11802   4.807   4.708   0.087
 3411SOL    HW111803   4.784   4.761   0.005
 3411SOL    HW211804   4.888   4.652   0.068
 3412SOL     OW11805   3.803   4.964   0.653
 3412SOL    HW111806   3.802   4.917   0.741
 3412SOL    HW211807   3.885   4.936   0.602
 3413SOL     OW11808   4.152   4.148   0.520
 3413SOL    HW111809   4.182   4.076   0.458
 3413SOL    HW211810   4.113   4.108   0.603
 3414SOL     OW11811   4.041   4.271   1.280
 3414SOL    HW111812   4.079   4.212   1.352
 3414SOL    HW211813   4.081   4.245   1.192
 3415SOL     OW11814   4.725   3.758   1.154
 3415SOL    HW111815   4.662   3.686   1.123
 3415SOL    HW211816   4.818   3.722   1.154
 3416SOL     OW11817   4.494   5.054   0.301
 3416SOL    HW111818   4.448   4.967   0.318
 3416SOL    HW211819   4.585   5.051   0.342
 3417SOL     OW11820   3.954   4.352   1.975
 3417SOL    HW111821   3.861   4.350   2.012
 3417SOL    HW211822   3.955   4.313   1.883
 3418SOL     OW11823   3.949   3.999   2.858
 3418SOL    HW111824   3.984   3.982   2.950
 3418SOL    HW211825   3.861   3.954   2.846
 3419SOL     OW11826   3.743   4.092   2.509
 3419SOL    HW111827   3.661   4.135   2.548
 3419SOL    HW211828   3.715   4.019   2.446
 3420SOL     OW11829   4.293   4.999   3.027
 3420SOL    HW111830   4.200   4.992   2.990
 3420SOL    HW211831   4.304   5.088   3.071
 3421SOL     OW11832   4.859   4.427   2.579
 3421SOL    HW111833   4.916   4.505   2.554
 3421SOL    HW211834   4.799   4.453   2.655
 3422SOL     OW11835   4.492   4.868   2.885
 3422SOL    HW111836   4.414   4.885   2.945
 3422SOL    HW211837   4.526   4.955   2.849
 3423SOL     OW11838   4.574   4.522   3.685
 3423SOL    HW111839   4.570   4.598   3.750
 3423SOL    HW211840   4.596   4.558   3.594
 3424SOL     OW11841   4.409   4.736   2.527
 3424SOL    HW111842   4.478   4.720   2.597
 3424SOL    HW211843   4.336   4.793   2.565
 3425SOL     OW11844   4.410   4.885   3.665
 3425SOL    HW111845   4.470   4.964   3.679
 3425SOL    HW211846   4.324   4.916   3.624
 3426SOL     OW11847   4.059   5.159   2.923
 3426SOL    HW111848   3.981   5.128   2.870
 3426SOL    HW211849   4.117   5.217   2.866
 3427SOL     OW11850   4.162   4.116   3.361
 3427SOL    HW111851   4.244   4.060   3.370
 3427SOL    HW211852   4.081   4.058   3.365
 3428SOL     OW11853   3.964   4.815   2.748
 3428SOL    HW111854   3.978   4.731   2.800
 3428SOL    HW211855   3.909   4.879   2.803
 3429SOL     OW11856   3.846   4.367   2.425
 3429SOL    HW111857   3.801   4.279   2.442
 3429SOL    HW211858   3.845   4.421   2.509
 3430SOL     OW11859   3.837   4.461   3.459
 3430SOL    HW111860   3.925   4.448   3.504
 3430SOL    HW211861   3.824   4.558   3.437
 3431SOL     OW11862   3.921   4.700   3.126
 3431SOL    HW111863   4.010   4.655   3.112
 3431SOL    HW211864   3.848   4.635   3.107
 3432SOL     OW11865   4.041   3.975   3.663
 3432SOL    HW111866   4.112   4.046   3.669
 3432SOL    HW211867   3.953   4.014   3.691
 3433SOL     OW11868   4.322   4.453   2.132
 3433SOL    HW111869   4.346   4.522   2.064
 3433SOL    HW211870   4.244   4.486   2.186
 3434SOL     OW11871   5.005   4.069   2.806
 3434SOL    HW111872   4.919   4.019   2.793
 3434SOL    HW211873   5.067   4.015   2.862
 3435SOL     OW11874   4.531   4.329   3.327
 3435SOL    HW111875   4.484   4.326   3.416
 3435SOL    HW211876   4.480   4.274   3.261
 3436SOL     OW11877   4.697   4.614   3.434
 3436SOL    HW111878   4.743   4.530   3.405
 3436SOL    HW211879   4.641   4.648   3.359
 3437SOL     OW11880   4.715   4.134   3.104
 3437SOL    HW111881   4.638   4.168   3.158
 3437SOL    HW211882   4.681   4.083   3.025
 3438SOL     OW11883   4.765   4.425   2.291
 3438SOL    HW111884   4.791   4.421   2.387
 3438SOL    HW211885   4.680   4.374   2.277
 3439SOL     OW11886   3.800   4.535   2.651
 3439SOL    HW111887   3.899   4.523   2.660
 3439SOL    HW211888   3.776   4.630   2.672
 3440SOL     OW11889   4.274   3.920   2.747
 3440SOL    HW111890   4.269   3.915   2.847
 3440SOL    HW211891   4.276   4.016   2.718
 3441SOL     OW11892   4.045   4.667   2.104
 3441SOL    HW111893   4.127   4.706   2.062
 3441SOL    HW211894   4.018   4.585   2.055
 3442SOL     OW11895   3.926   4.009   3.360
 3442SOL    HW111896   3.846   4.069   3.347
 3442SOL    HW211897   3.916   3.960   3.446
 3443SOL     OW11898   4.106   4.424   2.342
 3443SOL    HW111899   4.151   4.334   2.339
 3443SOL    HW211900   4.012   4.413   2.375
 3444SOL     OW11901   4.527   5.126   2.786
 3444SOL    HW111902   4.617   5.140   2.744
 3444SOL    HW211903   4.456   5.128   2.715
 3445SOL     OW11904   4.646   4.227   2.761
 3445SOL    HW111905   4.621   4.218   2.665
 3445SOL    HW211906   4.694   4.145   2.792
 3446SOL     OW11907   5.158   4.912   1.903
 3446SOL    HW111908   5.190   4.836   1.960
 3446SOL    HW211909   5.066   4.939   1.933
 3447SOL     OW11910   4.021   3.759   2.033
 3447SOL    HW111911   4.070   3.843   2.012
 3447SOL    HW211912   4.083   3.694   2.078
 3448SOL     OW11913   4.800   4.407   3.326
 3448SOL    HW111914   4.720   4.346   3.329
 3448SOL    HW211915   4.881   4.354   3.302
 3449SOL     OW11916   4.951   5.294   2.655
 3449SOL    HW111917   4.972   5.368   2.590
 3449SOL    HW211918   5.019   5.294   2.728
 3450SOL     OW11919   4.183   4.876   2.603
 3450SOL    HW111920   4.112   4.849   2.668
 3450SOL    HW211921   4.157   4.848   2.510
 3451SOL     OW11922   4.756   4.273   1.878
 3451SOL    HW111923   4.715   4.355   1.839
 3451SOL    HW211924   4.820   4.299   1.951
 3452SOL     OW11925   3.802   4.280   3.248
 3452SOL    HW111926   3.894   4.279   3.207
 3452SOL    HW211927   3.796   4.354   3.315
 3453SOL     OW11928   4.285   3.946   3.009
 3453SOL    HW111929   4.323   3.862   3.046
 3453SOL    HW211930   4.197   3.965   3.053
 3454SOL     OW11931   4.639   3.813   3.264
 3454SOL    HW111932   4.664   3.793   3.169
 3454SOL    HW211933   4.711   3.869   3.306
 3455SOL     OW11934   4.704   4.840   3.581
 3455SOL    HW111935   4.605   4.846   3.591
 3455SOL    HW211936   4.727   4.760   3.525
 3456SOL     OW11937   4.134   4.537   3.113
 3456SOL    HW111938   4.220   4.549   3.163
 3456SOL    HW211939   4.092   4.450   3.140
 3457SOL     OW11940   4.998   4.110   3.124
 3457SOL    HW111941   5.019   4.184   3.188
 3457SOL    HW211942   4.909   4.127   3.081
 3458SOL     OW11943   4.091   4.824   2.363
 3458SOL    HW111944   4.084   4.907   2.307
 3458SOL    HW211945   4.095   4.744   2.303
 3459SOL     OW11946   4.290   4.261   2.727
 3459SOL    HW111947   4.302   4.327   2.653
 3459SOL    HW211948   4.336   4.295   2.810
 3460SOL     OW11949   4.126   4.475   3.460
 3460SOL    HW111950   4.194   4.530   3.413
 3460SOL    HW211951   4.166   4.387   3.487
 3461SOL     OW11952   4.737   3.829   3.632
 3461SOL    HW111953   4.743   3.914   3.580
 3461SOL    HW211954   4.769   3.753   3.575
 3462SOL     OW11955   4.228   3.774   3.602
 3462SOL    HW111956   4.186   3.717   3.532
 3462SOL    HW211957   4.162   3.843   3.634
 3463SOL     OW11958   4.297   4.594   2.891
 3463SOL    HW111959   4.341   4.683   2.882
 3463SOL    HW211960   4.234   4.594   2.968
 3464SOL     OW11961   5.084   4.586   2.907
 3464SOL    HW111962   5.009   4.586   2.841
 3464SOL    HW211963   5.121   4.494   2.916
 3465SOL     OW11964   4.933   4.249   2.137
 3465SOL    HW111965   4.946   4.165   2.191
 3465SOL    HW211966   4.904   4.323   2.197
 3466SOL     OW11967   4.031   3.937   3.093
 3466SOL    HW111968   4.008   3.974   3.183
 3466SOL    HW211969   4.001   3.842   3.087
 3467SOL     OW11970   4.456   4.358   2.926
 3467SOL    HW111971   4.515   4.332   2.850
 3467SOL    HW211972   4.428   4.454   2.915
 3468SOL     OW11973   4.031   3.787   2.480
 3468SOL    HW111974   4.020   3.881   2.513
 3468SOL    HW211975   4.026   3.724   2.557
 3469SOL     OW11976   5.346   4.091   2.236
 3469SOL    HW111977   5.348   4.015   2.300
 3469SOL    HW211978   5.298   4.168   2.276
 3470SOL     OW11979   4.747   4.490   2.828
 3470SOL    HW111980   4.762   4.511   2.924
 3470SOL    HW211981   4.717   4.395   2.819
 3471SOL     OW11982   5.027   4.562   1.904
 3471SOL    HW111983   5.061   4.469   1.919
 3471SOL    HW211984   5.045   4.589   1.809
 3472SOL     OW11985   4.043   4.534   2.811
 3472SOL    HW111986   4.136   4.570   2.816
 3472SOL    HW211987   4.037   4.449   2.863
 3473SOL     OW11988   4.063   4.233   2.868
 3473SOL    HW111989   4.011   4.150   2.851
 3473SOL    HW211990   4.140   4.238   2.804
 3474SOL     OW11991   4.862   4.104   3.540
 3474SOL    HW111992   4.817   4.167   3.604
 3474SOL    HW211993   4.955   4.135   3.523
 3475SOL     OW11994   4.884   3.931   3.339
 3475SOL    HW111995   4.884   3.995   3.416
 3475SOL    HW211996   4.912   3.979   3.256
 3476SOL     OW11997   3.732   5.050   2.062
 3476SOL    HW111998   3.639   5.071   2.031
 3476SOL    HW211999   3.742   4.951   2.075
 3477SOL     OW12000   4.726   4.520   3.100
 3477SOL    HW112001   4.767   4.488   3.186
 3477SOL    HW212002   4.630   4.493   3.097
 3478SOL     OW12003   3.764   4.268   2.976
 3478SOL    HW112004   3.849   4.235   2.935
 3478SOL    HW212005   3.777   4.283   3.074
 3479SOL     OW12006   3.913   4.244   3.584
 3479SOL    HW112007   3.972   4.204   3.514
 3479SOL    HW212008   3.855   4.315   3.543
 3480SOL     OW12009   4.539   4.296   2.187
 3480SOL    HW112010   4.546   4.207   2.141
 3480SOL    HW212011   4.445   4.330   2.179
 3481SOL     OW12012   4.395   4.188   3.131
 3481SOL    HW112013   4.361   4.099   3.101
 3481SOL    HW212014   4.421   4.242   3.051
 3482SOL     OW12015   4.197   4.224   2.053
 3482SOL    HW112016   4.258   4.304   2.057
 3482SOL    HW212017   4.102   4.255   2.060
 3483SOL     OW12018   3.883   4.861   3.328
 3483SOL    HW112019   3.905   4.800   3.404
 3483SOL    HW212020   3.893   4.812   3.242
 3484SOL     OW12021   5.071   4.783   3.096
 3484SOL    HW112022   5.095   4.720   3.022
 3484SOL    HW212023   4.981   4.823   3.078
 3485SOL     OW12024   3.807   4.982   2.884
 3485SOL    HW112025   3.802   4.981   2.984
 3485SOL    HW212026   3.724   4.941   2.846
 3486SOL     OW12027   5.004   4.651   2.534
 3486SOL    HW112028   5.064   4.570   2.536
 3486SOL    HW212029   5.044   4.720   2.474
 3487SOL     OW12030   4.554   4.997   3.284
 3487SOL    HW112031   4.549   5.030   3.379
 3487SOL    HW212032   4.468   5.016   3.238
 3488SOL     OW12033   3.987   4.050   2.582
 3488SOL    HW112034   3.908   4.101   2.548
 3488SOL    HW212035   3.978   4.035   2.680
 3489SOL     OW12036   4.546   4.726   3.234
 3489SOL    HW112037   4.586   4.725   3.142
 3489SOL    HW212038   4.556   4.818   3.274
 3490SOL     OW12039   4.640   4.634   2.153
 3490SOL    HW112040   4.703   4.672   2.085
 3490SOL    HW212041   4.680   4.551   2.192
 3491SOL     OW12042   4.096   5.012   3.352
 3491SOL    HW112043   4.083   5.105   3.318
 3491SOL    HW212044   4.012   4.960   3.339
 3492SOL     OW12045   4.763   4.822   2.558
 3492SOL    HW112046   4.693   4.775   2.612
 3492SOL    HW212047   4.822   4.754   2.515
 3493SOL     OW12048   3.829   4.737   3.588
 3493SOL    HW112049   3.752   4.704   3.642
 3493SOL    HW212050   3.914   4.707   3.630
 3494SOL     OW12051   3.799   4.069   1.895
 3494SOL    HW112052   3.707   4.041   1.866
 3494SOL    HW212053   3.830   4.146   1.839
 3495SOL     OW12054   5.164   4.580   3.260
 3495SOL    HW112055   5.107   4.632   3.197
 3495SOL    HW212056   5.260   4.592   3.236
 3496SOL     OW12057   3.796   3.890   2.180
 3496SOL    HW112058   3.779   3.973   2.126
 3496SOL    HW212059   3.886   3.853   2.158
 3497SOL     OW12060   4.337   4.566   3.293
 3497SOL    HW112061   4.393   4.647   3.276
 3497SOL    HW212062   4.396   4.486   3.296
 3498SOL     OW12063   5.174   4.944   3.495
 3498SOL    HW112064   5.165   4.934   3.594
 3498SOL    HW212065   5.270   4.937   3.469
 3499SOL     OW12066   4.949   4.049   2.311
 3499SOL    HW112067   5.014   3.975   2.300
 3499SOL    HW212068   4.969   4.099   2.395
 3500SOL     OW12069   4.318   4.469   2.514
 3500SOL    HW112070   4.368   4.554   2.495
 3500SOL    HW212071   4.230   4.471   2.466
 3501SOL     OW12072   4.583   4.680   2.723
 3501SOL    HW112073   4.637   4.611   2.771
 3501SOL    HW212074   4.551   4.749   2.789
 3502SOL     OW12075   4.807   4.708   1.949
 3502SOL    HW112076   4.784   4.761   1.867
 3502SOL    HW212077   4.888   4.652   1.930
 3503SOL     OW12078   3.803   4.964   2.515
 3503SOL    HW112079   3.802   4.917   2.603
 3503SOL    HW212080   3.885   4.936   2.464
 3504SOL     OW12081   4.152   4.148   2.382
 3504SOL    HW112082   4.182   4.076   2.320
 3504SOL    HW212083   4.113   4.108   2.465
 3505SOL     OW12084   4.041   4.271   3.142
 3505SOL    HW112085   4.079   4.212   3.214
 3505SOL    HW212086   4.081   4.245   3.054
 3506SOL     OW12087   4.725   3.758   3.016
 3506SOL    HW112088   4.662   3.686   2.985
 3506SOL    HW212089   4.818   3.722   3.016
 3507SOL     OW12090   5.076   3.776   2.030
 3507SOL    HW112091   5.111   3.735   1.946
 3507SOL    HW212092   4.986   3.738   2.050
 3508SOL     OW12093   3.763   4.801   2.162
 3508SOL    HW112094   3.862   4.790   2.153
 3508SOL    HW212095   3.723   4.715   2.194
 3509SOL     OW12096   3.949   3.999   4.720
 3509SOL    HW112097   3.984   3.982   4.812
 3509SOL    HW212098   3.861   3.954   4.708
 3510SOL     OW12099   3.743   4.092   4.371
 3510SOL    HW112100   3.661   4.135   4.410
 3510SOL    HW212101   3.715   4.019   4.308
 3511SOL     OW12102   4.293   4.999   4.889
 3511SOL    HW112103   4.200   4.992   4.852
 3511SOL    HW212104   4.304   5.088   4.933
 3512SOL     OW12105   4.859   4.427   4.441
 3512SOL    HW112106   4.916   4.505   4.416
 3512SOL    HW212107   4.799   4.453   4.517
 3513SOL     OW12108   4.492   4.868   4.747
 3513SOL    HW112109   4.414   4.885   4.807
 3513SOL    HW212110   4.526   4.955   4.711
 3514SOL     OW12111   4.409   4.736   4.389
 3514SOL    HW112112   4.478   4.720   4.459
 3514SOL    HW212113   4.336   4.793   4.427
 3515SOL     OW12114   4.059   5.159   4.785
 3515SOL    HW112115   3.981   5.128   4.732
 3515SOL    HW212116   4.117   5.217   4.728
 3516SOL     OW12117   3.964   4.815   4.610
 3516SOL    HW112118   3.978   4.731   4.662
 3516SOL    HW212119   3.909   4.879   4.665
 3517SOL     OW12120   4.330   4.688   3.847
 3517SOL    HW112121   4.337   4.772   3.793
 3517SOL    HW212122   4.376   4.701   3.935
 3518SOL     OW12123   3.846   4.367   4.287
 3518SOL    HW112124   3.801   4.279   4.304
 3518SOL    HW212125   3.845   4.421   4.371
 3519SOL     OW12126   4.533   3.728   4.226
 3519SOL    HW112127   4.573   3.819   4.217
 3519SOL    HW212128   4.433   3.736   4.232
 3520SOL     OW12129   3.921   4.700   4.988
 3520SOL    HW112130   4.010   4.655   4.974
 3520SOL    HW212131   3.848   4.635   4.969
 3521SOL     OW12132   5.005   4.069   4.668
 3521SOL    HW112133   4.919   4.019   4.655
 3521SOL    HW212134   5.067   4.015   4.724
 3522SOL     OW12135   4.715   4.134   4.966
 3522SOL    HW112136   4.638   4.168   5.020
 3522SOL    HW212137   4.681   4.083   4.887
 3523SOL     OW12138   3.800   4.535   4.513
 3523SOL    HW112139   3.899   4.523   4.522
 3523SOL    HW212140   3.776   4.630   4.534
 3524SOL     OW12141   4.274   3.920   4.609
 3524SOL    HW112142   4.269   3.915   4.709
 3524SOL    HW212143   4.276   4.016   4.580
 3525SOL     OW12144   4.045   4.667   3.966
 3525SOL    HW112145   4.127   4.706   3.924
 3525SOL    HW212146   4.018   4.585   3.917
 3526SOL     OW12147   4.106   4.424   4.204
 3526SOL    HW112148   4.151   4.334   4.201
 3526SOL    HW212149   4.012   4.413   4.237
 3527SOL     OW12150   4.338   3.846   3.841
 3527SOL    HW112151   4.436   3.824   3.848
 3527SOL    HW212152   4.307   3.829   3.748
 3528SOL     OW12153   4.527   5.126   4.648
 3528SOL    HW112154   4.617   5.140   4.606
 3528SOL    HW212155   4.456   5.128   4.577
 3529SOL     OW12156   4.646   4.227   4.623
 3529SOL    HW112157   4.621   4.218   4.527
 3529SOL    HW212158   4.694   4.145   4.654
 3530SOL     OW12159   4.263   3.788   4.236
 3530SOL    HW112160   4.182   3.789   4.294
 3530SOL    HW212161   4.266   3.871   4.181
 3531SOL     OW12162   5.158   4.912   3.765
 3531SOL    HW112163   5.190   4.836   3.822
 3531SOL    HW212164   5.066   4.939   3.795
 3532SOL     OW12165   4.021   3.759   3.895
 3532SOL    HW112166   4.070   3.843   3.874
 3532SOL    HW212167   4.083   3.694   3.940
 3533SOL     OW12168   4.659   3.960   4.204
 3533SOL    HW112169   4.611   4.001   4.126
 3533SOL    HW212170   4.758   3.958   4.185
 3534SOL     OW12171   4.951   5.294   4.517
 3534SOL    HW112172   4.972   5.368   4.452
 3534SOL    HW212173   5.019   5.294   4.590
 3535SOL     OW12174   4.183   4.876   4.465
 3535SOL    HW112175   4.112   4.849   4.530
 3535SOL    HW212176   4.157   4.848   4.372
 3536SOL     OW12177   4.756   4.273   3.740
 3536SOL    HW112178   4.715   4.355   3.701
 3536SOL    HW212179   4.820   4.299   3.813
 3537SOL     OW12180   4.285   3.946   4.871
 3537SOL    HW112181   4.323   3.862   4.908
 3537SOL    HW212182   4.197   3.965   4.915
 3538SOL     OW12183   4.590   4.178   4.366
 3538SOL    HW112184   4.558   4.250   4.304
 3538SOL    HW212185   4.614   4.097   4.313
 3539SOL     OW12186   4.741   3.763   4.477
 3539SOL    HW112187   4.669   3.768   4.408
 3539SOL    HW212188   4.717   3.694   4.546
 3540SOL     OW12189   4.134   4.537   4.975
 3540SOL    HW112190   4.220   4.549   5.025
 3540SOL    HW212191   4.092   4.450   5.002
 3541SOL     OW12192   4.091   4.824   4.225
 3541SOL    HW112193   4.084   4.907   4.169
 3541SOL    HW212194   4.095   4.744   4.165
 3542SOL     OW12195   4.290   4.261   4.589
 3542SOL    HW112196   4.302   4.327   4.515
 3542SOL    HW212197   4.336   4.295   4.672
 3543SOL     OW12198   4.976   5.072   4.112
 3543SOL    HW112199   5.026   5.149   4.152
 3543SOL    HW212200   4.881   5.074   4.144
 3544SOL     OW12201   4.297   4.594   4.753
 3544SOL    HW112202   4.341   4.683   4.744
 3544SOL    HW212203   4.234   4.594   4.830
 3545SOL     OW12204   4.031   3.937   4.955
 3545SOL    HW112205   4.008   3.974   5.045
 3545SOL    HW212206   4.001   3.842   4.949
 3546SOL     OW12207   4.456   4.358   4.788
 3546SOL    HW112208   4.515   4.332   4.712
 3546SOL    HW212209   4.428   4.454   4.777
 3547SOL     OW12210   4.031   3.787   4.342
 3547SOL    HW112211   4.020   3.881   4.375
 3547SOL    HW212212   4.026   3.724   4.419
 3548SOL     OW12213   5.346   4.091   4.098
 3548SOL    HW112214   5.348   4.015   4.162
 3548SOL    HW212215   5.298   4.168   4.138
 3549SOL     OW12216   4.747   4.490   4.690
 3549SOL    HW112217   4.762   4.511   4.786
 3549SOL    HW212218   4.717   4.395   4.681
 3550SOL     OW12219   5.027   4.562   3.766
 3550SOL    HW112220   5.061   4.469   3.781
 3550SOL    HW212221   5.045   4.589   3.671
 3551SOL     OW12222   4.043   4.534   4.673
 3551SOL    HW112223   4.136   4.570   4.678
 3551SOL    HW212224   4.037   4.449   4.725
 3552SOL     OW12225   4.063   4.233   4.730
 3552SOL    HW112226   4.011   4.150   4.713
 3552SOL    HW212227   4.140   4.238   4.666
 3553SOL     OW12228   4.884   3.931   5.201
 3553SOL    HW112229   4.884   3.995   5.278
 3553SOL    HW212230   4.912   3.979   5.118
 3554SOL     OW12231   3.732   5.050   3.924
 3554SOL    HW112232   3.639   5.071   3.893
 3554SOL    HW212233   3.742   4.951   3.937
 3555SOL     OW12234   4.726   4.520   4.962
 3555SOL    HW112235   4.767   4.488   5.048
 3555SOL    HW212236   4.630   4.493   4.959
 3556SOL     OW12237   3.764   4.268   4.838
 3556SOL    HW112238   3.849   4.235   4.797
 3556SOL    HW212239   3.777   4.283   4.936
 3557SOL     OW12240   4.395   4.188   4.993
 3557SOL    HW112241   4.361   4.099   4.963
 3557SOL    HW212242   4.421   4.242   4.913
 3558SOL     OW12243   3.807   4.982   4.746
 3558SOL    HW112244   3.802   4.981   4.846
 3558SOL    HW212245   3.724   4.941   4.708
 3559SOL     OW12246   5.004   4.651   4.396
 3559SOL    HW112247   5.064   4.570   4.398
 3559SOL    HW212248   5.044   4.720   4.336
 3560SOL     OW12249   4.554   4.997   5.146
 3560SOL    HW112250   4.549   5.030   5.241
 3560SOL    HW212251   4.468   5.016   5.100
 3561SOL     OW12252   3.987   4.050   4.444
 3561SOL    HW112253   3.908   4.101   4.410
 3561SOL    HW212254   3.978   4.035   4.542
 3562SOL     OW12255   4.546   4.726   5.096
 3562SOL    HW112256   4.586   4.725   5.004
 3562SOL    HW212257   4.556   4.818   5.136
 3563SOL     OW12258   4.763   4.822   4.420
 3563SOL    HW112259   4.693   4.775   4.474
 3563SOL    HW212260   4.822   4.754   4.377
 3564SOL     OW12261   4.738   3.960   4.695
 3564SOL    HW112262   4.730   3.924   4.602
 3564SOL    HW212263   4.736   3.884   4.760
 3565SOL     OW12264   3.799   4.069   3.757
 3565SOL    HW112265   3.707   4.041   3.728
 3565SOL    HW212266   3.830   4.146   3.701
 3566SOL     OW12267   3.796   3.890   4.042
 3566SOL    HW112268   3.779   3.973   3.988
 3566SOL    HW212269   3.886   3.853   4.020
 3567SOL     OW12270   4.949   4.049   4.173
 3567SOL    HW112271   5.014   3.975   4.162
 3567SOL    HW212272   4.969   4.099   4.257
 3568SOL     OW12273   4.318   4.469   4.376
 3568SOL    HW112274   4.368   4.554   4.357
 3568SOL    HW212275   4.230   4.471   4.328
 3569SOL     OW12276   4.583   4.680   4.585
 3569SOL    HW112277   4.637   4.611   4.633
 3569SOL    HW212278   4.551   4.749   4.651
 3570SOL     OW12279   4.807   4.708   3.811
 3570SOL    HW112280   4.784   4.761   3.729
 3570SOL    HW212281   4.888   4.652   3.792
 3571SOL     OW12282   3.803   4.964   4.377
 3571SOL    HW112283   3.802   4.917   4.465
 3571SOL    HW212284   3.885   4.936   4.326
 3572SOL     OW12285   4.152   4.148   4.244
 3572SOL    HW112286   4.182   4.076   4.182
 3572SOL    HW212287   4.113   4.108   4.327
 3573SOL     OW12288   4.725   3.758   4.878
 3573SOL    HW112289   4.662   3.686   4.847
 3573SOL    HW212290   4.818   3.722   4.878
 3574SOL     OW12291   4.494   5.054   4.025
 3574SOL    HW112292   4.448   4.967   4.042
 3574SOL    HW212293   4.585   5.051   4.066
 3575SOL     OW12294   5.076   3.776   3.892
 3575SOL    HW112295   5.111   3.735   3.808
 3575SOL    HW212296   4.986   3.738   3.912
 3576SOL     OW12297   3.763   4.801   4.024
 3576SOL    HW112298   3.862   4.790   4.015
 3576SOL    HW212299   3.723   4.715   4.056
   5.08970   5.08970   5.08970
