UNITED ATOM STRUCTURE FOR MOLECULE UNK
12743
    0X2IT   H18    1   3.092   2.352   2.583
    0X2IT    N4    2   3.026   2.419   2.548
    0X2IT   H17    3   3.059   2.484   2.478
    0X2IT   C14    4   2.895   2.380   2.546
    0X2IT    O5    5   2.849   2.285   2.607
    0X2IT    O4    6   2.822   2.466   2.469
    0X2IT   C13    7   2.680   2.441   2.463
    0X2IT   C10    8   2.607   2.502   2.584
    0X2IT    C9    9   2.457   2.484   2.578
    0X2IT    C4   10   2.394   2.607   2.582
    0X2IT    C5   11   2.245   2.625   2.577
    0X2IT    O1   12   2.197   2.739   2.585
    0X2IT    C6   13   2.166   2.505   2.564
    0X2IT   C12   14   2.015   2.516   2.558
    0X2IT    C7   15   2.229   2.382   2.561
    0X2IT    C8   16   2.381   2.365   2.567
    0X2IT    O2   17   2.427   2.250   2.559
    0X2IT    N3   18   2.164   2.265   2.551
    0X2IT   H15   19   2.064   2.258   2.544
    0X2IT   H16   20   2.221   2.180   2.548
    0X2IT    N2   21   2.482   2.709   2.599
    0X2IT    C3   22   2.473   2.846   2.546
    0X2IT    C2   23   2.599   2.856   2.461
    0X2IT    H2   24   2.639   2.954   2.435
    0X2IT    N1   25   2.611   2.744   2.365
    0X2IT   H14   26   2.674   2.771   2.289
    0X2IT    C1   27   2.688   2.741   2.491
    0X2IT    H1   28   2.796   2.748   2.490
    0X2IT   C11   29   2.622   2.658   2.600
    0X2IT    O3   30   2.691   2.695   2.718
    0X2IT   C15   31   2.628   2.664   2.843
    1X2IT   H18   32   4.049   4.370  -0.084
    1X2IT    N4   33   4.123   4.425  -0.044
    1X2IT   H17   34   4.203   4.374  -0.009
    1X2IT   C14   35   4.141   4.550  -0.096
    1X2IT    O5   36   4.060   4.611  -0.163
    1X2IT    O4   37   4.263   4.599  -0.056
    1X2IT   C13   38   4.293   4.734  -0.098
    1X2IT   C10   39   4.230   4.838  -0.003
    1X2IT    C9   40   4.265   4.980  -0.039
    1X2IT    C4   41   4.328   5.042   0.067
    1X2IT    C5   42   4.377   5.184   0.064
    1X2IT    O1   43   4.429   5.233   0.166
    1X2IT    C6   44   4.358   5.256  -0.059
    1X2IT   C12   45   4.405   5.400  -0.069
    1X2IT    C7   46   4.294   5.195  -0.165
    1X2IT    C8   47   4.244   5.050  -0.161
    1X2IT    O2   48   4.192   5.003  -0.263
    1X2IT    N3   49   4.271   5.254  -0.283
    1X2IT   H15   50   4.299   5.348  -0.304
    1X2IT   H16   51   4.224   5.198  -0.355
    1X2IT    N2   52   4.333   4.963   0.177
    1X2IT    C3   53   4.439   4.957   0.280
    1X2IT    C2   54   4.486   4.813   0.270
    1X2IT    H2   55   4.540   4.768   0.353
    1X2IT    N1   56   4.521   4.775   0.131
    1X2IT   H14   57   4.583   4.693   0.133
    1X2IT    C1   58   4.390   4.735   0.187
    1X2IT    H1   59   4.367   4.631   0.206
    1X2IT   C11   60   4.277   4.828   0.147
    1X2IT    O3   61   4.172   4.794   0.236
    1X2IT   C15   62   4.065   4.889   0.250
    2X2IT   H18   63   2.342   0.288   5.114
    2X2IT    N4   64   2.404   0.227   5.063
    2X2IT   H17   65   2.364   0.173   4.988
    2X2IT   C14   66   2.535   0.267   5.055
    2X2IT    O5   67   2.587   0.352   5.125
    2X2IT    O4   68   2.600   0.194   4.960
    2X2IT   C13   69   2.741   0.220   4.945
    2X2IT   C10   70   2.824   0.143   5.048
    2X2IT    C9   71   2.973   0.162   5.032
    2X2IT    C4   72   3.035   0.041   5.012
    2X2IT    C5   73   3.183   0.025   4.991
    2X2IT    O1   74   3.231  -0.089   4.977
    2X2IT    C6   75   3.261   0.146   4.988
    2X2IT   C12   76   3.411   0.137   4.967
    2X2IT    C7   77   3.199   0.267   5.009
    2X2IT    C8   78   3.048   0.282   5.031
    2X2IT    O2   79   3.003   0.397   5.045
    2X2IT    N3   80   3.264   0.385   5.011
    2X2IT   H15   81   3.363   0.394   4.996
    2X2IT   H16   82   3.207   0.469   5.025
    2X2IT    N2   83   2.949  -0.063   5.021
    2X2IT    C3   84   2.952  -0.191   4.948
    2X2IT    C2   85   2.819  -0.189   4.874
    2X2IT    H2   86   2.776  -0.283   4.838
    2X2IT    N1   87   2.799  -0.065   4.797
    2X2IT   H14   88   2.729  -0.080   4.724
    2X2IT    C1   89   2.733  -0.081   4.929
    2X2IT    H1   90   2.626  -0.088   4.937
    2X2IT   C11   91   2.810  -0.014   5.043
    2X2IT    O3   92   2.751  -0.069   5.160
    2X2IT   C15   93   2.826  -0.056   5.282
    3X2IT   H18   94   0.583   4.038   3.163
    3X2IT    N4   95   0.606   3.958   3.219
    3X2IT   H17   96   0.554   3.945   3.304
    3X2IT   C14   97   0.651   3.848   3.151
    3X2IT    O5   98   0.691   3.848   3.036
    3X2IT    O4   99   0.648   3.738   3.232
    3X2IT   C13  100   0.699   3.616   3.176
    3X2IT   C10  101   0.852   3.608   3.187
    3X2IT    C9  102   0.909   3.478   3.135
    3X2IT    C4  103   0.981   3.414   3.234
    3X2IT    C5  104   1.049   3.282   3.216
    3X2IT    O1  105   1.115   3.234   3.310
    3X2IT    C6  106   1.035   3.219   3.087
    3X2IT   C12  107   1.102   3.085   3.062
    3X2IT    C7  108   0.964   3.283   2.988
    3X2IT    C8  109   0.895   3.419   3.007
    3X2IT    O2  110   0.830   3.465   2.912
    3X2IT    N3  111   0.947   3.234   2.864
    3X2IT   H15  112   0.984   3.145   2.835
    3X2IT   H16  113   0.892   3.289   2.799
    3X2IT    N2  114   0.988   3.489   3.348
    3X2IT    C3  115   0.993   3.441   3.487
    3X2IT    C2  116   0.868   3.506   3.547
    3X2IT    H2  117   0.861   3.518   3.655
    3X2IT    N1  118   0.747   3.478   3.467
    3X2IT   H14  119   0.664   3.492   3.526
    3X2IT    C1  120   0.816   3.608   3.453
    3X2IT    H1  121   0.768   3.700   3.486
    3X2IT   C11  122   0.909   3.614   3.333
    3X2IT    O3  123   0.988   3.730   3.357
    3X2IT   C15  124   1.110   3.741   3.283
    4X2IT   H18  125   4.994   2.148   1.051
    4X2IT    N4  126   4.924   2.210   1.089
    4X2IT   H17  127   4.865   2.259   1.023
    4X2IT   C14  128   4.872   2.176   1.211
    4X2IT    O5  129   4.922   2.095   1.288
    4X2IT    O4  130   4.759   2.248   1.236
    4X2IT   C13  131   4.698   2.227   1.365
    4X2IT   C10  132   4.765   2.312   1.474
    4X2IT    C9  133   4.699   2.299   1.609
    4X2IT    C4  134   4.656   2.423   1.654
    4X2IT    C5  135   4.586   2.445   1.785
    4X2IT    O1  136   4.555   2.560   1.819
    4X2IT    C6  137   4.559   2.327   1.864
    4X2IT   C12  138   4.488   2.342   1.997
    4X2IT    C7  139   4.602   2.204   1.819
    4X2IT    C8  140   4.675   2.183   1.686
    4X2IT    O2  141   4.705   2.067   1.654
    4X2IT    N3  142   4.584   2.089   1.887
    4X2IT   H15  143   4.536   2.084   1.975
    4X2IT   H16  144   4.618   2.003   1.844
    4X2IT    N2  145   4.693   2.523   1.570
    4X2IT    C3  146   4.621   2.648   1.541
    4X2IT    C2  147   4.597   2.637   1.391
    4X2IT    H2  148   4.576   2.727   1.333
    4X2IT    N1  149   4.534   2.509   1.353
    4X2IT   H14  150   4.489   2.519   1.262
    4X2IT    C1  151   4.679   2.527   1.336
    4X2IT    H1  152   4.723   2.530   1.237
    4X2IT   C11  153   4.761   2.468   1.450
    4X2IT    O3  154   4.890   2.524   1.432
    4X2IT   C15  155   4.980   2.519   1.544
    5X2IT   H18  156   3.607   0.647   2.871
    5X2IT    N4  157   3.633   0.706   2.948
    5X2IT   H17  158   3.653   0.803   2.928
    5X2IT   C14  159   3.580   0.673   3.070
    5X2IT    O5  160   3.528   0.566   3.098
    5X2IT    O4  161   3.597   0.776   3.158
    5X2IT   C13  162   3.552   0.753   3.293
    5X2IT   C10  163   3.657   0.678   3.375
    5X2IT    C9  164   3.616   0.658   3.520
    5X2IT    C4  165   3.710   0.714   3.604
    5X2IT    C5  166   3.699   0.713   3.754
    5X2IT    O1  167   3.790   0.763   3.822
    5X2IT    C6  168   3.581   0.651   3.809
    5X2IT   C12  169   3.564   0.646   3.960
    5X2IT    C7  170   3.488   0.593   3.725
    5X2IT    C8  171   3.501   0.595   3.572
    5X2IT    O2  172   3.409   0.544   3.506
    5X2IT    N3  173   3.377   0.532   3.767
    5X2IT   H15  174   3.352   0.524   3.864
    5X2IT   H16  175   3.314   0.495   3.696
    5X2IT    N2  176   3.817   0.764   3.536
    5X2IT    C3  177   3.899   0.881   3.570
    5X2IT    C2  178   3.880   0.971   3.449
    5X2IT    H2  179   3.952   1.049   3.427
    5X2IT    N1  180   3.737   0.992   3.416
    5X2IT   H14  181   3.727   1.076   3.360
    5X2IT    C1  182   3.815   0.893   3.340
    5X2IT    H1  183   3.837   0.908   3.235
    5X2IT   C11  184   3.797   0.750   3.389
    5X2IT    O3  185   3.902   0.678   3.328
    5X2IT   C15  186   3.936   0.551   3.384
    6X2IT   H18  187   2.728   4.655   1.737
    6X2IT    N4  188   2.652   4.659   1.802
    6X2IT   H17  189   2.560   4.680   1.766
    6X2IT   C14  190   2.663   4.578   1.912
    6X2IT    O5  191   2.766   4.525   1.951
    6X2IT    O4  192   2.543   4.570   1.976
    6X2IT   C13  193   2.540   4.493   2.098
    6X2IT   C10  194   2.588   4.577   2.218
    6X2IT    C9  195   2.580   4.503   2.350
    6X2IT    C4  196   2.499   4.571   2.439
    6X2IT    C5  197   2.470   4.523   2.578
    6X2IT    O1  198   2.399   4.593   2.653
    6X2IT    C6  199   2.529   4.397   2.617
    6X2IT   C12  200   2.503   4.344   2.756
    6X2IT    C7  201   2.610   4.330   2.528
    6X2IT    C8  202   2.640   4.380   2.387
    6X2IT    O2  203   2.711   4.309   2.314
    6X2IT    N3  204   2.671   4.213   2.556
    6X2IT   H15  205   2.660   4.166   2.644
    6X2IT   H16  206   2.728   4.172   2.482
    6X2IT    N2  207   2.456   4.689   2.388
    6X2IT    C3  208   2.327   4.756   2.413
    6X2IT    C2  209   2.268   4.765   2.273
    6X2IT    H2  210   2.189   4.838   2.252
    6X2IT    N1  211   2.266   4.634   2.205
    6X2IT   H14  212   2.197   4.635   2.130
    6X2IT    C1  213   2.372   4.732   2.173
    6X2IT    H1  214   2.377   4.778   2.075
    6X2IT   C11  215   2.502   4.706   2.248
    6X2IT    O3  216   2.576   4.826   2.231
    6X2IT   C15  217   2.685   4.849   2.320
    7X2IT   H18  218   2.695   4.139   0.453
    7X2IT    N4  219   2.634   4.185   0.518
    7X2IT   H17  220   2.603   4.278   0.494
    7X2IT   C14  221   2.552   4.105   0.592
    7X2IT    O5  222   2.565   3.985   0.606
    7X2IT    O4  223   2.455   4.181   0.652
    7X2IT   C13  224   2.365   4.110   0.740
    7X2IT   C10  225   2.425   4.092   0.880
    7X2IT    C9  226   2.331   4.024   0.977
    7X2IT    C4  227   2.309   4.106   1.087
    7X2IT    C5  228   2.219   4.069   1.202
    7X2IT    O1  229   2.208   4.147   1.298
    7X2IT    C6  230   2.151   3.942   1.192
    7X2IT   C12  231   2.059   3.900   1.305
    7X2IT    C7  232   2.174   3.861   1.083
    7X2IT    C8  233   2.266   3.899   0.967
    7X2IT    O2  234   2.275   3.820   0.872
    7X2IT    N3  235   2.116   3.741   1.067
    7X2IT   H15  236   2.051   3.701   1.132
    7X2IT   H16  237   2.139   3.689   0.981
    7X2IT    N2  238   2.384   4.219   1.083
    7X2IT    C3  239   2.349   4.352   1.133
    7X2IT    C2  240   2.356   4.438   1.007
    7X2IT    H2  241   2.368   4.546   1.016
    7X2IT    N1  242   2.275   4.381   0.897
    7X2IT   H14  243   2.253   4.455   0.829
    7X2IT    C1  244   2.421   4.360   0.899
    7X2IT    H1  245   2.484   4.405   0.824
    7X2IT   C11  246   2.462   4.225   0.956
    7X2IT    O3  247   2.601   4.239   0.980
    7X2IT   C15  248   2.661   4.144   1.068
    8SOL     OW  249   0.230   0.628   0.113
    8SOL    HW1  250   0.137   0.626   0.150
    8SOL    HW2  251   0.231   0.589   0.021
    9SOL     OW  252   0.225   0.275   0.996
    9SOL    HW1  253   0.260   0.258   1.088
    9SOL    HW2  254   0.137   0.230   0.984
   10SOL     OW  255   0.019   0.368   0.647
   10SOL    HW1  256  -0.063   0.411   0.686
   10SOL    HW2  257  -0.009   0.295   0.584
   11SOL     OW  258   0.569   1.275   1.165
   11SOL    HW1  259   0.476   1.268   1.128
   11SOL    HW2  260   0.580   1.364   1.209
   12SOL     OW  261   1.555   1.511   0.703
   12SOL    HW1  262   1.498   1.495   0.784
   12SOL    HW2  263   1.496   1.521   0.623
   13SOL     OW  264   1.135   0.703   0.717
   13SOL    HW1  265   1.192   0.781   0.692
   13SOL    HW2  266   1.075   0.729   0.793
   14SOL     OW  267   1.755   0.607   0.231
   14SOL    HW1  268   1.743   0.594   0.132
   14SOL    HW2  269   1.725   0.526   0.280
   15SOL     OW  270   0.768   1.144   1.023
   15SOL    HW1  271   0.690   1.161   1.083
   15SOL    HW2  272   0.802   1.231   0.987
   16SOL     OW  273   0.850   0.798   1.823
   16SOL    HW1  274   0.846   0.874   1.888
   16SOL    HW2  275   0.872   0.834   1.732
   17SOL     OW  276   0.685   1.012   0.665
   17SOL    HW1  277   0.754   0.996   0.735
   17SOL    HW2  278   0.612   1.069   0.703
   18SOL     OW  279   0.686   1.161   1.803
   18SOL    HW1  280   0.746   1.240   1.817
   18SOL    HW2  281   0.600   1.192   1.762
   19SOL     OW  282   0.335   1.435   1.061
   19SOL    HW1  283   0.257   1.404   1.008
   19SOL    HW2  284   0.393   1.493   1.004
   20SOL     OW  285   1.460   1.505   1.339
   20SOL    HW1  286   1.484   1.599   1.365
   20SOL    HW2  287   1.444   1.451   1.421
   21SOL     OW  288   0.438   0.392   1.499
   21SOL    HW1  289   0.520   0.336   1.508
   21SOL    HW2  290   0.357   0.334   1.503
   22SOL     OW  291   1.603   0.447   0.737
   22SOL    HW1  292   1.529   0.493   0.687
   22SOL    HW2  293   1.654   0.515   0.790
   23SOL     OW  294   0.231   1.713   0.483
   23SOL    HW1  295   0.265   1.790   0.537
   23SOL    HW2  296   0.275   1.713   0.393
   24SOL     OW  297   1.127   1.341   1.690
   24SOL    HW1  298   1.174   1.341   1.778
   24SOL    HW2  299   1.079   1.254   1.679
   25SOL     OW  300   0.230   1.434   0.538
   25SOL    HW1  301   0.204   1.530   0.538
   25SOL    HW2  302   0.159   1.380   0.583
   26SOL     OW  303   0.240   1.091   0.886
   26SOL    HW1  304   0.254   1.007   0.938
   26SOL    HW2  305   0.185   1.155   0.941
   27SOL     OW  306   0.620   1.786   1.439
   27SOL    HW1  307   0.528   1.769   1.474
   27SOL    HW2  308   0.648   1.878   1.465
   28SOL     OW  309   0.606   0.964   0.123
   28SOL    HW1  310   0.613   1.048   0.069
   28SOL    HW2  311   0.652   0.977   0.211
   29SOL     OW  312   1.594   0.114   1.480
   29SOL    HW1  313   1.576   0.181   1.408
   29SOL    HW2  314   1.591   0.160   1.569
   30SOL     OW  315   0.122   0.643   0.563
   30SOL    HW1  316   0.077   0.555   0.580
   30SOL    HW2  317   0.121   0.697   0.647
   31SOL     OW  318   1.842   1.767   0.359
   31SOL    HW1  319   1.896   1.738   0.439
   31SOL    HW2  320   1.872   1.857   0.330
   32SOL     OW  321   0.027   1.596   0.117
   32SOL    HW1  322   0.008   1.500   0.138
   32SOL    HW2  323  -0.006   1.654   0.192
   33SOL     OW  324   1.689   0.922   0.612
   33SOL    HW1  325   1.784   0.893   0.620
   33SOL    HW2  326   1.681   0.987   0.537
   34SOL     OW  327   1.641   1.108   0.432
   34SOL    HW1  328   1.727   1.110   0.380
   34SOL    HW2  329   1.655   1.155   0.520
   35SOL     OW  330   0.113   0.737   1.597
   35SOL    HW1  331   0.201   0.724   1.642
   35SOL    HW2  332   0.100   0.834   1.575
   36SOL     OW  333   0.613   1.365   0.726
   36SOL    HW1  334   0.564   1.278   0.735
   36SOL    HW2  335   0.590   1.408   0.639
   37SOL     OW  336   1.293   1.228   1.423
   37SOL    HW1  337   1.330   1.155   1.365
   37SOL    HW2  338   1.345   1.233   1.508
   38SOL     OW  339   0.809   0.004   0.502
   38SOL    HW1  340   0.849   0.095   0.493
   38SOL    HW2  341   0.709   0.012   0.508
   39SOL     OW  342   0.197   0.976   1.264
   39SOL    HW1  343   0.286   0.931   1.250
   39SOL    HW2  344   0.124   0.911   1.245
   40SOL     OW  345   1.525   0.999   0.190
   40SOL    HW1  346   1.462   0.923   0.203
   40SOL    HW2  347   1.573   1.017   0.276
   41SOL     OW  348   1.187   1.792   1.616
   41SOL    HW1  349   1.211   1.852   1.540
   41SOL    HW2  350   1.194   1.697   1.586
   42SOL     OW  351   0.317   0.251   1.801
   42SOL    HW1  352   0.388   0.322   1.807
   42SOL    HW2  353   0.229   0.290   1.829
   43SOL     OW  354   1.466   1.417   0.953
   43SOL    HW1  355   1.407   1.423   1.033
   43SOL    HW2  356   1.451   1.329   0.907
   44SOL     OW  357   1.667   1.714   0.572
   44SOL    HW1  358   1.626   1.691   0.484
   44SOL    HW2  359   1.649   1.640   0.637
   45SOL     OW  360   0.598   0.729   0.270
   45SOL    HW1  361   0.622   0.798   0.202
   45SOL    HW2  362   0.520   0.762   0.324
   46SOL     OW  363   1.281   0.345   0.944
   46SOL    HW1  364   1.195   0.295   0.931
   46SOL    HW2  365   1.343   0.291   1.000
   47SOL     OW  366   1.576   1.662   0.307
   47SOL    HW1  367   1.665   1.708   0.310
   47SOL    HW2  368   1.555   1.638   0.212
   48SOL     OW  369   0.807   0.605   1.465
   48SOL    HW1  370   0.760   0.602   1.554
   48SOL    HW2  371   0.756   0.550   1.399
   49SOL     OW  372   1.394   0.469   1.674
   49SOL    HW1  373   1.374   0.512   1.762
   49SOL    HW2  374   1.472   0.407   1.683
   50SOL     OW  375   0.973   0.890   1.572
   50SOL    HW1  376   1.019   0.806   1.543
   50SOL    HW2  377   0.917   0.924   1.497
   51SOL     OW  378   0.991   0.410   1.242
   51SOL    HW1  379   0.914   0.444   1.296
   51SOL    HW2  380   0.957   0.359   1.163
   52SOL     OW  381   1.041   0.701   0.429
   52SOL    HW1  382   1.067   0.697   0.525
   52SOL    HW2  383   0.956   0.650   0.415
   53SOL     OW  384   0.076   0.811   0.789
   53SOL    HW1  385   0.175   0.799   0.798
   53SOL    HW2  386   0.052   0.906   0.810
   54SOL     OW  387   0.130   1.821   1.571
   54SOL    HW1  388   0.120   1.806   1.670
   54SOL    HW2  389   0.044   1.857   1.535
   55SOL     OW  390   0.865   0.348   0.195
   55SOL    HW1  391   0.924   0.411   0.146
   55SOL    HW2  392   0.884   0.254   0.166
   56SOL     OW  393   1.719   0.585   1.831
   56SOL    HW1  394   1.693   0.674   1.795
   56SOL    HW2  395   1.717   0.517   1.758
   57SOL     OW  396   1.362   1.144   0.545
   57SOL    HW1  397   1.445   1.115   0.497
   57SOL    HW2  398   1.313   1.211   0.489
   58SOL     OW  399   0.550   0.196   0.885
   58SOL    HW1  400   0.545   0.191   0.985
   58SOL    HW2  401   0.552   0.292   0.856
   59SOL     OW  402   1.008   1.456   0.477
   59SOL    HW1  403   0.962   1.528   0.425
   59SOL    HW2  404   1.004   1.476   0.575
   60SOL     OW  405   0.351   1.801   0.853
   60SOL    HW1  406   0.401   1.715   0.859
   60SOL    HW2  407   0.416   1.878   0.850
   61SOL     OW  408   1.795   1.066   0.873
   61SOL    HW1  409   1.733   1.051   0.797
   61SOL    HW2  410   1.743   1.077   0.958
   62SOL     OW  411   1.227   1.550   1.506
   62SOL    HW1  412   1.233   1.473   1.570
   62SOL    HW2  413   1.175   1.524   1.426
   63SOL     OW  414   0.321   0.943   0.242
   63SOL    HW1  415   0.403   0.982   0.200
   63SOL    HW2  416   0.294   0.861   0.193
   64SOL     OW  417   1.458   0.735   0.728
   64SOL    HW1  418   1.453   0.670   0.803
   64SOL    HW2  419   1.538   0.794   0.741
   65SOL     OW  420   0.461   1.266   1.727
   65SOL    HW1  421   0.411   1.267   1.641
   65SOL    HW2  422   0.398   1.248   1.803
   66SOL     OW  423   1.111   1.776   0.237
   66SOL    HW1  424   1.051   1.714   0.287
   66SOL    HW2  425   1.142   1.732   0.152
   67SOL     OW  426   0.202   0.285   1.498
   67SOL    HW1  427   0.122   0.345   1.485
   67SOL    HW2  428   0.192   0.236   1.584
   68SOL     OW  429   1.632   1.377   0.081
   68SOL    HW1  430   1.600   1.471   0.071
   68SOL    HW2  431   1.556   1.314   0.069
   69SOL     OW  432   0.464   1.743   0.323
   69SOL    HW1  433   0.497   1.782   0.409
   69SOL    HW2  434   0.540   1.736   0.258
   70SOL     OW  435   1.400   0.107   0.426
   70SOL    HW1  436   1.376   0.070   0.336
   70SOL    HW2  437   1.499   0.123   0.430
   71SOL     OW  438   0.249   1.785   1.241
   71SOL    HW1  439   0.306   1.720   1.291
   71SOL    HW2  440   0.233   1.752   1.148
   72SOL     OW  441   0.940   1.698   0.904
   72SOL    HW1  442   1.020   1.641   0.925
   72SOL    HW2  443   0.891   1.658   0.827
   73SOL     OW  444   0.382   0.700   0.480
   73SOL    HW1  445   0.427   0.610   0.477
   73SOL    HW2  446   0.288   0.689   0.513
   74SOL     OW  447   1.547   0.222   1.729
   74SOL    HW1  448   1.542   0.259   1.821
   74SOL    HW2  449   1.475   0.153   1.717
   75SOL     OW  450   0.614   0.122   0.117
   75SOL    HW1  451   0.712   0.100   0.124
   75SOL    HW2  452   0.583   0.105   0.024
   76SOL     OW  453   0.781   0.264   1.749
   76SOL    HW1  454   0.848   0.203   1.792
   76SOL    HW2  455   0.708   0.283   1.814
   77SOL     OW  456   0.888   1.514   1.195
   77SOL    HW1  457   0.865   1.489   1.101
   77SOL    HW2  458   0.949   1.445   1.234
   78SOL     OW  459   1.351   0.590   1.433
   78SOL    HW1  460   1.379   0.547   1.518
   78SOL    HW2  461   1.376   0.686   1.434
   79SOL     OW  462   0.803   1.402   0.924
   79SOL    HW1  463   0.893   1.416   0.882
   79SOL    HW2  464   0.732   1.404   0.853
   80SOL     OW  465   0.922   0.503   0.899
   80SOL    HW1  466   0.897   0.494   0.803
   80SOL    HW2  467   0.970   0.421   0.930
   81SOL     OW  468   0.539   0.064   0.512
   81SOL    HW1  469   0.458   0.065   0.570
   81SOL    HW2  470   0.542   0.147   0.457
   82SOL     OW  471   1.434   1.188   0.041
   82SOL    HW1  472   1.466   1.112   0.098
   82SOL    HW2  473   1.342   1.215   0.071
   83SOL     OW  474   0.297   0.035   0.171
   83SOL    HW1  475   0.346   0.119   0.150
   83SOL    HW2  476   0.359  -0.030   0.216
   84SOL     OW  477   0.935   0.236   0.480
   84SOL    HW1  478   0.887   0.277   0.402
   84SOL    HW2  479   1.034   0.234   0.461
   85SOL     OW  480   1.076   0.683   1.464
   85SOL    HW1  481   0.996   0.622   1.467
   85SOL    HW2  482   1.157   0.630   1.440
   86SOL     OW  483   1.227   1.570   0.793
   86SOL    HW1  484   1.248   1.644   0.728
   86SOL    HW2  485   1.295   1.570   0.866
   87SOL     OW  486   0.459   1.152   0.741
   87SOL    HW1  487   0.388   1.125   0.806
   87SOL    HW2  488   0.433   1.124   0.648
   88SOL     OW  489   1.271   1.797   0.591
   88SOL    HW1  490   1.315   1.861   0.527
   88SOL    HW2  491   1.221   1.849   0.661
   89SOL     OW  492   1.032   0.549   0.016
   89SOL    HW1  493   0.991   0.631  -0.023
   89SOL    HW2  494   1.096   0.575   0.089
   90SOL     OW  495   0.078   0.556   1.386
   90SOL    HW1  496   0.170   0.555   1.345
   90SOL    HW2  497   0.072   0.630   1.453
   91SOL     OW  498   0.561   0.222   1.147
   91SOL    HW1  499   0.599   0.138   1.184
   91SOL    HW2  500   0.473   0.241   1.191
   92SOL     OW  501   0.866   0.454   0.642
   92SOL    HW1  502   0.834   0.526   0.580
   92SOL    HW2  503   0.890   0.373   0.589
   93SOL     OW  504   1.017   0.039   0.753
   93SOL    HW1  505   0.945   0.044   0.684
   93SOL    HW2  506   0.993  -0.030   0.822
   94SOL     OW  507   1.429   1.173   0.867
   94SOL    HW1  508   1.374   1.089   0.860
   94SOL    HW2  509   1.455   1.202   0.775
   95SOL     OW  510   1.466   0.590   0.992
   95SOL    HW1  511   1.436   0.495   0.999
   95SOL    HW2  512   1.539   0.606   1.058
   96SOL     OW  513   1.857   0.833   0.377
   96SOL    HW1  514   1.899   0.769   0.441
   96SOL    HW2  515   1.819   0.782   0.299
   97SOL     OW  516   0.488   1.385   0.174
   97SOL    HW1  517   0.401   1.370   0.221
   97SOL    HW2  518   0.471   1.411   0.079
   98SOL     OW  519   1.664   1.280   0.657
   98SOL    HW1  520   1.763   1.288   0.671
   98SOL    HW2  521   1.619   1.364   0.688
   99SOL     OW  522   1.390   0.575   0.078
   99SOL    HW1  523   1.336   0.554   0.159
   99SOL    HW2  524   1.481   0.534   0.087
  100SOL     OW  525   0.527   0.256   0.328
  100SOL    HW1  526   0.554   0.197   0.253
  100SOL    HW2  527   0.527   0.351   0.297
  101SOL     OW  528   1.754   1.223   1.588
  101SOL    HW1  529   1.845   1.184   1.575
  101SOL    HW2  530   1.762   1.319   1.612
  102SOL     OW  531   1.064   1.347   1.340
  102SOL    HW1  532   0.984   1.324   1.395
  102SOL    HW2  533   1.147   1.321   1.389
  103SOL     OW  534   1.592   1.629   1.625
  103SOL    HW1  535   1.619   1.663   1.535
  103SOL    HW2  536   1.671   1.591   1.671
  104SOL     OW  537   1.111   1.195   1.100
  104SOL    HW1  538   1.071   1.239   1.181
  104SOL    HW2  539   1.070   1.232   1.017
  105SOL     OW  540   1.638   1.099   1.079
  105SOL    HW1  541   1.643   1.180   1.138
  105SOL    HW2  542   1.552   1.101   1.028
  106SOL     OW  543   0.915   0.089   1.402
  106SOL    HW1  544   0.940   0.069   1.307
  106SOL    HW2  545   0.987   0.145   1.444
  107SOL     OW  546   0.980   1.116   1.719
  107SOL    HW1  547   0.881   1.122   1.729
  107SOL    HW2  548   1.003   1.036   1.663
  108SOL     OW  549   0.705   1.050   0.368
  108SOL    HW1  550   0.691   1.057   0.467
  108SOL    HW2  551   0.789   0.999   0.350
  109SOL     OW  552   0.410   0.813   1.251
  109SOL    HW1  553   0.496   0.825   1.301
  109SOL    HW2  554   0.368   0.726   1.278
  110SOL     OW  555   1.274   0.386   1.262
  110SOL    HW1  556   1.295   0.460   1.326
  110SOL    HW2  557   1.185   0.403   1.219
  111SOL     OW  558   0.064   1.564   1.331
  111SOL    HW1  559   0.018   1.646   1.297
  111SOL    HW2  560   0.162   1.583   1.340
  112SOL     OW  561   0.367   1.100   0.501
  112SOL    HW1  562   0.360   1.183   0.445
  112SOL    HW2  563   0.371   1.020   0.441
  113SOL     OW  564   0.566   0.537   0.865
  113SOL    HW1  565   0.578   0.603   0.791
  113SOL    HW2  566   0.612   0.571   0.948
  114SOL     OW  567   1.252   1.348   0.388
  114SOL    HW1  568   1.302   1.425   0.428
  114SOL    HW2  569   1.157   1.350   0.420
  115SOL     OW  570   1.272   1.445   1.142
  115SOL    HW1  571   1.319   1.458   1.229
  115SOL    HW2  572   1.206   1.371   1.151
  116SOL     OW  573   1.582   0.639   0.472
  116SOL    HW1  574   1.551   0.700   0.545
  116SOL    HW2  575   1.632   0.691   0.403
  117SOL     OW  576   0.354   1.510   1.329
  117SOL    HW1  577   0.333   1.466   1.242
  117SOL    HW2  578   0.451   1.536   1.332
  118SOL     OW  579   0.402   0.751   1.598
  118SOL    HW1  580   0.470   0.806   1.551
  118SOL    HW2  581   0.442   0.663   1.625
  119SOL     OW  582   1.587   0.779   1.670
  119SOL    HW1  583   1.495   0.817   1.665
  119SOL    HW2  584   1.647   0.826   1.605
  120SOL     OW  585   1.013   0.105   1.770
  120SOL    HW1  586   1.019   0.190   1.718
  120SOL    HW2  587   1.045   0.029   1.713
  121SOL     OW  588   0.504   0.050   1.740
  121SOL    HW1  589   0.462  -0.007   1.670
  121SOL    HW2  590   0.438   0.119   1.772
  122SOL     OW  591   0.573   0.870   1.029
  122SOL    HW1  592   0.617   0.959   1.020
  122SOL    HW2  593   0.510   0.870   1.106
  123SOL     OW  594   1.360   0.862   1.045
  123SOL    HW1  595   1.285   0.862   0.979
  123SOL    HW2  596   1.397   0.770   1.054
  124SOL     OW  597   1.209   0.525   0.275
  124SOL    HW1  598   1.222   0.441   0.329
  124SOL    HW2  599   1.180   0.599   0.335
  125SOL     OW  600   0.307   0.213   1.231
  125SOL    HW1  601   0.284   0.250   1.321
  125SOL    HW2  602   0.277   0.118   1.225
  126SOL     OW  603   0.037   1.310   1.282
  126SOL    HW1  604   0.090   1.261   1.350
  126SOL    HW2  605   0.059   1.408   1.287
  127SOL     OW  606   0.732   0.634   1.064
  127SOL    HW1  607   0.791   0.608   0.988
  127SOL    HW2  608   0.704   0.730   1.053
  128SOL     OW  609   1.728   0.935   1.854
  128SOL    HW1  610   1.682   0.928   1.765
  128SOL    HW2  611   1.666   0.979   1.920
  129SOL     OW  612   0.307   0.063   0.618
  129SOL    HW1  613   0.296   0.157   0.651
  129SOL    HW2  614   0.302   0.000   0.695
  130SOL     OW  615   1.622   0.367   0.374
  130SOL    HW1  616   1.624   0.291   0.438
  130SOL    HW2  617   1.574   0.444   0.414
  131SOL     OW  618   1.023   0.766   0.966
  131SOL    HW1  619   1.038   0.787   1.062
  131SOL    HW2  620   0.993   0.671   0.957
  132SOL     OW  621   0.980   1.573   1.700
  132SOL    HW1  622   0.960   1.617   1.612
  132SOL    HW2  623   1.019   1.482   1.684
  133SOL     OW  624   1.859   1.518   1.605
  133SOL    HW1  625   1.873   1.545   1.510
  133SOL    HW2  626   1.942   1.540   1.658
  134SOL     OW  627   0.350   0.898   1.804
  134SOL    HW1  628   0.426   0.942   1.852
  134SOL    HW2  629   0.385   0.851   1.722
  135SOL     OW  630   1.540   0.274   0.125
  135SOL    HW1  631   1.479   0.199   0.148
  135SOL    HW2  632   1.562   0.326   0.208
  136SOL     OW  633   1.303   0.838   0.042
  136SOL    HW1  634   1.337   0.745   0.057
  136SOL    HW2  635   1.321   0.865  -0.053
  137SOL     OW  636   1.068   1.333   0.849
  137SOL    HW1  637   1.075   1.249   0.794
  137SOL    HW2  638   1.130   1.402   0.813
  138SOL     OW  639   0.319   0.810   0.949
  138SOL    HW1  640   0.412   0.846   0.954
  138SOL    HW2  641   0.313   0.725   1.001
  139SOL     OW  642   0.339   0.509   1.006
  139SOL    HW1  643   0.287   0.426   0.989
  139SOL    HW2  644   0.416   0.514   0.942
  140SOL     OW  645   1.138   0.380   1.678
  140SOL    HW1  646   1.093   0.443   1.742
  140SOL    HW2  647   1.231   0.411   1.661
  141SOL     OW  648   1.160   0.207   1.477
  141SOL    HW1  649   1.160   0.271   1.554
  141SOL    HW2  650   1.188   0.255   1.394
  142SOL     OW  651   0.008   1.326   0.200
  142SOL    HW1  652  -0.085   1.347   0.169
  142SOL    HW2  653   0.018   1.227   0.213
  143SOL     OW  654   0.088   1.801   0.927
  143SOL    HW1  655   0.046   1.715   0.900
  143SOL    HW2  656   0.182   1.804   0.893
  144SOL     OW  657   0.504   1.568   0.910
  144SOL    HW1  658   0.570   1.642   0.919
  144SOL    HW2  659   0.548   1.489   0.868
  145SOL     OW  660   1.002   0.796   1.238
  145SOL    HW1  661   1.043   0.764   1.324
  145SOL    HW2  662   0.906   0.769   1.235
  146SOL     OW  663   0.040   0.544   1.114
  146SOL    HW1  664   0.125   0.511   1.073
  146SOL    HW2  665   0.053   0.559   1.212
  147SOL     OW  666   0.189   0.520   1.722
  147SOL    HW1  667   0.248   0.480   1.652
  147SOL    HW2  668   0.131   0.591   1.681
  148SOL     OW  669   1.369   0.950   1.660
  148SOL    HW1  670   1.408   1.039   1.680
  148SOL    HW2  671   1.379   0.930   1.563
  149SOL     OW  672   0.815   0.572   0.325
  149SOL    HW1  673   0.822   0.483   0.279
  149SOL    HW2  674   0.721   0.606   0.317
  150SOL     OW  675   1.657   0.604   1.206
  150SOL    HW1  676   1.619   0.535   1.268
  150SOL    HW2  677   1.739   0.568   1.162
  151SOL     OW  678   0.252   1.564   1.744
  151SOL    HW1  679   0.222   1.621   1.820
  151SOL    HW2  680   0.245   1.467   1.770
  152SOL     OW  681   0.671   0.464   1.269
  152SOL    HW1  682   0.637   0.375   1.239
  152SOL    HW2  683   0.697   0.518   1.189
  153SOL     OW  684   0.930   1.678   1.465
  153SOL    HW1  685   0.906   1.660   1.370
  153SOL    HW2  686   0.960   1.772   1.475
  154SOL     OW  687   0.473   0.500   0.191
  154SOL    HW1  688   0.534   0.580   0.195
  154SOL    HW2  689   0.378   0.531   0.198
  155SOL     OW  690   0.159   1.137   1.466
  155SOL    HW1  691   0.181   1.076   1.542
  155SOL    HW2  692   0.169   1.088   1.380
  156SOL     OW  693   1.347   1.059   1.234
  156SOL    HW1  694   1.371   0.996   1.160
  156SOL    HW2  695   1.257   1.099   1.216
  157SOL     OW  696   1.302   0.855   0.309
  157SOL    HW1  697   1.216   0.824   0.351
  157SOL    HW2  698   1.298   0.841   0.210
  158SOL     OW  699   1.759   1.747   1.154
  158SOL    HW1  700   1.820   1.777   1.081
  158SOL    HW2  701   1.721   1.658   1.132
  159SOL     OW  702   1.252   1.731   1.128
  159SOL    HW1  703   1.336   1.736   1.074
  159SOL    HW2  704   1.229   1.635   1.146
  160SOL     OW  705   0.083   1.258   1.022
  160SOL    HW1  706   0.078   1.257   1.122
  160SOL    HW2  707   0.000   1.217   0.984
  161SOL     OW  708   0.688   1.662   1.716
  161SOL    HW1  709   0.632   1.743   1.725
  161SOL    HW2  710   0.740   1.666   1.630
  162SOL     OW  711   0.903   0.086   0.133
  162SOL    HW1  712   0.954   0.087   0.047
  162SOL    HW2  713   0.959   0.044   0.204
  163SOL     OW  714   1.726   0.135   0.523
  163SOL    HW1  715   1.799   0.118   0.456
  163SOL    HW2  716   1.695   0.048   0.561
  164SOL     OW  717   1.388   1.573   0.477
  164SOL    HW1  718   1.455   1.585   0.403
  164SOL    HW2  719   1.348   1.662   0.500
  165SOL     OW  720   0.130   1.794   1.851
  165SOL    HW1  721   0.089   1.720   1.904
  165SOL    HW2  722   0.194   1.845   1.909
  166SOL     OW  723   1.280   0.927   0.672
  166SOL    HW1  724   1.340   0.846   0.674
  166SOL    HW2  725   1.320   0.996   0.612
  167SOL     OW  726   0.830   1.273   1.422
  167SOL    HW1  727   0.825   1.306   1.517
  167SOL    HW2  728   0.744   1.292   1.376
  168SOL     OW  729   0.672   1.616   0.154
  168SOL    HW1  730   0.681   1.626   0.055
  168SOL    HW2  731   0.632   1.527   0.175
  169SOL     OW  732   1.650   1.720   1.394
  169SOL    HW1  733   1.703   1.730   1.310
  169SOL    HW2  734   1.623   1.810   1.428
  170SOL     OW  735   1.841   0.175   0.963
  170SOL    HW1  736   1.880   0.090   0.927
  170SOL    HW2  737   1.743   0.177   0.944
  171SOL     OW  738   0.263   0.326   0.720
  171SOL    HW1  739   0.184   0.377   0.686
  171SOL    HW2  740   0.254   0.311   0.818
  172SOL     OW  741   1.194   1.612   0.031
  172SOL    HW1  742   1.200   1.519   0.068
  172SOL    HW2  743   1.135   1.612  -0.049
  173SOL     OW  744   0.822   1.002   1.372
  173SOL    HW1  745   0.862   1.001   1.280
  173SOL    HW2  746   0.832   1.094   1.412
  174SOL     OW  747   0.916   0.910   0.291
  174SOL    HW1  748   0.979   0.948   0.223
  174SOL    HW2  749   0.956   0.827   0.330
  175SOL     OW  750   1.504   1.607   0.044
  175SOL    HW1  751   1.412   1.644   0.051
  175SOL    HW2  752   1.542   1.627  -0.046
  176SOL     OW  753   0.372   1.288   1.490
  176SOL    HW1  754   0.359   1.381   1.456
  176SOL    HW2  755   0.288   1.236   1.477
  177SOL     OW  756   1.614   1.292   1.289
  177SOL    HW1  757   1.674   1.295   1.369
  177SOL    HW2  758   1.539   1.356   1.302
  178SOL     OW  759   1.039   1.098   0.696
  178SOL    HW1  760   0.969   1.051   0.750
  178SOL    HW2  761   1.098   1.030   0.653
  179SOL     OW  762   1.014   0.236   0.971
  179SOL    HW1  763   1.006   0.200   0.878
  179SOL    HW2  764   1.012   0.160   1.036
  180SOL     OW  765   0.590   1.487   0.491
  180SOL    HW1  766   0.632   1.429   0.421
  180SOL    HW2  767   0.546   1.566   0.447
  181SOL     OW  768   1.709   0.385   1.381
  181SOL    HW1  769   1.782   0.454   1.385
  181SOL    HW2  770   1.737   0.310   1.322
  182SOL     OW  771   0.255   1.348   0.290
  182SOL    HW1  772   0.159   1.349   0.263
  182SOL    HW2  773   0.267   1.401   0.374
  183SOL     OW  774   0.105   1.013   1.726
  183SOL    HW1  775   0.028   0.980   1.780
  183SOL    HW2  776   0.190   0.983   1.768
  184SOL     OW  777   0.672   0.203   1.489
  184SOL    HW1  778   0.762   0.187   1.449
  184SOL    HW2  779   0.680   0.208   1.588
  185SOL     OW  780   0.075   0.345   0.033
  185SOL    HW1  781  -0.017   0.317   0.004
  185SOL    HW2  782   0.106   0.422  -0.023
  186SOL     OW  783   1.440   0.856   1.398
  186SOL    HW1  784   1.383   0.908   1.335
  186SOL    HW2  785   1.536   0.868   1.374
  187SOL     OW  786   0.072   0.166   0.318
  187SOL    HW1  787   0.055   0.249   0.264
  187SOL    HW2  788   0.162   0.129   0.296
  188SOL     OW  789   1.183   1.335   0.119
  188SOL    HW1  790   1.084   1.324   0.121
  188SOL    HW2  791   1.217   1.350   0.212
  189SOL     OW  792   0.613   0.842   1.431
  189SOL    HW1  793   0.669   0.923   1.414
  189SOL    HW2  794   0.672   0.762   1.434
  190SOL     OW  795   1.493   1.767   0.959
  190SOL    HW1  796   1.526   1.831   0.890
  190SOL    HW2  797   1.559   1.761   1.034
  191SOL     OW  798   0.716   0.565   1.708
  191SOL    HW1  799   0.735   0.630   1.782
  191SOL    HW2  800   0.776   0.485   1.717
  192SOL     OW  801   1.450   1.220   1.633
  192SOL    HW1  802   1.441   1.210   1.732
  192SOL    HW2  803   1.546   1.213   1.607
  193SOL     OW  804   0.390   1.741   1.560
  193SOL    HW1  805   0.299   1.782   1.558
  193SOL    HW2  806   0.383   1.647   1.592
  194SOL     OW  807   1.674   0.883   1.254
  194SOL    HW1  808   1.647   0.794   1.217
  194SOL    HW2  809   1.675   0.951   1.181
  195SOL     OW  810   1.225   0.325   0.449
  195SOL    HW1  811   1.290   0.251   0.438
  195SOL    HW2  812   1.245   0.375   0.533
  196SOL     OW  813   0.594   0.745   0.652
  196SOL    HW1  814   0.644   0.830   0.633
  196SOL    HW2  815   0.506   0.747   0.604
  197SOL     OW  816   1.777   0.342   1.642
  197SOL    HW1  817   1.760   0.373   1.548
  197SOL    HW2  818   1.693   0.305   1.680
  198SOL     OW  819   1.730   0.934   1.517
  198SOL    HW1  820   1.768   1.025   1.532
  198SOL    HW2  821   1.722   0.917   1.418
  199SOL     OW  822   0.859   1.374   0.016
  199SOL    HW1  823   0.813   1.389   0.104
  199SOL    HW2  824   0.903   1.459  -0.014
  200SOL     OW  825   0.661   1.790   0.953
  200SOL    HW1  826   0.615   1.878   0.940
  200SOL    HW2  827   0.760   1.802   0.946
  201SOL     OW  828   0.859   0.956   0.861
  201SOL    HW1  829   0.913   0.887   0.909
  201SOL    HW2  830   0.827   1.025   0.927
  202SOL     OW  831   1.083   0.984   0.087
  202SOL    HW1  832   1.060   1.037   0.005
  202SOL    HW2  833   1.164   0.928   0.068
  203SOL     OW  834   1.861   1.569   0.851
  203SOL    HW1  835   1.790   1.557   0.781
  203SOL    HW2  836   1.862   1.490   0.911
  204SOL     OW  837   0.221   1.314   1.844
  204SOL    HW1  838   0.156   1.241   1.823
  204SOL    HW2  839   0.225   1.328   1.942
  205SOL     OW  840   0.079   1.240   0.653
  205SOL    HW1  841   0.078   1.193   0.741
  205SOL    HW2  842   0.161   1.212   0.602
  206SOL     OW  843   0.672   1.391   1.624
  206SOL    HW1  844   0.594   1.341   1.662
  206SOL    HW2  845   0.669   1.486   1.655
  207SOL     OW  846   1.824   0.192   1.227
  207SOL    HW1  847   1.820   0.102   1.271
  207SOL    HW2  848   1.827   0.181   1.128
  208SOL     OW  849   0.428   0.424   0.520
  208SOL    HW1  850   0.458   0.352   0.458
  208SOL    HW2  851   0.389   0.384   0.603
  209SOL     OW  852   1.705   1.487   1.104
  209SOL    HW1  853   1.612   1.462   1.077
  209SOL    HW2  854   1.731   1.437   1.186
  210SOL     OW  855   0.317   0.547   1.280
  210SOL    HW1  856   0.355   0.488   1.352
  210SOL    HW2  857   0.357   0.521   1.192
  211SOL     OW  858   0.812   1.586   0.687
  211SOL    HW1  859   0.844   1.596   0.593
  211SOL    HW2  860   0.733   1.524   0.689
  212SOL     OW  861   1.424   0.214   1.112
  212SOL    HW1  862   1.476   0.149   1.167
  212SOL    HW2  863   1.375   0.277   1.173
  213SOL     OW  864   1.001   0.034   1.154
  213SOL    HW1  865   0.938  -0.038   1.123
  213SOL    HW2  866   1.094  -0.002   1.154
  214SOL     OW  867   0.770   1.330   0.301
  214SOL    HW1  868   0.724   1.243   0.318
  214SOL    HW2  869   0.861   1.327   0.342
  215SOL     OW  870   0.618   1.567   1.284
  215SOL    HW1  871   0.613   1.649   1.341
  215SOL    HW2  872   0.707   1.564   1.239
  216SOL     OW  873   1.352   0.052   0.168
  216SOL    HW1  874   1.387   0.011   0.084
  216SOL    HW2  875   1.262   0.014   0.188
  217SOL     OW  876   1.300   0.453   0.691
  217SOL    HW1  877   1.241   0.533   0.695
  217SOL    HW2  878   1.315   0.418   0.784
  218SOL     OW  879   1.593   0.221   0.882
  218SOL    HW1  880   1.509   0.220   0.936
  218SOL    HW2  881   1.595   0.304   0.826
  219SOL     OW  882   0.039   1.077   0.300
  219SOL    HW1  883   0.138   1.066   0.291
  219SOL    HW2  884  -0.001   0.991   0.332
  220SOL     OW  885   0.875   1.646   0.337
  220SOL    HW1  886   0.798   1.611   0.283
  220SOL    HW2  887   0.843   1.717   0.399
  221SOL     OW  888   0.230   0.628   1.975
  221SOL    HW1  889   0.137   0.626   2.012
  221SOL    HW2  890   0.231   0.589   1.883
  222SOL     OW  891   0.225   0.275   2.858
  222SOL    HW1  892   0.260   0.258   2.950
  222SOL    HW2  893   0.137   0.230   2.846
  223SOL     OW  894   0.019   0.368   2.509
  223SOL    HW1  895  -0.063   0.411   2.548
  223SOL    HW2  896  -0.009   0.295   2.446
  224SOL     OW  897   0.569   1.275   3.027
  224SOL    HW1  898   0.476   1.268   2.990
  224SOL    HW2  899   0.580   1.364   3.071
  225SOL     OW  900   1.555   1.511   2.565
  225SOL    HW1  901   1.498   1.495   2.646
  225SOL    HW2  902   1.496   1.521   2.485
  226SOL     OW  903   1.135   0.703   2.579
  226SOL    HW1  904   1.192   0.781   2.554
  226SOL    HW2  905   1.075   0.729   2.655
  227SOL     OW  906   1.755   0.607   2.093
  227SOL    HW1  907   1.743   0.594   1.994
  227SOL    HW2  908   1.725   0.526   2.142
  228SOL     OW  909   0.768   1.144   2.885
  228SOL    HW1  910   0.690   1.161   2.945
  228SOL    HW2  911   0.802   1.231   2.849
  229SOL     OW  912   0.850   0.798   3.685
  229SOL    HW1  913   0.846   0.874   3.750
  229SOL    HW2  914   0.872   0.834   3.594
  230SOL     OW  915   0.685   1.012   2.527
  230SOL    HW1  916   0.754   0.996   2.597
  230SOL    HW2  917   0.612   1.069   2.565
  231SOL     OW  918   0.686   1.161   3.665
  231SOL    HW1  919   0.746   1.240   3.679
  231SOL    HW2  920   0.600   1.192   3.624
  232SOL     OW  921   0.335   1.435   2.923
  232SOL    HW1  922   0.257   1.404   2.870
  232SOL    HW2  923   0.393   1.493   2.866
  233SOL     OW  924   1.460   1.505   3.201
  233SOL    HW1  925   1.484   1.599   3.227
  233SOL    HW2  926   1.444   1.451   3.283
  234SOL     OW  927   0.438   0.392   3.361
  234SOL    HW1  928   0.520   0.336   3.370
  234SOL    HW2  929   0.357   0.334   3.365
  235SOL     OW  930   1.603   0.447   2.599
  235SOL    HW1  931   1.529   0.493   2.549
  235SOL    HW2  932   1.654   0.515   2.652
  236SOL     OW  933   0.231   1.713   2.345
  236SOL    HW1  934   0.265   1.790   2.399
  236SOL    HW2  935   0.275   1.713   2.255
  237SOL     OW  936   1.127   1.341   3.552
  237SOL    HW1  937   1.174   1.341   3.640
  237SOL    HW2  938   1.079   1.254   3.541
  238SOL     OW  939   0.230   1.434   2.400
  238SOL    HW1  940   0.204   1.530   2.400
  238SOL    HW2  941   0.159   1.380   2.445
  239SOL     OW  942   0.240   1.091   2.748
  239SOL    HW1  943   0.254   1.007   2.800
  239SOL    HW2  944   0.185   1.155   2.803
  240SOL     OW  945   0.620   1.786   3.301
  240SOL    HW1  946   0.528   1.769   3.336
  240SOL    HW2  947   0.648   1.878   3.327
  241SOL     OW  948   0.606   0.964   1.985
  241SOL    HW1  949   0.613   1.048   1.931
  241SOL    HW2  950   0.652   0.977   2.073
  242SOL     OW  951   1.594   0.114   3.342
  242SOL    HW1  952   1.576   0.181   3.270
  242SOL    HW2  953   1.591   0.160   3.431
  243SOL     OW  954   0.122   0.643   2.425
  243SOL    HW1  955   0.077   0.555   2.442
  243SOL    HW2  956   0.121   0.697   2.509
  244SOL     OW  957   1.842   1.767   2.221
  244SOL    HW1  958   1.896   1.738   2.301
  244SOL    HW2  959   1.872   1.857   2.192
  245SOL     OW  960   0.027   1.596   1.979
  245SOL    HW1  961   0.008   1.500   2.000
  245SOL    HW2  962  -0.006   1.654   2.054
  246SOL     OW  963   1.689   0.922   2.474
  246SOL    HW1  964   1.784   0.893   2.482
  246SOL    HW2  965   1.681   0.987   2.399
  247SOL     OW  966   1.641   1.108   2.294
  247SOL    HW1  967   1.727   1.110   2.242
  247SOL    HW2  968   1.655   1.155   2.382
  248SOL     OW  969   0.113   0.737   3.459
  248SOL    HW1  970   0.201   0.724   3.504
  248SOL    HW2  971   0.100   0.834   3.437
  249SOL     OW  972   0.613   1.365   2.588
  249SOL    HW1  973   0.564   1.278   2.597
  249SOL    HW2  974   0.590   1.408   2.501
  250SOL     OW  975   1.293   1.228   3.285
  250SOL    HW1  976   1.330   1.155   3.227
  250SOL    HW2  977   1.345   1.233   3.370
  251SOL     OW  978   0.809   0.004   2.364
  251SOL    HW1  979   0.849   0.095   2.355
  251SOL    HW2  980   0.709   0.012   2.370
  252SOL     OW  981   0.197   0.976   3.126
  252SOL    HW1  982   0.286   0.931   3.112
  252SOL    HW2  983   0.124   0.911   3.107
  253SOL     OW  984   1.525   0.999   2.052
  253SOL    HW1  985   1.462   0.923   2.065
  253SOL    HW2  986   1.573   1.017   2.138
  254SOL     OW  987   1.187   1.792   3.478
  254SOL    HW1  988   1.211   1.852   3.402
  254SOL    HW2  989   1.194   1.697   3.448
  255SOL     OW  990   0.317   0.251   3.663
  255SOL    HW1  991   0.388   0.322   3.669
  255SOL    HW2  992   0.229   0.290   3.691
  256SOL     OW  993   1.466   1.417   2.815
  256SOL    HW1  994   1.407   1.423   2.895
  256SOL    HW2  995   1.451   1.329   2.769
  257SOL     OW  996   1.667   1.714   2.434
  257SOL    HW1  997   1.626   1.691   2.346
  257SOL    HW2  998   1.649   1.640   2.499
  258SOL     OW  999   0.598   0.729   2.132
  258SOL    HW1 1000   0.622   0.798   2.064
  258SOL    HW2 1001   0.520   0.762   2.186
  259SOL     OW 1002   1.281   0.345   2.806
  259SOL    HW1 1003   1.195   0.295   2.793
  259SOL    HW2 1004   1.343   0.291   2.862
  260SOL     OW 1005   1.576   1.662   2.169
  260SOL    HW1 1006   1.665   1.708   2.172
  260SOL    HW2 1007   1.555   1.638   2.074
  261SOL     OW 1008   0.807   0.605   3.327
  261SOL    HW1 1009   0.760   0.602   3.416
  261SOL    HW2 1010   0.756   0.550   3.261
  262SOL     OW 1011   1.394   0.469   3.536
  262SOL    HW1 1012   1.374   0.512   3.624
  262SOL    HW2 1013   1.472   0.407   3.545
  263SOL     OW 1014   0.973   0.890   3.434
  263SOL    HW1 1015   1.019   0.806   3.405
  263SOL    HW2 1016   0.917   0.924   3.359
  264SOL     OW 1017   0.991   0.410   3.104
  264SOL    HW1 1018   0.914   0.444   3.158
  264SOL    HW2 1019   0.957   0.359   3.025
  265SOL     OW 1020   1.041   0.701   2.291
  265SOL    HW1 1021   1.067   0.697   2.387
  265SOL    HW2 1022   0.956   0.650   2.277
  266SOL     OW 1023   0.076   0.811   2.651
  266SOL    HW1 1024   0.175   0.799   2.660
  266SOL    HW2 1025   0.052   0.906   2.672
  267SOL     OW 1026   0.130   1.821   3.433
  267SOL    HW1 1027   0.120   1.806   3.532
  267SOL    HW2 1028   0.044   1.857   3.397
  268SOL     OW 1029   0.865   0.348   2.057
  268SOL    HW1 1030   0.924   0.411   2.008
  268SOL    HW2 1031   0.884   0.254   2.028
  269SOL     OW 1032   1.719   0.585   3.693
  269SOL    HW1 1033   1.693   0.674   3.657
  269SOL    HW2 1034   1.717   0.517   3.620
  270SOL     OW 1035   1.362   1.144   2.407
  270SOL    HW1 1036   1.445   1.115   2.359
  270SOL    HW2 1037   1.313   1.211   2.351
  271SOL     OW 1038   0.550   0.196   2.747
  271SOL    HW1 1039   0.545   0.191   2.847
  271SOL    HW2 1040   0.552   0.292   2.718
  272SOL     OW 1041   1.008   1.456   2.339
  272SOL    HW1 1042   0.962   1.528   2.287
  272SOL    HW2 1043   1.004   1.476   2.437
  273SOL     OW 1044   0.351   1.801   2.715
  273SOL    HW1 1045   0.401   1.715   2.721
  273SOL    HW2 1046   0.416   1.878   2.712
  274SOL     OW 1047   1.795   1.066   2.735
  274SOL    HW1 1048   1.733   1.051   2.659
  274SOL    HW2 1049   1.743   1.077   2.820
  275SOL     OW 1050   1.227   1.550   3.368
  275SOL    HW1 1051   1.233   1.473   3.432
  275SOL    HW2 1052   1.175   1.524   3.288
  276SOL     OW 1053   0.321   0.943   2.104
  276SOL    HW1 1054   0.403   0.982   2.062
  276SOL    HW2 1055   0.294   0.861   2.055
  277SOL     OW 1056   1.458   0.735   2.590
  277SOL    HW1 1057   1.453   0.670   2.665
  277SOL    HW2 1058   1.538   0.794   2.603
  278SOL     OW 1059   0.461   1.266   3.589
  278SOL    HW1 1060   0.411   1.267   3.503
  278SOL    HW2 1061   0.398   1.248   3.665
  279SOL     OW 1062   1.111   1.776   2.099
  279SOL    HW1 1063   1.051   1.714   2.149
  279SOL    HW2 1064   1.142   1.732   2.014
  280SOL     OW 1065   0.202   0.285   3.360
  280SOL    HW1 1066   0.122   0.345   3.347
  280SOL    HW2 1067   0.192   0.236   3.446
  281SOL     OW 1068   1.632   1.377   1.943
  281SOL    HW1 1069   1.600   1.471   1.933
  281SOL    HW2 1070   1.556   1.314   1.931
  282SOL     OW 1071   0.464   1.743   2.185
  282SOL    HW1 1072   0.497   1.782   2.271
  282SOL    HW2 1073   0.540   1.736   2.120
  283SOL     OW 1074   1.400   0.107   2.288
  283SOL    HW1 1075   1.376   0.070   2.198
  283SOL    HW2 1076   1.499   0.123   2.292
  284SOL     OW 1077   0.249   1.785   3.103
  284SOL    HW1 1078   0.306   1.720   3.153
  284SOL    HW2 1079   0.233   1.752   3.010
  285SOL     OW 1080   0.940   1.698   2.766
  285SOL    HW1 1081   1.020   1.641   2.787
  285SOL    HW2 1082   0.891   1.658   2.689
  286SOL     OW 1083   0.382   0.700   2.342
  286SOL    HW1 1084   0.427   0.610   2.339
  286SOL    HW2 1085   0.288   0.689   2.375
  287SOL     OW 1086   1.547   0.222   3.591
  287SOL    HW1 1087   1.542   0.259   3.683
  287SOL    HW2 1088   1.475   0.153   3.579
  288SOL     OW 1089   0.614   0.122   1.979
  288SOL    HW1 1090   0.712   0.100   1.986
  288SOL    HW2 1091   0.583   0.105   1.886
  289SOL     OW 1092   0.781   0.264   3.611
  289SOL    HW1 1093   0.848   0.203   3.654
  289SOL    HW2 1094   0.708   0.283   3.676
  290SOL     OW 1095   0.888   1.514   3.057
  290SOL    HW1 1096   0.865   1.489   2.963
  290SOL    HW2 1097   0.949   1.445   3.096
  291SOL     OW 1098   1.351   0.590   3.295
  291SOL    HW1 1099   1.379   0.547   3.380
  291SOL    HW2 1100   1.376   0.686   3.296
  292SOL     OW 1101   0.803   1.402   2.786
  292SOL    HW1 1102   0.893   1.416   2.744
  292SOL    HW2 1103   0.732   1.404   2.715
  293SOL     OW 1104   0.922   0.503   2.761
  293SOL    HW1 1105   0.897   0.494   2.665
  293SOL    HW2 1106   0.970   0.421   2.792
  294SOL     OW 1107   0.539   0.064   2.374
  294SOL    HW1 1108   0.458   0.065   2.432
  294SOL    HW2 1109   0.542   0.147   2.319
  295SOL     OW 1110   1.434   1.188   1.903
  295SOL    HW1 1111   1.466   1.112   1.960
  295SOL    HW2 1112   1.342   1.215   1.933
  296SOL     OW 1113   0.297   0.035   2.033
  296SOL    HW1 1114   0.346   0.119   2.012
  296SOL    HW2 1115   0.359  -0.030   2.078
  297SOL     OW 1116   0.935   0.236   2.342
  297SOL    HW1 1117   0.887   0.277   2.264
  297SOL    HW2 1118   1.034   0.234   2.323
  298SOL     OW 1119   1.076   0.683   3.326
  298SOL    HW1 1120   0.996   0.622   3.329
  298SOL    HW2 1121   1.157   0.630   3.302
  299SOL     OW 1122   1.227   1.570   2.655
  299SOL    HW1 1123   1.248   1.644   2.590
  299SOL    HW2 1124   1.295   1.570   2.728
  300SOL     OW 1125   0.459   1.152   2.603
  300SOL    HW1 1126   0.388   1.125   2.668
  300SOL    HW2 1127   0.433   1.124   2.510
  301SOL     OW 1128   1.271   1.797   2.453
  301SOL    HW1 1129   1.315   1.861   2.389
  301SOL    HW2 1130   1.221   1.849   2.523
  302SOL     OW 1131   1.032   0.549   1.878
  302SOL    HW1 1132   0.991   0.631   1.839
  302SOL    HW2 1133   1.096   0.575   1.951
  303SOL     OW 1134   0.078   0.556   3.248
  303SOL    HW1 1135   0.170   0.555   3.207
  303SOL    HW2 1136   0.072   0.630   3.315
  304SOL     OW 1137   0.561   0.222   3.009
  304SOL    HW1 1138   0.599   0.138   3.046
  304SOL    HW2 1139   0.473   0.241   3.053
  305SOL     OW 1140   0.866   0.454   2.504
  305SOL    HW1 1141   0.834   0.526   2.442
  305SOL    HW2 1142   0.890   0.373   2.451
  306SOL     OW 1143   1.017   0.039   2.615
  306SOL    HW1 1144   0.945   0.044   2.546
  306SOL    HW2 1145   0.993  -0.030   2.684
  307SOL     OW 1146   1.429   1.173   2.729
  307SOL    HW1 1147   1.374   1.089   2.722
  307SOL    HW2 1148   1.455   1.202   2.637
  308SOL     OW 1149   1.466   0.590   2.854
  308SOL    HW1 1150   1.436   0.495   2.861
  308SOL    HW2 1151   1.539   0.606   2.920
  309SOL     OW 1152   1.857   0.833   2.239
  309SOL    HW1 1153   1.899   0.769   2.303
  309SOL    HW2 1154   1.819   0.782   2.161
  310SOL     OW 1155   0.488   1.385   2.036
  310SOL    HW1 1156   0.401   1.370   2.083
  310SOL    HW2 1157   0.471   1.411   1.941
  311SOL     OW 1158   1.664   1.280   2.519
  311SOL    HW1 1159   1.763   1.288   2.533
  311SOL    HW2 1160   1.619   1.364   2.550
  312SOL     OW 1161   1.390   0.575   1.940
  312SOL    HW1 1162   1.336   0.554   2.021
  312SOL    HW2 1163   1.481   0.534   1.949
  313SOL     OW 1164   0.527   0.256   2.190
  313SOL    HW1 1165   0.554   0.197   2.115
  313SOL    HW2 1166   0.527   0.351   2.159
  314SOL     OW 1167   1.754   1.223   3.450
  314SOL    HW1 1168   1.845   1.184   3.437
  314SOL    HW2 1169   1.762   1.319   3.474
  315SOL     OW 1170   1.064   1.347   3.202
  315SOL    HW1 1171   0.984   1.324   3.257
  315SOL    HW2 1172   1.147   1.321   3.251
  316SOL     OW 1173   1.592   1.629   3.487
  316SOL    HW1 1174   1.619   1.663   3.397
  316SOL    HW2 1175   1.671   1.591   3.533
  317SOL     OW 1176   1.111   1.195   2.962
  317SOL    HW1 1177   1.071   1.239   3.043
  317SOL    HW2 1178   1.070   1.232   2.879
  318SOL     OW 1179   1.638   1.099   2.941
  318SOL    HW1 1180   1.643   1.180   3.000
  318SOL    HW2 1181   1.552   1.101   2.890
  319SOL     OW 1182   0.915   0.089   3.264
  319SOL    HW1 1183   0.940   0.069   3.169
  319SOL    HW2 1184   0.987   0.145   3.306
  320SOL     OW 1185   0.980   1.116   3.581
  320SOL    HW1 1186   0.881   1.122   3.591
  320SOL    HW2 1187   1.003   1.036   3.525
  321SOL     OW 1188   0.705   1.050   2.230
  321SOL    HW1 1189   0.691   1.057   2.329
  321SOL    HW2 1190   0.789   0.999   2.212
  322SOL     OW 1191   0.410   0.813   3.113
  322SOL    HW1 1192   0.496   0.825   3.163
  322SOL    HW2 1193   0.368   0.726   3.140
  323SOL     OW 1194   1.274   0.386   3.124
  323SOL    HW1 1195   1.295   0.460   3.188
  323SOL    HW2 1196   1.185   0.403   3.081
  324SOL     OW 1197   0.064   1.564   3.193
  324SOL    HW1 1198   0.018   1.646   3.159
  324SOL    HW2 1199   0.162   1.583   3.202
  325SOL     OW 1200   0.367   1.100   2.363
  325SOL    HW1 1201   0.360   1.183   2.307
  325SOL    HW2 1202   0.371   1.020   2.303
  326SOL     OW 1203   0.566   0.537   2.727
  326SOL    HW1 1204   0.578   0.603   2.653
  326SOL    HW2 1205   0.612   0.571   2.810
  327SOL     OW 1206   1.252   1.348   2.250
  327SOL    HW1 1207   1.302   1.425   2.290
  327SOL    HW2 1208   1.157   1.350   2.282
  328SOL     OW 1209   1.272   1.445   3.004
  328SOL    HW1 1210   1.319   1.458   3.091
  328SOL    HW2 1211   1.206   1.371   3.013
  329SOL     OW 1212   1.582   0.639   2.334
  329SOL    HW1 1213   1.551   0.700   2.407
  329SOL    HW2 1214   1.632   0.691   2.265
  330SOL     OW 1215   0.354   1.510   3.191
  330SOL    HW1 1216   0.333   1.466   3.104
  330SOL    HW2 1217   0.451   1.536   3.194
  331SOL     OW 1218   0.402   0.751   3.460
  331SOL    HW1 1219   0.470   0.806   3.413
  331SOL    HW2 1220   0.442   0.663   3.487
  332SOL     OW 1221   1.587   0.779   3.532
  332SOL    HW1 1222   1.495   0.817   3.527
  332SOL    HW2 1223   1.647   0.826   3.467
  333SOL     OW 1224   1.013   0.105   3.632
  333SOL    HW1 1225   1.019   0.190   3.580
  333SOL    HW2 1226   1.045   0.029   3.575
  334SOL     OW 1227   0.504   0.050   3.602
  334SOL    HW1 1228   0.462  -0.007   3.532
  334SOL    HW2 1229   0.438   0.119   3.634
  335SOL     OW 1230   0.573   0.870   2.891
  335SOL    HW1 1231   0.617   0.959   2.882
  335SOL    HW2 1232   0.510   0.870   2.968
  336SOL     OW 1233   1.360   0.862   2.907
  336SOL    HW1 1234   1.285   0.862   2.841
  336SOL    HW2 1235   1.397   0.770   2.916
  337SOL     OW 1236   1.209   0.525   2.137
  337SOL    HW1 1237   1.222   0.441   2.191
  337SOL    HW2 1238   1.180   0.599   2.197
  338SOL     OW 1239   0.307   0.213   3.093
  338SOL    HW1 1240   0.284   0.250   3.183
  338SOL    HW2 1241   0.277   0.118   3.087
  339SOL     OW 1242   0.037   1.310   3.144
  339SOL    HW1 1243   0.090   1.261   3.212
  339SOL    HW2 1244   0.059   1.408   3.149
  340SOL     OW 1245   0.732   0.634   2.926
  340SOL    HW1 1246   0.791   0.608   2.850
  340SOL    HW2 1247   0.704   0.730   2.915
  341SOL     OW 1248   1.728   0.935   3.716
  341SOL    HW1 1249   1.682   0.928   3.627
  341SOL    HW2 1250   1.666   0.979   3.782
  342SOL     OW 1251   0.307   0.063   2.480
  342SOL    HW1 1252   0.296   0.157   2.513
  342SOL    HW2 1253   0.302   0.000   2.557
  343SOL     OW 1254   1.622   0.367   2.236
  343SOL    HW1 1255   1.624   0.291   2.300
  343SOL    HW2 1256   1.574   0.444   2.276
  344SOL     OW 1257   1.023   0.766   2.828
  344SOL    HW1 1258   1.038   0.787   2.924
  344SOL    HW2 1259   0.993   0.671   2.819
  345SOL     OW 1260   0.980   1.573   3.562
  345SOL    HW1 1261   0.960   1.617   3.474
  345SOL    HW2 1262   1.019   1.482   3.546
  346SOL     OW 1263   1.859   1.518   3.467
  346SOL    HW1 1264   1.873   1.545   3.372
  346SOL    HW2 1265   1.942   1.540   3.520
  347SOL     OW 1266   0.350   0.898   3.666
  347SOL    HW1 1267   0.426   0.942   3.714
  347SOL    HW2 1268   0.385   0.851   3.584
  348SOL     OW 1269   1.540   0.274   1.987
  348SOL    HW1 1270   1.479   0.199   2.010
  348SOL    HW2 1271   1.562   0.326   2.070
  349SOL     OW 1272   1.303   0.838   1.904
  349SOL    HW1 1273   1.337   0.745   1.919
  349SOL    HW2 1274   1.321   0.865   1.809
  350SOL     OW 1275   1.068   1.333   2.711
  350SOL    HW1 1276   1.075   1.249   2.656
  350SOL    HW2 1277   1.130   1.402   2.675
  351SOL     OW 1278   0.319   0.810   2.811
  351SOL    HW1 1279   0.412   0.846   2.816
  351SOL    HW2 1280   0.313   0.725   2.863
  352SOL     OW 1281   0.339   0.509   2.868
  352SOL    HW1 1282   0.287   0.426   2.851
  352SOL    HW2 1283   0.416   0.514   2.804
  353SOL     OW 1284   1.138   0.380   3.540
  353SOL    HW1 1285   1.093   0.443   3.604
  353SOL    HW2 1286   1.231   0.411   3.523
  354SOL     OW 1287   1.160   0.207   3.339
  354SOL    HW1 1288   1.160   0.271   3.416
  354SOL    HW2 1289   1.188   0.255   3.256
  355SOL     OW 1290   0.008   1.326   2.062
  355SOL    HW1 1291  -0.085   1.347   2.031
  355SOL    HW2 1292   0.018   1.227   2.075
  356SOL     OW 1293   0.088   1.801   2.789
  356SOL    HW1 1294   0.046   1.715   2.762
  356SOL    HW2 1295   0.182   1.804   2.755
  357SOL     OW 1296   0.504   1.568   2.772
  357SOL    HW1 1297   0.570   1.642   2.781
  357SOL    HW2 1298   0.548   1.489   2.730
  358SOL     OW 1299   1.002   0.796   3.100
  358SOL    HW1 1300   1.043   0.764   3.186
  358SOL    HW2 1301   0.906   0.769   3.097
  359SOL     OW 1302   0.040   0.544   2.976
  359SOL    HW1 1303   0.125   0.511   2.935
  359SOL    HW2 1304   0.053   0.559   3.074
  360SOL     OW 1305   0.189   0.520   3.584
  360SOL    HW1 1306   0.248   0.480   3.514
  360SOL    HW2 1307   0.131   0.591   3.543
  361SOL     OW 1308   1.369   0.950   3.522
  361SOL    HW1 1309   1.408   1.039   3.542
  361SOL    HW2 1310   1.379   0.930   3.425
  362SOL     OW 1311   0.815   0.572   2.187
  362SOL    HW1 1312   0.822   0.483   2.141
  362SOL    HW2 1313   0.721   0.606   2.179
  363SOL     OW 1314   1.657   0.604   3.068
  363SOL    HW1 1315   1.619   0.535   3.130
  363SOL    HW2 1316   1.739   0.568   3.024
  364SOL     OW 1317   0.252   1.564   3.606
  364SOL    HW1 1318   0.222   1.621   3.682
  364SOL    HW2 1319   0.245   1.467   3.632
  365SOL     OW 1320   0.671   0.464   3.131
  365SOL    HW1 1321   0.637   0.375   3.101
  365SOL    HW2 1322   0.697   0.518   3.051
  366SOL     OW 1323   0.930   1.678   3.327
  366SOL    HW1 1324   0.906   1.660   3.232
  366SOL    HW2 1325   0.960   1.772   3.337
  367SOL     OW 1326   0.473   0.500   2.053
  367SOL    HW1 1327   0.534   0.580   2.057
  367SOL    HW2 1328   0.378   0.531   2.060
  368SOL     OW 1329   0.159   1.137   3.328
  368SOL    HW1 1330   0.181   1.076   3.404
  368SOL    HW2 1331   0.169   1.088   3.242
  369SOL     OW 1332   1.347   1.059   3.096
  369SOL    HW1 1333   1.371   0.996   3.022
  369SOL    HW2 1334   1.257   1.099   3.078
  370SOL     OW 1335   1.302   0.855   2.171
  370SOL    HW1 1336   1.216   0.824   2.213
  370SOL    HW2 1337   1.298   0.841   2.072
  371SOL     OW 1338   1.759   1.747   3.016
  371SOL    HW1 1339   1.820   1.777   2.943
  371SOL    HW2 1340   1.721   1.658   2.994
  372SOL     OW 1341   1.252   1.731   2.990
  372SOL    HW1 1342   1.336   1.736   2.936
  372SOL    HW2 1343   1.229   1.635   3.008
  373SOL     OW 1344   0.083   1.258   2.884
  373SOL    HW1 1345   0.078   1.257   2.984
  373SOL    HW2 1346   0.000   1.217   2.846
  374SOL     OW 1347   0.688   1.662   3.578
  374SOL    HW1 1348   0.632   1.743   3.587
  374SOL    HW2 1349   0.740   1.666   3.492
  375SOL     OW 1350   1.726   0.135   2.385
  375SOL    HW1 1351   1.799   0.118   2.318
  375SOL    HW2 1352   1.695   0.048   2.423
  376SOL     OW 1353   1.388   1.573   2.339
  376SOL    HW1 1354   1.455   1.585   2.265
  376SOL    HW2 1355   1.348   1.662   2.362
  377SOL     OW 1356   0.130   1.794   3.713
  377SOL    HW1 1357   0.089   1.720   3.766
  377SOL    HW2 1358   0.194   1.845   3.771
  378SOL     OW 1359   1.280   0.927   2.534
  378SOL    HW1 1360   1.340   0.846   2.536
  378SOL    HW2 1361   1.320   0.996   2.474
  379SOL     OW 1362   0.830   1.273   3.284
  379SOL    HW1 1363   0.825   1.306   3.379
  379SOL    HW2 1364   0.744   1.292   3.238
  380SOL     OW 1365   0.672   1.616   2.016
  380SOL    HW1 1366   0.681   1.626   1.917
  380SOL    HW2 1367   0.632   1.527   2.037
  381SOL     OW 1368   1.650   1.720   3.256
  381SOL    HW1 1369   1.703   1.730   3.172
  381SOL    HW2 1370   1.623   1.810   3.290
  382SOL     OW 1371   1.841   0.175   2.825
  382SOL    HW1 1372   1.880   0.090   2.789
  382SOL    HW2 1373   1.743   0.177   2.806
  383SOL     OW 1374   0.263   0.326   2.582
  383SOL    HW1 1375   0.184   0.377   2.548
  383SOL    HW2 1376   0.254   0.311   2.680
  384SOL     OW 1377   1.194   1.612   1.893
  384SOL    HW1 1378   1.200   1.519   1.930
  384SOL    HW2 1379   1.135   1.612   1.813
  385SOL     OW 1380   0.822   1.002   3.234
  385SOL    HW1 1381   0.862   1.001   3.142
  385SOL    HW2 1382   0.832   1.094   3.274
  386SOL     OW 1383   0.916   0.910   2.153
  386SOL    HW1 1384   0.979   0.948   2.085
  386SOL    HW2 1385   0.956   0.827   2.192
  387SOL     OW 1386   1.504   1.607   1.906
  387SOL    HW1 1387   1.412   1.644   1.913
  387SOL    HW2 1388   1.542   1.627   1.816
  388SOL     OW 1389   0.372   1.288   3.352
  388SOL    HW1 1390   0.359   1.381   3.318
  388SOL    HW2 1391   0.288   1.236   3.339
  389SOL     OW 1392   1.614   1.292   3.151
  389SOL    HW1 1393   1.674   1.295   3.231
  389SOL    HW2 1394   1.539   1.356   3.164
  390SOL     OW 1395   1.039   1.098   2.558
  390SOL    HW1 1396   0.969   1.051   2.612
  390SOL    HW2 1397   1.098   1.030   2.515
  391SOL     OW 1398   1.014   0.236   2.833
  391SOL    HW1 1399   1.006   0.200   2.740
  391SOL    HW2 1400   1.012   0.160   2.898
  392SOL     OW 1401   0.590   1.487   2.353
  392SOL    HW1 1402   0.632   1.429   2.283
  392SOL    HW2 1403   0.546   1.566   2.309
  393SOL     OW 1404   1.709   0.385   3.243
  393SOL    HW1 1405   1.782   0.454   3.247
  393SOL    HW2 1406   1.737   0.310   3.184
  394SOL     OW 1407   0.255   1.348   2.152
  394SOL    HW1 1408   0.159   1.349   2.125
  394SOL    HW2 1409   0.267   1.401   2.236
  395SOL     OW 1410   0.105   1.013   3.588
  395SOL    HW1 1411   0.028   0.980   3.642
  395SOL    HW2 1412   0.190   0.983   3.630
  396SOL     OW 1413   0.672   0.203   3.351
  396SOL    HW1 1414   0.762   0.187   3.311
  396SOL    HW2 1415   0.680   0.208   3.450
  397SOL     OW 1416   0.075   0.345   1.895
  397SOL    HW1 1417  -0.017   0.317   1.866
  397SOL    HW2 1418   0.106   0.422   1.839
  398SOL     OW 1419   1.440   0.856   3.260
  398SOL    HW1 1420   1.383   0.908   3.197
  398SOL    HW2 1421   1.536   0.868   3.236
  399SOL     OW 1422   0.072   0.166   2.180
  399SOL    HW1 1423   0.055   0.249   2.126
  399SOL    HW2 1424   0.162   0.129   2.158
  400SOL     OW 1425   1.183   1.335   1.981
  400SOL    HW1 1426   1.084   1.324   1.983
  400SOL    HW2 1427   1.217   1.350   2.074
  401SOL     OW 1428   0.613   0.842   3.293
  401SOL    HW1 1429   0.669   0.923   3.276
  401SOL    HW2 1430   0.672   0.762   3.296
  402SOL     OW 1431   1.493   1.767   2.821
  402SOL    HW1 1432   1.526   1.831   2.752
  402SOL    HW2 1433   1.559   1.761   2.896
  403SOL     OW 1434   0.716   0.565   3.570
  403SOL    HW1 1435   0.735   0.630   3.644
  403SOL    HW2 1436   0.776   0.485   3.579
  404SOL     OW 1437   1.450   1.220   3.495
  404SOL    HW1 1438   1.441   1.210   3.594
  404SOL    HW2 1439   1.546   1.213   3.469
  405SOL     OW 1440   0.390   1.741   3.422
  405SOL    HW1 1441   0.299   1.782   3.420
  405SOL    HW2 1442   0.383   1.647   3.454
  406SOL     OW 1443   1.674   0.883   3.116
  406SOL    HW1 1444   1.647   0.794   3.079
  406SOL    HW2 1445   1.675   0.951   3.043
  407SOL     OW 1446   1.225   0.325   2.311
  407SOL    HW1 1447   1.290   0.251   2.300
  407SOL    HW2 1448   1.245   0.375   2.395
  408SOL     OW 1449   0.594   0.745   2.514
  408SOL    HW1 1450   0.644   0.830   2.495
  408SOL    HW2 1451   0.506   0.747   2.466
  409SOL     OW 1452   1.777   0.342   3.504
  409SOL    HW1 1453   1.760   0.373   3.410
  409SOL    HW2 1454   1.693   0.305   3.542
  410SOL     OW 1455   1.730   0.934   3.379
  410SOL    HW1 1456   1.768   1.025   3.394
  410SOL    HW2 1457   1.722   0.917   3.280
  411SOL     OW 1458   0.859   1.374   1.878
  411SOL    HW1 1459   0.813   1.389   1.966
  411SOL    HW2 1460   0.903   1.459   1.848
  412SOL     OW 1461   0.661   1.790   2.815
  412SOL    HW1 1462   0.615   1.878   2.802
  412SOL    HW2 1463   0.760   1.802   2.808
  413SOL     OW 1464   0.859   0.956   2.723
  413SOL    HW1 1465   0.913   0.887   2.771
  413SOL    HW2 1466   0.827   1.025   2.789
  414SOL     OW 1467   1.083   0.984   1.949
  414SOL    HW1 1468   1.060   1.037   1.867
  414SOL    HW2 1469   1.164   0.928   1.930
  415SOL     OW 1470   1.861   1.569   2.713
  415SOL    HW1 1471   1.790   1.557   2.643
  415SOL    HW2 1472   1.862   1.490   2.773
  416SOL     OW 1473   0.221   1.314   3.706
  416SOL    HW1 1474   0.156   1.241   3.685
  416SOL    HW2 1475   0.225   1.328   3.804
  417SOL     OW 1476   0.079   1.240   2.515
  417SOL    HW1 1477   0.078   1.193   2.603
  417SOL    HW2 1478   0.161   1.212   2.464
  418SOL     OW 1479   0.672   1.391   3.486
  418SOL    HW1 1480   0.594   1.341   3.524
  418SOL    HW2 1481   0.669   1.486   3.517
  419SOL     OW 1482   1.824   0.192   3.089
  419SOL    HW1 1483   1.820   0.102   3.133
  419SOL    HW2 1484   1.827   0.181   2.990
  420SOL     OW 1485   0.428   0.424   2.382
  420SOL    HW1 1486   0.458   0.352   2.320
  420SOL    HW2 1487   0.389   0.384   2.465
  421SOL     OW 1488   1.705   1.487   2.966
  421SOL    HW1 1489   1.612   1.462   2.939
  421SOL    HW2 1490   1.731   1.437   3.048
  422SOL     OW 1491   0.317   0.547   3.142
  422SOL    HW1 1492   0.355   0.488   3.214
  422SOL    HW2 1493   0.357   0.521   3.054
  423SOL     OW 1494   0.812   1.586   2.549
  423SOL    HW1 1495   0.844   1.596   2.455
  423SOL    HW2 1496   0.733   1.524   2.551
  424SOL     OW 1497   1.424   0.214   2.974
  424SOL    HW1 1498   1.476   0.149   3.029
  424SOL    HW2 1499   1.375   0.277   3.035
  425SOL     OW 1500   1.001   0.034   3.016
  425SOL    HW1 1501   0.938  -0.038   2.985
  425SOL    HW2 1502   1.094  -0.002   3.016
  426SOL     OW 1503   0.770   1.330   2.163
  426SOL    HW1 1504   0.724   1.243   2.180
  426SOL    HW2 1505   0.861   1.327   2.204
  427SOL     OW 1506   0.618   1.567   3.146
  427SOL    HW1 1507   0.613   1.649   3.203
  427SOL    HW2 1508   0.707   1.564   3.101
  428SOL     OW 1509   1.352   0.052   2.030
  428SOL    HW1 1510   1.387   0.011   1.946
  428SOL    HW2 1511   1.262   0.014   2.050
  429SOL     OW 1512   1.300   0.453   2.553
  429SOL    HW1 1513   1.241   0.533   2.557
  429SOL    HW2 1514   1.315   0.418   2.646
  430SOL     OW 1515   1.593   0.221   2.744
  430SOL    HW1 1516   1.509   0.220   2.798
  430SOL    HW2 1517   1.595   0.304   2.688
  431SOL     OW 1518   0.039   1.077   2.162
  431SOL    HW1 1519   0.138   1.066   2.153
  431SOL    HW2 1520  -0.001   0.991   2.194
  432SOL     OW 1521   0.875   1.646   2.199
  432SOL    HW1 1522   0.798   1.611   2.145
  432SOL    HW2 1523   0.843   1.717   2.261
  433SOL     OW 1524   0.230   0.628   3.837
  433SOL    HW1 1525   0.137   0.626   3.874
  433SOL    HW2 1526   0.231   0.589   3.745
  434SOL     OW 1527   0.225   0.275   4.720
  434SOL    HW1 1528   0.260   0.258   4.812
  434SOL    HW2 1529   0.137   0.230   4.708
  435SOL     OW 1530   0.019   0.368   4.371
  435SOL    HW1 1531  -0.063   0.411   4.410
  435SOL    HW2 1532  -0.009   0.295   4.308
  436SOL     OW 1533   0.569   1.275   4.889
  436SOL    HW1 1534   0.476   1.268   4.852
  436SOL    HW2 1535   0.580   1.364   4.933
  437SOL     OW 1536   1.555   1.511   4.427
  437SOL    HW1 1537   1.498   1.495   4.508
  437SOL    HW2 1538   1.496   1.521   4.347
  438SOL     OW 1539   1.135   0.703   4.441
  438SOL    HW1 1540   1.192   0.781   4.416
  438SOL    HW2 1541   1.075   0.729   4.517
  439SOL     OW 1542   1.755   0.607   3.955
  439SOL    HW1 1543   1.743   0.594   3.856
  439SOL    HW2 1544   1.725   0.526   4.004
  440SOL     OW 1545   0.768   1.144   4.747
  440SOL    HW1 1546   0.690   1.161   4.807
  440SOL    HW2 1547   0.802   1.231   4.711
  441SOL     OW 1548   0.685   1.012   4.389
  441SOL    HW1 1549   0.754   0.996   4.459
  441SOL    HW2 1550   0.612   1.069   4.427
  442SOL     OW 1551   0.335   1.435   4.785
  442SOL    HW1 1552   0.257   1.404   4.732
  442SOL    HW2 1553   0.393   1.493   4.728
  443SOL     OW 1554   1.603   0.447   4.461
  443SOL    HW1 1555   1.529   0.493   4.411
  443SOL    HW2 1556   1.654   0.515   4.514
  444SOL     OW 1557   0.231   1.713   4.207
  444SOL    HW1 1558   0.265   1.790   4.261
  444SOL    HW2 1559   0.275   1.713   4.117
  445SOL     OW 1560   0.230   1.434   4.262
  445SOL    HW1 1561   0.204   1.530   4.262
  445SOL    HW2 1562   0.159   1.380   4.307
  446SOL     OW 1563   0.240   1.091   4.610
  446SOL    HW1 1564   0.254   1.007   4.662
  446SOL    HW2 1565   0.185   1.155   4.665
  447SOL     OW 1566   0.620   1.786   5.163
  447SOL    HW1 1567   0.528   1.769   5.198
  447SOL    HW2 1568   0.648   1.878   5.189
  448SOL     OW 1569   0.606   0.964   3.847
  448SOL    HW1 1570   0.613   1.048   3.793
  448SOL    HW2 1571   0.652   0.977   3.935
  449SOL     OW 1572   0.122   0.643   4.287
  449SOL    HW1 1573   0.077   0.555   4.304
  449SOL    HW2 1574   0.121   0.697   4.371
  450SOL     OW 1575   1.842   1.767   4.083
  450SOL    HW1 1576   1.896   1.738   4.163
  450SOL    HW2 1577   1.872   1.857   4.054
  451SOL     OW 1578   0.027   1.596   3.841
  451SOL    HW1 1579   0.008   1.500   3.862
  451SOL    HW2 1580  -0.006   1.654   3.916
  452SOL     OW 1581   1.689   0.922   4.336
  452SOL    HW1 1582   1.784   0.893   4.344
  452SOL    HW2 1583   1.681   0.987   4.261
  453SOL     OW 1584   1.641   1.108   4.156
  453SOL    HW1 1585   1.727   1.110   4.104
  453SOL    HW2 1586   1.655   1.155   4.244
  454SOL     OW 1587   0.613   1.365   4.450
  454SOL    HW1 1588   0.564   1.278   4.459
  454SOL    HW2 1589   0.590   1.408   4.363
  455SOL     OW 1590   0.809   0.004   4.226
  455SOL    HW1 1591   0.849   0.095   4.217
  455SOL    HW2 1592   0.709   0.012   4.232
  456SOL     OW 1593   0.197   0.976   4.988
  456SOL    HW1 1594   0.286   0.931   4.974
  456SOL    HW2 1595   0.124   0.911   4.969
  457SOL     OW 1596   1.525   0.999   3.914
  457SOL    HW1 1597   1.462   0.923   3.927
  457SOL    HW2 1598   1.573   1.017   4.000
  458SOL     OW 1599   1.466   1.417   4.677
  458SOL    HW1 1600   1.407   1.423   4.757
  458SOL    HW2 1601   1.451   1.329   4.631
  459SOL     OW 1602   1.667   1.714   4.296
  459SOL    HW1 1603   1.626   1.691   4.208
  459SOL    HW2 1604   1.649   1.640   4.361
  460SOL     OW 1605   0.598   0.729   3.994
  460SOL    HW1 1606   0.622   0.798   3.926
  460SOL    HW2 1607   0.520   0.762   4.048
  461SOL     OW 1608   1.281   0.345   4.668
  461SOL    HW1 1609   1.195   0.295   4.655
  461SOL    HW2 1610   1.343   0.291   4.724
  462SOL     OW 1611   1.576   1.662   4.031
  462SOL    HW1 1612   1.665   1.708   4.034
  462SOL    HW2 1613   1.555   1.638   3.936
  463SOL     OW 1614   0.991   0.410   4.966
  463SOL    HW1 1615   0.914   0.444   5.020
  463SOL    HW2 1616   0.957   0.359   4.887
  464SOL     OW 1617   1.041   0.701   4.153
  464SOL    HW1 1618   1.067   0.697   4.249
  464SOL    HW2 1619   0.956   0.650   4.139
  465SOL     OW 1620   0.076   0.811   4.513
  465SOL    HW1 1621   0.175   0.799   4.522
  465SOL    HW2 1622   0.052   0.906   4.534
  466SOL     OW 1623   0.130   1.821   5.295
  466SOL    HW1 1624   0.120   1.806   5.394
  466SOL    HW2 1625   0.044   1.857   5.259
  467SOL     OW 1626   0.865   0.348   3.919
  467SOL    HW1 1627   0.924   0.411   3.870
  467SOL    HW2 1628   0.884   0.254   3.890
  468SOL     OW 1629   1.362   1.144   4.269
  468SOL    HW1 1630   1.445   1.115   4.221
  468SOL    HW2 1631   1.313   1.211   4.213
  469SOL     OW 1632   0.550   0.196   4.609
  469SOL    HW1 1633   0.545   0.191   4.709
  469SOL    HW2 1634   0.552   0.292   4.580
  470SOL     OW 1635   1.008   1.456   4.201
  470SOL    HW1 1636   0.962   1.528   4.149
  470SOL    HW2 1637   1.004   1.476   4.299
  471SOL     OW 1638   0.351   1.801   4.577
  471SOL    HW1 1639   0.401   1.715   4.583
  471SOL    HW2 1640   0.416   1.878   4.574
  472SOL     OW 1641   1.795   1.066   4.597
  472SOL    HW1 1642   1.733   1.051   4.521
  472SOL    HW2 1643   1.743   1.077   4.682
  473SOL     OW 1644   0.321   0.943   3.966
  473SOL    HW1 1645   0.403   0.982   3.924
  473SOL    HW2 1646   0.294   0.861   3.917
  474SOL     OW 1647   1.458   0.735   4.452
  474SOL    HW1 1648   1.453   0.670   4.527
  474SOL    HW2 1649   1.538   0.794   4.465
  475SOL     OW 1650   1.111   1.776   3.961
  475SOL    HW1 1651   1.051   1.714   4.011
  475SOL    HW2 1652   1.142   1.732   3.876
  476SOL     OW 1653   1.632   1.377   3.805
  476SOL    HW1 1654   1.600   1.471   3.795
  476SOL    HW2 1655   1.556   1.314   3.793
  477SOL     OW 1656   0.464   1.743   4.047
  477SOL    HW1 1657   0.497   1.782   4.133
  477SOL    HW2 1658   0.540   1.736   3.982
  478SOL     OW 1659   1.400   0.107   4.150
  478SOL    HW1 1660   1.376   0.070   4.060
  478SOL    HW2 1661   1.499   0.123   4.154
  479SOL     OW 1662   0.249   1.785   4.965
  479SOL    HW1 1663   0.306   1.720   5.015
  479SOL    HW2 1664   0.233   1.752   4.872
  480SOL     OW 1665   0.940   1.698   4.628
  480SOL    HW1 1666   1.020   1.641   4.649
  480SOL    HW2 1667   0.891   1.658   4.551
  481SOL     OW 1668   0.382   0.700   4.204
  481SOL    HW1 1669   0.427   0.610   4.201
  481SOL    HW2 1670   0.288   0.689   4.237
  482SOL     OW 1671   0.614   0.122   3.841
  482SOL    HW1 1672   0.712   0.100   3.848
  482SOL    HW2 1673   0.583   0.105   3.748
  483SOL     OW 1674   0.803   1.402   4.648
  483SOL    HW1 1675   0.893   1.416   4.606
  483SOL    HW2 1676   0.732   1.404   4.577
  484SOL     OW 1677   0.922   0.503   4.623
  484SOL    HW1 1678   0.897   0.494   4.527
  484SOL    HW2 1679   0.970   0.421   4.654
  485SOL     OW 1680   0.539   0.064   4.236
  485SOL    HW1 1681   0.458   0.065   4.294
  485SOL    HW2 1682   0.542   0.147   4.181
  486SOL     OW 1683   1.434   1.188   3.765
  486SOL    HW1 1684   1.466   1.112   3.822
  486SOL    HW2 1685   1.342   1.215   3.795
  487SOL     OW 1686   0.297   0.035   3.895
  487SOL    HW1 1687   0.346   0.119   3.874
  487SOL    HW2 1688   0.359  -0.030   3.940
  488SOL     OW 1689   0.935   0.236   4.204
  488SOL    HW1 1690   0.887   0.277   4.126
  488SOL    HW2 1691   1.034   0.234   4.185
  489SOL     OW 1692   1.227   1.570   4.517
  489SOL    HW1 1693   1.248   1.644   4.452
  489SOL    HW2 1694   1.295   1.570   4.590
  490SOL     OW 1695   0.459   1.152   4.465
  490SOL    HW1 1696   0.388   1.125   4.530
  490SOL    HW2 1697   0.433   1.124   4.372
  491SOL     OW 1698   1.271   1.797   4.315
  491SOL    HW1 1699   1.315   1.861   4.251
  491SOL    HW2 1700   1.221   1.849   4.385
  492SOL     OW 1701   1.032   0.549   3.740
  492SOL    HW1 1702   0.991   0.631   3.701
  492SOL    HW2 1703   1.096   0.575   3.813
  493SOL     OW 1704   0.561   0.222   4.871
  493SOL    HW1 1705   0.599   0.138   4.908
  493SOL    HW2 1706   0.473   0.241   4.915
  494SOL     OW 1707   0.866   0.454   4.366
  494SOL    HW1 1708   0.834   0.526   4.304
  494SOL    HW2 1709   0.890   0.373   4.313
  495SOL     OW 1710   1.017   0.039   4.477
  495SOL    HW1 1711   0.945   0.044   4.408
  495SOL    HW2 1712   0.993  -0.030   4.546
  496SOL     OW 1713   1.429   1.173   4.591
  496SOL    HW1 1714   1.374   1.089   4.584
  496SOL    HW2 1715   1.455   1.202   4.499
  497SOL     OW 1716   1.466   0.590   4.716
  497SOL    HW1 1717   1.436   0.495   4.723
  497SOL    HW2 1718   1.539   0.606   4.782
  498SOL     OW 1719   1.857   0.833   4.101
  498SOL    HW1 1720   1.899   0.769   4.165
  498SOL    HW2 1721   1.819   0.782   4.023
  499SOL     OW 1722   0.488   1.385   3.898
  499SOL    HW1 1723   0.401   1.370   3.945
  499SOL    HW2 1724   0.471   1.411   3.803
  500SOL     OW 1725   1.664   1.280   4.381
  500SOL    HW1 1726   1.763   1.288   4.395
  500SOL    HW2 1727   1.619   1.364   4.412
  501SOL     OW 1728   1.390   0.575   3.802
  501SOL    HW1 1729   1.336   0.554   3.883
  501SOL    HW2 1730   1.481   0.534   3.811
  502SOL     OW 1731   0.527   0.256   4.052
  502SOL    HW1 1732   0.554   0.197   3.977
  502SOL    HW2 1733   0.527   0.351   4.021
  503SOL     OW 1734   1.111   1.195   4.824
  503SOL    HW1 1735   1.071   1.239   4.905
  503SOL    HW2 1736   1.070   1.232   4.741
  504SOL     OW 1737   1.638   1.099   4.803
  504SOL    HW1 1738   1.643   1.180   4.862
  504SOL    HW2 1739   1.552   1.101   4.752
  505SOL     OW 1740   0.705   1.050   4.092
  505SOL    HW1 1741   0.691   1.057   4.191
  505SOL    HW2 1742   0.789   0.999   4.074
  506SOL     OW 1743   0.410   0.813   4.975
  506SOL    HW1 1744   0.496   0.825   5.025
  506SOL    HW2 1745   0.368   0.726   5.002
  507SOL     OW 1746   1.274   0.386   4.986
  507SOL    HW1 1747   1.295   0.460   5.050
  507SOL    HW2 1748   1.185   0.403   4.943
  508SOL     OW 1749   0.367   1.100   4.225
  508SOL    HW1 1750   0.360   1.183   4.169
  508SOL    HW2 1751   0.371   1.020   4.165
  509SOL     OW 1752   0.566   0.537   4.589
  509SOL    HW1 1753   0.578   0.603   4.515
  509SOL    HW2 1754   0.612   0.571   4.672
  510SOL     OW 1755   1.252   1.348   4.112
  510SOL    HW1 1756   1.302   1.425   4.152
  510SOL    HW2 1757   1.157   1.350   4.144
  511SOL     OW 1758   1.272   1.445   4.866
  511SOL    HW1 1759   1.319   1.458   4.953
  511SOL    HW2 1760   1.206   1.371   4.875
  512SOL     OW 1761   1.582   0.639   4.196
  512SOL    HW1 1762   1.551   0.700   4.269
  512SOL    HW2 1763   1.632   0.691   4.127
  513SOL     OW 1764   0.354   1.510   5.053
  513SOL    HW1 1765   0.333   1.466   4.966
  513SOL    HW2 1766   0.451   1.536   5.056
  514SOL     OW 1767   0.573   0.870   4.753
  514SOL    HW1 1768   0.617   0.959   4.744
  514SOL    HW2 1769   0.510   0.870   4.830
  515SOL     OW 1770   1.360   0.862   4.769
  515SOL    HW1 1771   1.285   0.862   4.703
  515SOL    HW2 1772   1.397   0.770   4.778
  516SOL     OW 1773   1.209   0.525   3.999
  516SOL    HW1 1774   1.222   0.441   4.053
  516SOL    HW2 1775   1.180   0.599   4.059
  517SOL     OW 1776   0.307   0.213   4.955
  517SOL    HW1 1777   0.284   0.250   5.045
  517SOL    HW2 1778   0.277   0.118   4.949
  518SOL     OW 1779   0.037   1.310   5.006
  518SOL    HW1 1780   0.090   1.261   5.074
  518SOL    HW2 1781   0.059   1.408   5.011
  519SOL     OW 1782   0.732   0.634   4.788
  519SOL    HW1 1783   0.791   0.608   4.712
  519SOL    HW2 1784   0.704   0.730   4.777
  520SOL     OW 1785   0.307   0.063   4.342
  520SOL    HW1 1786   0.296   0.157   4.375
  520SOL    HW2 1787   0.302   0.000   4.419
  521SOL     OW 1788   1.622   0.367   4.098
  521SOL    HW1 1789   1.624   0.291   4.162
  521SOL    HW2 1790   1.574   0.444   4.138
  522SOL     OW 1791   1.023   0.766   4.690
  522SOL    HW1 1792   1.038   0.787   4.786
  522SOL    HW2 1793   0.993   0.671   4.681
  523SOL     OW 1794   1.540   0.274   3.849
  523SOL    HW1 1795   1.479   0.199   3.872
  523SOL    HW2 1796   1.562   0.326   3.932
  524SOL     OW 1797   1.303   0.838   3.766
  524SOL    HW1 1798   1.337   0.745   3.781
  524SOL    HW2 1799   1.321   0.865   3.671
  525SOL     OW 1800   1.068   1.333   4.573
  525SOL    HW1 1801   1.075   1.249   4.518
  525SOL    HW2 1802   1.130   1.402   4.537
  526SOL     OW 1803   0.319   0.810   4.673
  526SOL    HW1 1804   0.412   0.846   4.678
  526SOL    HW2 1805   0.313   0.725   4.725
  527SOL     OW 1806   0.339   0.509   4.730
  527SOL    HW1 1807   0.287   0.426   4.713
  527SOL    HW2 1808   0.416   0.514   4.666
  528SOL     OW 1809   1.160   0.207   5.201
  528SOL    HW1 1810   1.160   0.271   5.278
  528SOL    HW2 1811   1.188   0.255   5.118
  529SOL     OW 1812   0.008   1.326   3.924
  529SOL    HW1 1813  -0.085   1.347   3.893
  529SOL    HW2 1814   0.018   1.227   3.937
  530SOL     OW 1815   0.088   1.801   4.651
  530SOL    HW1 1816   0.046   1.715   4.624
  530SOL    HW2 1817   0.182   1.804   4.617
  531SOL     OW 1818   0.504   1.568   4.634
  531SOL    HW1 1819   0.570   1.642   4.643
  531SOL    HW2 1820   0.548   1.489   4.592
  532SOL     OW 1821   1.002   0.796   4.962
  532SOL    HW1 1822   1.043   0.764   5.048
  532SOL    HW2 1823   0.906   0.769   4.959
  533SOL     OW 1824   0.040   0.544   4.838
  533SOL    HW1 1825   0.125   0.511   4.797
  533SOL    HW2 1826   0.053   0.559   4.936
  534SOL     OW 1827   0.815   0.572   4.049
  534SOL    HW1 1828   0.822   0.483   4.003
  534SOL    HW2 1829   0.721   0.606   4.041
  535SOL     OW 1830   1.657   0.604   4.930
  535SOL    HW1 1831   1.619   0.535   4.992
  535SOL    HW2 1832   1.739   0.568   4.886
  536SOL     OW 1833   0.671   0.464   4.993
  536SOL    HW1 1834   0.637   0.375   4.963
  536SOL    HW2 1835   0.697   0.518   4.913
  537SOL     OW 1836   0.930   1.678   5.189
  537SOL    HW1 1837   0.906   1.660   5.094
  537SOL    HW2 1838   0.960   1.772   5.199
  538SOL     OW 1839   0.473   0.500   3.915
  538SOL    HW1 1840   0.534   0.580   3.919
  538SOL    HW2 1841   0.378   0.531   3.922
  539SOL     OW 1842   1.347   1.059   4.958
  539SOL    HW1 1843   1.371   0.996   4.884
  539SOL    HW2 1844   1.257   1.099   4.940
  540SOL     OW 1845   1.302   0.855   4.033
  540SOL    HW1 1846   1.216   0.824   4.075
  540SOL    HW2 1847   1.298   0.841   3.934
  541SOL     OW 1848   1.759   1.747   4.878
  541SOL    HW1 1849   1.820   1.777   4.805
  541SOL    HW2 1850   1.721   1.658   4.856
  542SOL     OW 1851   1.252   1.731   4.852
  542SOL    HW1 1852   1.336   1.736   4.798
  542SOL    HW2 1853   1.229   1.635   4.870
  543SOL     OW 1854   0.083   1.258   4.746
  543SOL    HW1 1855   0.078   1.257   4.846
  543SOL    HW2 1856   0.000   1.217   4.708
  544SOL     OW 1857   1.726   0.135   4.247
  544SOL    HW1 1858   1.799   0.118   4.180
  544SOL    HW2 1859   1.695   0.048   4.285
  545SOL     OW 1860   1.388   1.573   4.201
  545SOL    HW1 1861   1.455   1.585   4.127
  545SOL    HW2 1862   1.348   1.662   4.224
  546SOL     OW 1863   1.280   0.927   4.396
  546SOL    HW1 1864   1.340   0.846   4.398
  546SOL    HW2 1865   1.320   0.996   4.336
  547SOL     OW 1866   0.672   1.616   3.878
  547SOL    HW1 1867   0.681   1.626   3.779
  547SOL    HW2 1868   0.632   1.527   3.899
  548SOL     OW 1869   1.650   1.720   5.118
  548SOL    HW1 1870   1.703   1.730   5.034
  548SOL    HW2 1871   1.623   1.810   5.152
  549SOL     OW 1872   1.841   0.175   4.687
  549SOL    HW1 1873   1.880   0.090   4.651
  549SOL    HW2 1874   1.743   0.177   4.668
  550SOL     OW 1875   0.263   0.326   4.444
  550SOL    HW1 1876   0.184   0.377   4.410
  550SOL    HW2 1877   0.254   0.311   4.542
  551SOL     OW 1878   1.194   1.612   3.755
  551SOL    HW1 1879   1.200   1.519   3.792
  551SOL    HW2 1880   1.135   1.612   3.675
  552SOL     OW 1881   0.822   1.002   5.096
  552SOL    HW1 1882   0.862   1.001   5.004
  552SOL    HW2 1883   0.832   1.094   5.136
  553SOL     OW 1884   0.916   0.910   4.015
  553SOL    HW1 1885   0.979   0.948   3.947
  553SOL    HW2 1886   0.956   0.827   4.054
  554SOL     OW 1887   1.504   1.607   3.768
  554SOL    HW1 1888   1.412   1.644   3.775
  554SOL    HW2 1889   1.542   1.627   3.678
  555SOL     OW 1890   1.039   1.098   4.420
  555SOL    HW1 1891   0.969   1.051   4.474
  555SOL    HW2 1892   1.098   1.030   4.377
  556SOL     OW 1893   1.014   0.236   4.695
  556SOL    HW1 1894   1.006   0.200   4.602
  556SOL    HW2 1895   1.012   0.160   4.760
  557SOL     OW 1896   0.590   1.487   4.215
  557SOL    HW1 1897   0.632   1.429   4.145
  557SOL    HW2 1898   0.546   1.566   4.171
  558SOL     OW 1899   1.709   0.385   5.105
  558SOL    HW1 1900   1.782   0.454   5.109
  558SOL    HW2 1901   1.737   0.310   5.046
  559SOL     OW 1902   0.255   1.348   4.014
  559SOL    HW1 1903   0.159   1.349   3.987
  559SOL    HW2 1904   0.267   1.401   4.098
  560SOL     OW 1905   0.075   0.345   3.757
  560SOL    HW1 1906  -0.017   0.317   3.728
  560SOL    HW2 1907   0.106   0.422   3.701
  561SOL     OW 1908   0.072   0.166   4.042
  561SOL    HW1 1909   0.055   0.249   3.988
  561SOL    HW2 1910   0.162   0.129   4.020
  562SOL     OW 1911   1.183   1.335   3.843
  562SOL    HW1 1912   1.084   1.324   3.845
  562SOL    HW2 1913   1.217   1.350   3.936
  563SOL     OW 1914   1.493   1.767   4.683
  563SOL    HW1 1915   1.526   1.831   4.614
  563SOL    HW2 1916   1.559   1.761   4.758
  564SOL     OW 1917   1.450   1.220   5.357
  564SOL    HW1 1918   1.441   1.210   5.456
  564SOL    HW2 1919   1.546   1.213   5.331
  565SOL     OW 1920   1.674   0.883   4.978
  565SOL    HW1 1921   1.647   0.794   4.941
  565SOL    HW2 1922   1.675   0.951   4.905
  566SOL     OW 1923   1.225   0.325   4.173
  566SOL    HW1 1924   1.290   0.251   4.162
  566SOL    HW2 1925   1.245   0.375   4.257
  567SOL     OW 1926   0.594   0.745   4.376
  567SOL    HW1 1927   0.644   0.830   4.357
  567SOL    HW2 1928   0.506   0.747   4.328
  568SOL     OW 1929   1.730   0.934   5.241
  568SOL    HW1 1930   1.768   1.025   5.256
  568SOL    HW2 1931   1.722   0.917   5.142
  569SOL     OW 1932   0.859   1.374   3.740
  569SOL    HW1 1933   0.813   1.389   3.828
  569SOL    HW2 1934   0.903   1.459   3.710
  570SOL     OW 1935   0.661   1.790   4.677
  570SOL    HW1 1936   0.615   1.878   4.664
  570SOL    HW2 1937   0.760   1.802   4.670
  571SOL     OW 1938   0.859   0.956   4.585
  571SOL    HW1 1939   0.913   0.887   4.633
  571SOL    HW2 1940   0.827   1.025   4.651
  572SOL     OW 1941   1.083   0.984   3.811
  572SOL    HW1 1942   1.060   1.037   3.729
  572SOL    HW2 1943   1.164   0.928   3.792
  573SOL     OW 1944   1.861   1.569   4.575
  573SOL    HW1 1945   1.790   1.557   4.505
  573SOL    HW2 1946   1.862   1.490   4.635
  574SOL     OW 1947   0.079   1.240   4.377
  574SOL    HW1 1948   0.078   1.193   4.465
  574SOL    HW2 1949   0.161   1.212   4.326
  575SOL     OW 1950   1.824   0.192   4.951
  575SOL    HW1 1951   1.820   0.102   4.995
  575SOL    HW2 1952   1.827   0.181   4.852
  576SOL     OW 1953   0.428   0.424   4.244
  576SOL    HW1 1954   0.458   0.352   4.182
  576SOL    HW2 1955   0.389   0.384   4.327
  577SOL     OW 1956   1.705   1.487   4.828
  577SOL    HW1 1957   1.612   1.462   4.801
  577SOL    HW2 1958   1.731   1.437   4.910
  578SOL     OW 1959   0.812   1.586   4.411
  578SOL    HW1 1960   0.844   1.596   4.317
  578SOL    HW2 1961   0.733   1.524   4.413
  579SOL     OW 1962   1.424   0.214   4.836
  579SOL    HW1 1963   1.476   0.149   4.891
  579SOL    HW2 1964   1.375   0.277   4.897
  580SOL     OW 1965   1.001   0.034   4.878
  580SOL    HW1 1966   0.938  -0.038   4.847
  580SOL    HW2 1967   1.094  -0.002   4.878
  581SOL     OW 1968   0.770   1.330   4.025
  581SOL    HW1 1969   0.724   1.243   4.042
  581SOL    HW2 1970   0.861   1.327   4.066
  582SOL     OW 1971   1.352   0.052   3.892
  582SOL    HW1 1972   1.387   0.011   3.808
  582SOL    HW2 1973   1.262   0.014   3.912
  583SOL     OW 1974   1.300   0.453   4.415
  583SOL    HW1 1975   1.241   0.533   4.419
  583SOL    HW2 1976   1.315   0.418   4.508
  584SOL     OW 1977   1.593   0.221   4.606
  584SOL    HW1 1978   1.509   0.220   4.660
  584SOL    HW2 1979   1.595   0.304   4.550
  585SOL     OW 1980   0.039   1.077   4.024
  585SOL    HW1 1981   0.138   1.066   4.015
  585SOL    HW2 1982  -0.001   0.991   4.056
  586SOL     OW 1983   0.875   1.646   4.061
  586SOL    HW1 1984   0.798   1.611   4.007
  586SOL    HW2 1985   0.843   1.717   4.123
  587SOL     OW 1986   0.230   2.490   0.113
  587SOL    HW1 1987   0.137   2.488   0.150
  587SOL    HW2 1988   0.231   2.451   0.021
  588SOL     OW 1989   0.225   2.137   0.996
  588SOL    HW1 1990   0.260   2.120   1.088
  588SOL    HW2 1991   0.137   2.092   0.984
  589SOL     OW 1992   0.019   2.230   0.647
  589SOL    HW1 1993  -0.063   2.273   0.686
  589SOL    HW2 1994  -0.009   2.157   0.584
  590SOL     OW 1995   0.569   3.137   1.165
  590SOL    HW1 1996   0.476   3.130   1.128
  590SOL    HW2 1997   0.580   3.226   1.209
  591SOL     OW 1998   1.555   3.373   0.703
  591SOL    HW1 1999   1.498   3.357   0.784
  591SOL    HW2 2000   1.496   3.383   0.623
  592SOL     OW 2001   1.135   2.565   0.717
  592SOL    HW1 2002   1.192   2.643   0.692
  592SOL    HW2 2003   1.075   2.591   0.793
  593SOL     OW 2004   1.755   2.469   0.231
  593SOL    HW1 2005   1.743   2.456   0.132
  593SOL    HW2 2006   1.725   2.388   0.280
  594SOL     OW 2007   0.768   3.006   1.023
  594SOL    HW1 2008   0.690   3.023   1.083
  594SOL    HW2 2009   0.802   3.093   0.987
  595SOL     OW 2010   0.850   2.660   1.823
  595SOL    HW1 2011   0.846   2.736   1.888
  595SOL    HW2 2012   0.872   2.696   1.732
  596SOL     OW 2013   0.685   2.874   0.665
  596SOL    HW1 2014   0.754   2.858   0.735
  596SOL    HW2 2015   0.612   2.931   0.703
  597SOL     OW 2016   0.686   3.023   1.803
  597SOL    HW1 2017   0.746   3.102   1.817
  597SOL    HW2 2018   0.600   3.054   1.762
  598SOL     OW 2019   0.335   3.297   1.061
  598SOL    HW1 2020   0.257   3.266   1.008
  598SOL    HW2 2021   0.393   3.355   1.004
  599SOL     OW 2022   1.460   3.367   1.339
  599SOL    HW1 2023   1.484   3.461   1.365
  599SOL    HW2 2024   1.444   3.313   1.421
  600SOL     OW 2025   0.438   2.254   1.499
  600SOL    HW1 2026   0.520   2.198   1.508
  600SOL    HW2 2027   0.357   2.196   1.503
  601SOL     OW 2028   1.603   2.309   0.737
  601SOL    HW1 2029   1.529   2.355   0.687
  601SOL    HW2 2030   1.654   2.377   0.790
  602SOL     OW 2031   0.231   3.575   0.483
  602SOL    HW1 2032   0.265   3.652   0.537
  602SOL    HW2 2033   0.275   3.575   0.393
  603SOL     OW 2034   1.127   3.203   1.690
  603SOL    HW1 2035   1.174   3.203   1.778
  603SOL    HW2 2036   1.079   3.116   1.679
  604SOL     OW 2037   0.230   3.296   0.538
  604SOL    HW1 2038   0.204   3.392   0.538
  604SOL    HW2 2039   0.159   3.242   0.583
  605SOL     OW 2040   0.240   2.953   0.886
  605SOL    HW1 2041   0.254   2.869   0.938
  605SOL    HW2 2042   0.185   3.017   0.941
  606SOL     OW 2043   0.620   3.648   1.439
  606SOL    HW1 2044   0.528   3.631   1.474
  606SOL    HW2 2045   0.648   3.740   1.465
  607SOL     OW 2046   0.606   2.826   0.123
  607SOL    HW1 2047   0.613   2.910   0.069
  607SOL    HW2 2048   0.652   2.839   0.211
  608SOL     OW 2049   1.594   1.976   1.480
  608SOL    HW1 2050   1.576   2.043   1.408
  608SOL    HW2 2051   1.591   2.022   1.569
  609SOL     OW 2052   0.122   2.505   0.563
  609SOL    HW1 2053   0.077   2.417   0.580
  609SOL    HW2 2054   0.121   2.559   0.647
  610SOL     OW 2055   1.842   3.629   0.359
  610SOL    HW1 2056   1.896   3.600   0.439
  610SOL    HW2 2057   1.872   3.719   0.330
  611SOL     OW 2058   0.027   3.458   0.117
  611SOL    HW1 2059   0.008   3.362   0.138
  611SOL    HW2 2060  -0.006   3.516   0.192
  612SOL     OW 2061   1.689   2.784   0.612
  612SOL    HW1 2062   1.784   2.755   0.620
  612SOL    HW2 2063   1.681   2.849   0.537
  613SOL     OW 2064   1.641   2.970   0.432
  613SOL    HW1 2065   1.727   2.972   0.380
  613SOL    HW2 2066   1.655   3.017   0.520
  614SOL     OW 2067   0.113   2.599   1.597
  614SOL    HW1 2068   0.201   2.586   1.642
  614SOL    HW2 2069   0.100   2.696   1.575
  615SOL     OW 2070   0.613   3.227   0.726
  615SOL    HW1 2071   0.564   3.140   0.735
  615SOL    HW2 2072   0.590   3.270   0.639
  616SOL     OW 2073   1.293   3.090   1.423
  616SOL    HW1 2074   1.330   3.017   1.365
  616SOL    HW2 2075   1.345   3.095   1.508
  617SOL     OW 2076   0.809   1.866   0.502
  617SOL    HW1 2077   0.849   1.957   0.493
  617SOL    HW2 2078   0.709   1.874   0.508
  618SOL     OW 2079   0.197   2.838   1.264
  618SOL    HW1 2080   0.286   2.793   1.250
  618SOL    HW2 2081   0.124   2.773   1.245
  619SOL     OW 2082   1.525   2.861   0.190
  619SOL    HW1 2083   1.462   2.785   0.203
  619SOL    HW2 2084   1.573   2.879   0.276
  620SOL     OW 2085   1.187   3.654   1.616
  620SOL    HW1 2086   1.211   3.714   1.540
  620SOL    HW2 2087   1.194   3.559   1.586
  621SOL     OW 2088   0.317   2.113   1.801
  621SOL    HW1 2089   0.388   2.184   1.807
  621SOL    HW2 2090   0.229   2.152   1.829
  622SOL     OW 2091   1.466   3.279   0.953
  622SOL    HW1 2092   1.407   3.285   1.033
  622SOL    HW2 2093   1.451   3.191   0.907
  623SOL     OW 2094   1.667   3.576   0.572
  623SOL    HW1 2095   1.626   3.553   0.484
  623SOL    HW2 2096   1.649   3.502   0.637
  624SOL     OW 2097   0.598   2.591   0.270
  624SOL    HW1 2098   0.622   2.660   0.202
  624SOL    HW2 2099   0.520   2.624   0.324
  625SOL     OW 2100   1.281   2.207   0.944
  625SOL    HW1 2101   1.195   2.157   0.931
  625SOL    HW2 2102   1.343   2.153   1.000
  626SOL     OW 2103   1.576   3.524   0.307
  626SOL    HW1 2104   1.665   3.570   0.310
  626SOL    HW2 2105   1.555   3.500   0.212
  627SOL     OW 2106   0.807   2.467   1.465
  627SOL    HW1 2107   0.760   2.464   1.554
  627SOL    HW2 2108   0.756   2.412   1.399
  628SOL     OW 2109   1.394   2.331   1.674
  628SOL    HW1 2110   1.374   2.374   1.762
  628SOL    HW2 2111   1.472   2.269   1.683
  629SOL     OW 2112   0.973   2.752   1.572
  629SOL    HW1 2113   1.019   2.668   1.543
  629SOL    HW2 2114   0.917   2.786   1.497
  630SOL     OW 2115   0.991   2.272   1.242
  630SOL    HW1 2116   0.914   2.306   1.296
  630SOL    HW2 2117   0.957   2.221   1.163
  631SOL     OW 2118   1.041   2.563   0.429
  631SOL    HW1 2119   1.067   2.559   0.525
  631SOL    HW2 2120   0.956   2.512   0.415
  632SOL     OW 2121   0.076   2.673   0.789
  632SOL    HW1 2122   0.175   2.661   0.798
  632SOL    HW2 2123   0.052   2.768   0.810
  633SOL     OW 2124   0.130   3.683   1.571
  633SOL    HW1 2125   0.120   3.668   1.670
  633SOL    HW2 2126   0.044   3.719   1.535
  634SOL     OW 2127   0.865   2.210   0.195
  634SOL    HW1 2128   0.924   2.273   0.146
  634SOL    HW2 2129   0.884   2.116   0.166
  635SOL     OW 2130   1.719   2.447   1.831
  635SOL    HW1 2131   1.693   2.536   1.795
  635SOL    HW2 2132   1.717   2.379   1.758
  636SOL     OW 2133   1.362   3.006   0.545
  636SOL    HW1 2134   1.445   2.977   0.497
  636SOL    HW2 2135   1.313   3.073   0.489
  637SOL     OW 2136   0.550   2.058   0.885
  637SOL    HW1 2137   0.545   2.053   0.985
  637SOL    HW2 2138   0.552   2.154   0.856
  638SOL     OW 2139   1.008   3.318   0.477
  638SOL    HW1 2140   0.962   3.390   0.425
  638SOL    HW2 2141   1.004   3.338   0.575
  639SOL     OW 2142   0.351   3.663   0.853
  639SOL    HW1 2143   0.401   3.577   0.859
  639SOL    HW2 2144   0.416   3.740   0.850
  640SOL     OW 2145   1.795   2.928   0.873
  640SOL    HW1 2146   1.733   2.913   0.797
  640SOL    HW2 2147   1.743   2.939   0.958
  641SOL     OW 2148   1.227   3.412   1.506
  641SOL    HW1 2149   1.233   3.335   1.570
  641SOL    HW2 2150   1.175   3.386   1.426
  642SOL     OW 2151   0.321   2.805   0.242
  642SOL    HW1 2152   0.403   2.844   0.200
  642SOL    HW2 2153   0.294   2.723   0.193
  643SOL     OW 2154   1.458   2.597   0.728
  643SOL    HW1 2155   1.453   2.532   0.803
  643SOL    HW2 2156   1.538   2.656   0.741
  644SOL     OW 2157   0.461   3.128   1.727
  644SOL    HW1 2158   0.411   3.129   1.641
  644SOL    HW2 2159   0.398   3.110   1.803
  645SOL     OW 2160   1.111   3.638   0.237
  645SOL    HW1 2161   1.051   3.576   0.287
  645SOL    HW2 2162   1.142   3.594   0.152
  646SOL     OW 2163   0.202   2.147   1.498
  646SOL    HW1 2164   0.122   2.207   1.485
  646SOL    HW2 2165   0.192   2.098   1.584
  647SOL     OW 2166   1.632   3.239   0.081
  647SOL    HW1 2167   1.600   3.333   0.071
  647SOL    HW2 2168   1.556   3.176   0.069
  648SOL     OW 2169   0.464   3.605   0.323
  648SOL    HW1 2170   0.497   3.644   0.409
  648SOL    HW2 2171   0.540   3.598   0.258
  649SOL     OW 2172   1.400   1.969   0.426
  649SOL    HW1 2173   1.376   1.932   0.336
  649SOL    HW2 2174   1.499   1.985   0.430
  650SOL     OW 2175   0.249   3.647   1.241
  650SOL    HW1 2176   0.306   3.582   1.291
  650SOL    HW2 2177   0.233   3.614   1.148
  651SOL     OW 2178   0.940   3.560   0.904
  651SOL    HW1 2179   1.020   3.503   0.925
  651SOL    HW2 2180   0.891   3.520   0.827
  652SOL     OW 2181   0.382   2.562   0.480
  652SOL    HW1 2182   0.427   2.472   0.477
  652SOL    HW2 2183   0.288   2.551   0.513
  653SOL     OW 2184   1.547   2.084   1.729
  653SOL    HW1 2185   1.542   2.121   1.821
  653SOL    HW2 2186   1.475   2.015   1.717
  654SOL     OW 2187   0.781   2.126   1.749
  654SOL    HW1 2188   0.848   2.065   1.792
  654SOL    HW2 2189   0.708   2.145   1.814
  655SOL     OW 2190   0.888   3.376   1.195
  655SOL    HW1 2191   0.865   3.351   1.101
  655SOL    HW2 2192   0.949   3.307   1.234
  656SOL     OW 2193   1.351   2.452   1.433
  656SOL    HW1 2194   1.379   2.409   1.518
  656SOL    HW2 2195   1.376   2.548   1.434
  657SOL     OW 2196   0.803   3.264   0.924
  657SOL    HW1 2197   0.893   3.278   0.882
  657SOL    HW2 2198   0.732   3.266   0.853
  658SOL     OW 2199   0.922   2.365   0.899
  658SOL    HW1 2200   0.897   2.356   0.803
  658SOL    HW2 2201   0.970   2.283   0.930
  659SOL     OW 2202   0.539   1.926   0.512
  659SOL    HW1 2203   0.458   1.927   0.570
  659SOL    HW2 2204   0.542   2.009   0.457
  660SOL     OW 2205   1.434   3.050   0.041
  660SOL    HW1 2206   1.466   2.974   0.098
  660SOL    HW2 2207   1.342   3.077   0.071
  661SOL     OW 2208   0.297   1.897   0.171
  661SOL    HW1 2209   0.346   1.981   0.150
  661SOL    HW2 2210   0.359   1.832   0.216
  662SOL     OW 2211   0.935   2.098   0.480
  662SOL    HW1 2212   0.887   2.139   0.402
  662SOL    HW2 2213   1.034   2.096   0.461
  663SOL     OW 2214   1.076   2.545   1.464
  663SOL    HW1 2215   0.996   2.484   1.467
  663SOL    HW2 2216   1.157   2.492   1.440
  664SOL     OW 2217   1.227   3.432   0.793
  664SOL    HW1 2218   1.248   3.506   0.728
  664SOL    HW2 2219   1.295   3.432   0.866
  665SOL     OW 2220   0.459   3.014   0.741
  665SOL    HW1 2221   0.388   2.987   0.806
  665SOL    HW2 2222   0.433   2.986   0.648
  666SOL     OW 2223   1.271   3.659   0.591
  666SOL    HW1 2224   1.315   3.723   0.527
  666SOL    HW2 2225   1.221   3.711   0.661
  667SOL     OW 2226   1.032   2.411   0.016
  667SOL    HW1 2227   0.991   2.493  -0.023
  667SOL    HW2 2228   1.096   2.437   0.089
  668SOL     OW 2229   0.078   2.418   1.386
  668SOL    HW1 2230   0.170   2.417   1.345
  668SOL    HW2 2231   0.072   2.492   1.453
  669SOL     OW 2232   0.561   2.084   1.147
  669SOL    HW1 2233   0.599   2.000   1.184
  669SOL    HW2 2234   0.473   2.103   1.191
  670SOL     OW 2235   0.866   2.316   0.642
  670SOL    HW1 2236   0.834   2.388   0.580
  670SOL    HW2 2237   0.890   2.235   0.589
  671SOL     OW 2238   1.017   1.901   0.753
  671SOL    HW1 2239   0.945   1.906   0.684
  671SOL    HW2 2240   0.993   1.832   0.822
  672SOL     OW 2241   1.429   3.035   0.867
  672SOL    HW1 2242   1.374   2.951   0.860
  672SOL    HW2 2243   1.455   3.064   0.775
  673SOL     OW 2244   1.466   2.452   0.992
  673SOL    HW1 2245   1.436   2.357   0.999
  673SOL    HW2 2246   1.539   2.468   1.058
  674SOL     OW 2247   1.857   2.695   0.377
  674SOL    HW1 2248   1.899   2.631   0.441
  674SOL    HW2 2249   1.819   2.644   0.299
  675SOL     OW 2250   0.488   3.247   0.174
  675SOL    HW1 2251   0.401   3.232   0.221
  675SOL    HW2 2252   0.471   3.273   0.079
  676SOL     OW 2253   1.664   3.142   0.657
  676SOL    HW1 2254   1.763   3.150   0.671
  676SOL    HW2 2255   1.619   3.226   0.688
  677SOL     OW 2256   1.390   2.437   0.078
  677SOL    HW1 2257   1.336   2.416   0.159
  677SOL    HW2 2258   1.481   2.396   0.087
  678SOL     OW 2259   0.527   2.118   0.328
  678SOL    HW1 2260   0.554   2.059   0.253
  678SOL    HW2 2261   0.527   2.213   0.297
  679SOL     OW 2262   1.754   3.085   1.588
  679SOL    HW1 2263   1.845   3.046   1.575
  679SOL    HW2 2264   1.762   3.181   1.612
  680SOL     OW 2265   1.064   3.209   1.340
  680SOL    HW1 2266   0.984   3.186   1.395
  680SOL    HW2 2267   1.147   3.183   1.389
  681SOL     OW 2268   1.592   3.491   1.625
  681SOL    HW1 2269   1.619   3.525   1.535
  681SOL    HW2 2270   1.671   3.453   1.671
  682SOL     OW 2271   1.111   3.057   1.100
  682SOL    HW1 2272   1.071   3.101   1.181
  682SOL    HW2 2273   1.070   3.094   1.017
  683SOL     OW 2274   1.638   2.961   1.079
  683SOL    HW1 2275   1.643   3.042   1.138
  683SOL    HW2 2276   1.552   2.963   1.028
  684SOL     OW 2277   0.915   1.951   1.402
  684SOL    HW1 2278   0.940   1.931   1.307
  684SOL    HW2 2279   0.987   2.007   1.444
  685SOL     OW 2280   0.980   2.978   1.719
  685SOL    HW1 2281   0.881   2.984   1.729
  685SOL    HW2 2282   1.003   2.898   1.663
  686SOL     OW 2283   0.705   2.912   0.368
  686SOL    HW1 2284   0.691   2.919   0.467
  686SOL    HW2 2285   0.789   2.861   0.350
  687SOL     OW 2286   0.410   2.675   1.251
  687SOL    HW1 2287   0.496   2.687   1.301
  687SOL    HW2 2288   0.368   2.588   1.278
  688SOL     OW 2289   1.274   2.248   1.262
  688SOL    HW1 2290   1.295   2.322   1.326
  688SOL    HW2 2291   1.185   2.265   1.219
  689SOL     OW 2292   0.064   3.426   1.331
  689SOL    HW1 2293   0.018   3.508   1.297
  689SOL    HW2 2294   0.162   3.445   1.340
  690SOL     OW 2295   0.367   2.962   0.501
  690SOL    HW1 2296   0.360   3.045   0.445
  690SOL    HW2 2297   0.371   2.882   0.441
  691SOL     OW 2298   0.566   2.399   0.865
  691SOL    HW1 2299   0.578   2.465   0.791
  691SOL    HW2 2300   0.612   2.433   0.948
  692SOL     OW 2301   1.252   3.210   0.388
  692SOL    HW1 2302   1.302   3.287   0.428
  692SOL    HW2 2303   1.157   3.212   0.420
  693SOL     OW 2304   1.272   3.307   1.142
  693SOL    HW1 2305   1.319   3.320   1.229
  693SOL    HW2 2306   1.206   3.233   1.151
  694SOL     OW 2307   1.582   2.501   0.472
  694SOL    HW1 2308   1.551   2.562   0.545
  694SOL    HW2 2309   1.632   2.553   0.403
  695SOL     OW 2310   0.354   3.372   1.329
  695SOL    HW1 2311   0.333   3.328   1.242
  695SOL    HW2 2312   0.451   3.398   1.332
  696SOL     OW 2313   0.402   2.613   1.598
  696SOL    HW1 2314   0.470   2.668   1.551
  696SOL    HW2 2315   0.442   2.525   1.625
  697SOL     OW 2316   1.587   2.641   1.670
  697SOL    HW1 2317   1.495   2.679   1.665
  697SOL    HW2 2318   1.647   2.688   1.605
  698SOL     OW 2319   1.013   1.967   1.770
  698SOL    HW1 2320   1.019   2.052   1.718
  698SOL    HW2 2321   1.045   1.891   1.713
  699SOL     OW 2322   0.504   1.912   1.740
  699SOL    HW1 2323   0.462   1.855   1.670
  699SOL    HW2 2324   0.438   1.981   1.772
  700SOL     OW 2325   0.573   2.732   1.029
  700SOL    HW1 2326   0.617   2.821   1.020
  700SOL    HW2 2327   0.510   2.732   1.106
  701SOL     OW 2328   1.360   2.724   1.045
  701SOL    HW1 2329   1.285   2.724   0.979
  701SOL    HW2 2330   1.397   2.632   1.054
  702SOL     OW 2331   1.209   2.387   0.275
  702SOL    HW1 2332   1.222   2.303   0.329
  702SOL    HW2 2333   1.180   2.461   0.335
  703SOL     OW 2334   0.307   2.075   1.231
  703SOL    HW1 2335   0.284   2.112   1.321
  703SOL    HW2 2336   0.277   1.980   1.225
  704SOL     OW 2337   0.037   3.172   1.282
  704SOL    HW1 2338   0.090   3.123   1.350
  704SOL    HW2 2339   0.059   3.270   1.287
  705SOL     OW 2340   0.732   2.496   1.064
  705SOL    HW1 2341   0.791   2.470   0.988
  705SOL    HW2 2342   0.704   2.592   1.053
  706SOL     OW 2343   1.728   2.797   1.854
  706SOL    HW1 2344   1.682   2.790   1.765
  706SOL    HW2 2345   1.666   2.841   1.920
  707SOL     OW 2346   0.307   1.925   0.618
  707SOL    HW1 2347   0.296   2.019   0.651
  707SOL    HW2 2348   0.302   1.862   0.695
  708SOL     OW 2349   1.622   2.229   0.374
  708SOL    HW1 2350   1.624   2.153   0.438
  708SOL    HW2 2351   1.574   2.306   0.414
  709SOL     OW 2352   1.023   2.628   0.966
  709SOL    HW1 2353   1.038   2.649   1.062
  709SOL    HW2 2354   0.993   2.533   0.957
  710SOL     OW 2355   0.980   3.435   1.700
  710SOL    HW1 2356   0.960   3.479   1.612
  710SOL    HW2 2357   1.019   3.344   1.684
  711SOL     OW 2358   1.859   3.380   1.605
  711SOL    HW1 2359   1.873   3.407   1.510
  711SOL    HW2 2360   1.942   3.402   1.658
  712SOL     OW 2361   0.350   2.760   1.804
  712SOL    HW1 2362   0.426   2.804   1.852
  712SOL    HW2 2363   0.385   2.713   1.722
  713SOL     OW 2364   1.540   2.136   0.125
  713SOL    HW1 2365   1.479   2.061   0.148
  713SOL    HW2 2366   1.562   2.188   0.208
  714SOL     OW 2367   1.303   2.700   0.042
  714SOL    HW1 2368   1.337   2.607   0.057
  714SOL    HW2 2369   1.321   2.727  -0.053
  715SOL     OW 2370   1.068   3.195   0.849
  715SOL    HW1 2371   1.075   3.111   0.794
  715SOL    HW2 2372   1.130   3.264   0.813
  716SOL     OW 2373   0.319   2.672   0.949
  716SOL    HW1 2374   0.412   2.708   0.954
  716SOL    HW2 2375   0.313   2.587   1.001
  717SOL     OW 2376   0.339   2.371   1.006
  717SOL    HW1 2377   0.287   2.288   0.989
  717SOL    HW2 2378   0.416   2.376   0.942
  718SOL     OW 2379   1.138   2.242   1.678
  718SOL    HW1 2380   1.093   2.305   1.742
  718SOL    HW2 2381   1.231   2.273   1.661
  719SOL     OW 2382   1.160   2.069   1.477
  719SOL    HW1 2383   1.160   2.133   1.554
  719SOL    HW2 2384   1.188   2.117   1.394
  720SOL     OW 2385   0.008   3.188   0.200
  720SOL    HW1 2386  -0.085   3.209   0.169
  720SOL    HW2 2387   0.018   3.089   0.213
  721SOL     OW 2388   0.088   3.663   0.927
  721SOL    HW1 2389   0.046   3.577   0.900
  721SOL    HW2 2390   0.182   3.666   0.893
  722SOL     OW 2391   0.504   3.430   0.910
  722SOL    HW1 2392   0.570   3.504   0.919
  722SOL    HW2 2393   0.548   3.351   0.868
  723SOL     OW 2394   1.002   2.658   1.238
  723SOL    HW1 2395   1.043   2.626   1.324
  723SOL    HW2 2396   0.906   2.631   1.235
  724SOL     OW 2397   0.040   2.406   1.114
  724SOL    HW1 2398   0.125   2.373   1.073
  724SOL    HW2 2399   0.053   2.421   1.212
  725SOL     OW 2400   0.189   2.382   1.722
  725SOL    HW1 2401   0.248   2.342   1.652
  725SOL    HW2 2402   0.131   2.453   1.681
  726SOL     OW 2403   1.369   2.812   1.660
  726SOL    HW1 2404   1.408   2.901   1.680
  726SOL    HW2 2405   1.379   2.792   1.563
  727SOL     OW 2406   0.815   2.434   0.325
  727SOL    HW1 2407   0.822   2.345   0.279
  727SOL    HW2 2408   0.721   2.468   0.317
  728SOL     OW 2409   1.657   2.466   1.206
  728SOL    HW1 2410   1.619   2.397   1.268
  728SOL    HW2 2411   1.739   2.430   1.162
  729SOL     OW 2412   0.252   3.426   1.744
  729SOL    HW1 2413   0.222   3.483   1.820
  729SOL    HW2 2414   0.245   3.329   1.770
  730SOL     OW 2415   0.671   2.326   1.269
  730SOL    HW1 2416   0.637   2.237   1.239
  730SOL    HW2 2417   0.697   2.380   1.189
  731SOL     OW 2418   0.930   3.540   1.465
  731SOL    HW1 2419   0.906   3.522   1.370
  731SOL    HW2 2420   0.960   3.634   1.475
  732SOL     OW 2421   0.473   2.362   0.191
  732SOL    HW1 2422   0.534   2.442   0.195
  732SOL    HW2 2423   0.378   2.393   0.198
  733SOL     OW 2424   0.159   2.999   1.466
  733SOL    HW1 2425   0.181   2.938   1.542
  733SOL    HW2 2426   0.169   2.950   1.380
  734SOL     OW 2427   1.347   2.921   1.234
  734SOL    HW1 2428   1.371   2.858   1.160
  734SOL    HW2 2429   1.257   2.961   1.216
  735SOL     OW 2430   1.302   2.717   0.309
  735SOL    HW1 2431   1.216   2.686   0.351
  735SOL    HW2 2432   1.298   2.703   0.210
  736SOL     OW 2433   1.759   3.609   1.154
  736SOL    HW1 2434   1.820   3.639   1.081
  736SOL    HW2 2435   1.721   3.520   1.132
  737SOL     OW 2436   1.252   3.593   1.128
  737SOL    HW1 2437   1.336   3.598   1.074
  737SOL    HW2 2438   1.229   3.497   1.146
  738SOL     OW 2439   0.083   3.120   1.022
  738SOL    HW1 2440   0.078   3.119   1.122
  738SOL    HW2 2441   0.000   3.079   0.984
  739SOL     OW 2442   0.688   3.524   1.716
  739SOL    HW1 2443   0.632   3.605   1.725
  739SOL    HW2 2444   0.740   3.528   1.630
  740SOL     OW 2445   0.903   1.948   0.133
  740SOL    HW1 2446   0.954   1.949   0.047
  740SOL    HW2 2447   0.959   1.906   0.204
  741SOL     OW 2448   1.726   1.997   0.523
  741SOL    HW1 2449   1.799   1.980   0.456
  741SOL    HW2 2450   1.695   1.910   0.561
  742SOL     OW 2451   1.388   3.435   0.477
  742SOL    HW1 2452   1.455   3.447   0.403
  742SOL    HW2 2453   1.348   3.524   0.500
  743SOL     OW 2454   0.130   3.656   1.851
  743SOL    HW1 2455   0.089   3.582   1.904
  743SOL    HW2 2456   0.194   3.707   1.909
  744SOL     OW 2457   1.280   2.789   0.672
  744SOL    HW1 2458   1.340   2.708   0.674
  744SOL    HW2 2459   1.320   2.858   0.612
  745SOL     OW 2460   0.830   3.135   1.422
  745SOL    HW1 2461   0.825   3.168   1.517
  745SOL    HW2 2462   0.744   3.154   1.376
  746SOL     OW 2463   0.672   3.478   0.154
  746SOL    HW1 2464   0.681   3.488   0.055
  746SOL    HW2 2465   0.632   3.389   0.175
  747SOL     OW 2466   1.650   3.582   1.394
  747SOL    HW1 2467   1.703   3.592   1.310
  747SOL    HW2 2468   1.623   3.672   1.428
  748SOL     OW 2469   1.841   2.037   0.963
  748SOL    HW1 2470   1.880   1.952   0.927
  748SOL    HW2 2471   1.743   2.039   0.944
  749SOL     OW 2472   0.263   2.188   0.720
  749SOL    HW1 2473   0.184   2.239   0.686
  749SOL    HW2 2474   0.254   2.173   0.818
  750SOL     OW 2475   1.194   3.474   0.031
  750SOL    HW1 2476   1.200   3.381   0.068
  750SOL    HW2 2477   1.135   3.474  -0.049
  751SOL     OW 2478   0.822   2.864   1.372
  751SOL    HW1 2479   0.862   2.863   1.280
  751SOL    HW2 2480   0.832   2.956   1.412
  752SOL     OW 2481   0.916   2.772   0.291
  752SOL    HW1 2482   0.979   2.810   0.223
  752SOL    HW2 2483   0.956   2.689   0.330
  753SOL     OW 2484   1.504   3.469   0.044
  753SOL    HW1 2485   1.412   3.506   0.051
  753SOL    HW2 2486   1.542   3.489  -0.046
  754SOL     OW 2487   0.372   3.150   1.490
  754SOL    HW1 2488   0.359   3.243   1.456
  754SOL    HW2 2489   0.288   3.098   1.477
  755SOL     OW 2490   1.614   3.154   1.289
  755SOL    HW1 2491   1.674   3.157   1.369
  755SOL    HW2 2492   1.539   3.218   1.302
  756SOL     OW 2493   1.039   2.960   0.696
  756SOL    HW1 2494   0.969   2.913   0.750
  756SOL    HW2 2495   1.098   2.892   0.653
  757SOL     OW 2496   1.014   2.098   0.971
  757SOL    HW1 2497   1.006   2.062   0.878
  757SOL    HW2 2498   1.012   2.022   1.036
  758SOL     OW 2499   0.590   3.349   0.491
  758SOL    HW1 2500   0.632   3.291   0.421
  758SOL    HW2 2501   0.546   3.428   0.447
  759SOL     OW 2502   1.709   2.247   1.381
  759SOL    HW1 2503   1.782   2.316   1.385
  759SOL    HW2 2504   1.737   2.172   1.322
  760SOL     OW 2505   0.255   3.210   0.290
  760SOL    HW1 2506   0.159   3.211   0.263
  760SOL    HW2 2507   0.267   3.263   0.374
  761SOL     OW 2508   0.105   2.875   1.726
  761SOL    HW1 2509   0.028   2.842   1.780
  761SOL    HW2 2510   0.190   2.845   1.768
  762SOL     OW 2511   0.672   2.065   1.489
  762SOL    HW1 2512   0.762   2.049   1.449
  762SOL    HW2 2513   0.680   2.070   1.588
  763SOL     OW 2514   0.075   2.207   0.033
  763SOL    HW1 2515  -0.017   2.179   0.004
  763SOL    HW2 2516   0.106   2.284  -0.023
  764SOL     OW 2517   1.440   2.718   1.398
  764SOL    HW1 2518   1.383   2.770   1.335
  764SOL    HW2 2519   1.536   2.730   1.374
  765SOL     OW 2520   0.072   2.028   0.318
  765SOL    HW1 2521   0.055   2.111   0.264
  765SOL    HW2 2522   0.162   1.991   0.296
  766SOL     OW 2523   1.183   3.197   0.119
  766SOL    HW1 2524   1.084   3.186   0.121
  766SOL    HW2 2525   1.217   3.212   0.212
  767SOL     OW 2526   0.613   2.704   1.431
  767SOL    HW1 2527   0.669   2.785   1.414
  767SOL    HW2 2528   0.672   2.624   1.434
  768SOL     OW 2529   1.493   3.629   0.959
  768SOL    HW1 2530   1.526   3.693   0.890
  768SOL    HW2 2531   1.559   3.623   1.034
  769SOL     OW 2532   0.716   2.427   1.708
  769SOL    HW1 2533   0.735   2.492   1.782
  769SOL    HW2 2534   0.776   2.347   1.717
  770SOL     OW 2535   1.450   3.082   1.633
  770SOL    HW1 2536   1.441   3.072   1.732
  770SOL    HW2 2537   1.546   3.075   1.607
  771SOL     OW 2538   0.390   3.603   1.560
  771SOL    HW1 2539   0.299   3.644   1.558
  771SOL    HW2 2540   0.383   3.509   1.592
  772SOL     OW 2541   1.674   2.745   1.254
  772SOL    HW1 2542   1.647   2.656   1.217
  772SOL    HW2 2543   1.675   2.813   1.181
  773SOL     OW 2544   1.225   2.187   0.449
  773SOL    HW1 2545   1.290   2.113   0.438
  773SOL    HW2 2546   1.245   2.237   0.533
  774SOL     OW 2547   0.594   2.607   0.652
  774SOL    HW1 2548   0.644   2.692   0.633
  774SOL    HW2 2549   0.506   2.609   0.604
  775SOL     OW 2550   1.777   2.204   1.642
  775SOL    HW1 2551   1.760   2.235   1.548
  775SOL    HW2 2552   1.693   2.167   1.680
  776SOL     OW 2553   1.730   2.796   1.517
  776SOL    HW1 2554   1.768   2.887   1.532
  776SOL    HW2 2555   1.722   2.779   1.418
  777SOL     OW 2556   0.859   3.236   0.016
  777SOL    HW1 2557   0.813   3.251   0.104
  777SOL    HW2 2558   0.903   3.321  -0.014
  778SOL     OW 2559   0.661   3.652   0.953
  778SOL    HW1 2560   0.615   3.740   0.940
  778SOL    HW2 2561   0.760   3.664   0.946
  779SOL     OW 2562   0.859   2.818   0.861
  779SOL    HW1 2563   0.913   2.749   0.909
  779SOL    HW2 2564   0.827   2.887   0.927
  780SOL     OW 2565   1.083   2.846   0.087
  780SOL    HW1 2566   1.060   2.899   0.005
  780SOL    HW2 2567   1.164   2.790   0.068
  781SOL     OW 2568   1.861   3.431   0.851
  781SOL    HW1 2569   1.790   3.419   0.781
  781SOL    HW2 2570   1.862   3.352   0.911
  782SOL     OW 2571   0.221   3.176   1.844
  782SOL    HW1 2572   0.156   3.103   1.823
  782SOL    HW2 2573   0.225   3.190   1.942
  783SOL     OW 2574   0.079   3.102   0.653
  783SOL    HW1 2575   0.078   3.055   0.741
  783SOL    HW2 2576   0.161   3.074   0.602
  784SOL     OW 2577   0.672   3.253   1.624
  784SOL    HW1 2578   0.594   3.203   1.662
  784SOL    HW2 2579   0.669   3.348   1.655
  785SOL     OW 2580   1.824   2.054   1.227
  785SOL    HW1 2581   1.820   1.964   1.271
  785SOL    HW2 2582   1.827   2.043   1.128
  786SOL     OW 2583   0.428   2.286   0.520
  786SOL    HW1 2584   0.458   2.214   0.458
  786SOL    HW2 2585   0.389   2.246   0.603
  787SOL     OW 2586   1.705   3.349   1.104
  787SOL    HW1 2587   1.612   3.324   1.077
  787SOL    HW2 2588   1.731   3.299   1.186
  788SOL     OW 2589   0.317   2.409   1.280
  788SOL    HW1 2590   0.355   2.350   1.352
  788SOL    HW2 2591   0.357   2.383   1.192
  789SOL     OW 2592   0.812   3.448   0.687
  789SOL    HW1 2593   0.844   3.458   0.593
  789SOL    HW2 2594   0.733   3.386   0.689
  790SOL     OW 2595   1.424   2.076   1.112
  790SOL    HW1 2596   1.476   2.011   1.167
  790SOL    HW2 2597   1.375   2.139   1.173
  791SOL     OW 2598   1.001   1.896   1.154
  791SOL    HW1 2599   0.938   1.824   1.123
  791SOL    HW2 2600   1.094   1.860   1.154
  792SOL     OW 2601   0.770   3.192   0.301
  792SOL    HW1 2602   0.724   3.105   0.318
  792SOL    HW2 2603   0.861   3.189   0.342
  793SOL     OW 2604   0.618   3.429   1.284
  793SOL    HW1 2605   0.613   3.511   1.341
  793SOL    HW2 2606   0.707   3.426   1.239
  794SOL     OW 2607   1.352   1.914   0.168
  794SOL    HW1 2608   1.387   1.873   0.084
  794SOL    HW2 2609   1.262   1.876   0.188
  795SOL     OW 2610   1.300   2.315   0.691
  795SOL    HW1 2611   1.241   2.395   0.695
  795SOL    HW2 2612   1.315   2.280   0.784
  796SOL     OW 2613   1.593   2.083   0.882
  796SOL    HW1 2614   1.509   2.082   0.936
  796SOL    HW2 2615   1.595   2.166   0.826
  797SOL     OW 2616   0.039   2.939   0.300
  797SOL    HW1 2617   0.138   2.928   0.291
  797SOL    HW2 2618  -0.001   2.853   0.332
  798SOL     OW 2619   0.875   3.508   0.337
  798SOL    HW1 2620   0.798   3.473   0.283
  798SOL    HW2 2621   0.843   3.579   0.399
  799SOL     OW 2622   0.230   2.490   1.975
  799SOL    HW1 2623   0.137   2.488   2.012
  799SOL    HW2 2624   0.231   2.451   1.883
  800SOL     OW 2625   0.225   2.137   2.858
  800SOL    HW1 2626   0.260   2.120   2.950
  800SOL    HW2 2627   0.137   2.092   2.846
  801SOL     OW 2628   0.019   2.230   2.509
  801SOL    HW1 2629  -0.063   2.273   2.548
  801SOL    HW2 2630  -0.009   2.157   2.446
  802SOL     OW 2631   0.569   3.137   3.027
  802SOL    HW1 2632   0.476   3.130   2.990
  802SOL    HW2 2633   0.580   3.226   3.071
  803SOL     OW 2634   1.555   3.373   2.565
  803SOL    HW1 2635   1.498   3.357   2.646
  803SOL    HW2 2636   1.496   3.383   2.485
  804SOL     OW 2637   1.135   2.565   2.579
  804SOL    HW1 2638   1.192   2.643   2.554
  804SOL    HW2 2639   1.075   2.591   2.655
  805SOL     OW 2640   1.755   2.469   2.093
  805SOL    HW1 2641   1.743   2.456   1.994
  805SOL    HW2 2642   1.725   2.388   2.142
  806SOL     OW 2643   0.768   3.006   2.885
  806SOL    HW1 2644   0.690   3.023   2.945
  806SOL    HW2 2645   0.802   3.093   2.849
  807SOL     OW 2646   0.850   2.660   3.685
  807SOL    HW1 2647   0.846   2.736   3.750
  807SOL    HW2 2648   0.872   2.696   3.594
  808SOL     OW 2649   0.685   2.874   2.527
  808SOL    HW1 2650   0.754   2.858   2.597
  808SOL    HW2 2651   0.612   2.931   2.565
  809SOL     OW 2652   0.686   3.023   3.665
  809SOL    HW1 2653   0.746   3.102   3.679
  809SOL    HW2 2654   0.600   3.054   3.624
  810SOL     OW 2655   0.335   3.297   2.923
  810SOL    HW1 2656   0.257   3.266   2.870
  810SOL    HW2 2657   0.393   3.355   2.866
  811SOL     OW 2658   1.460   3.367   3.201
  811SOL    HW1 2659   1.484   3.461   3.227
  811SOL    HW2 2660   1.444   3.313   3.283
  812SOL     OW 2661   0.438   2.254   3.361
  812SOL    HW1 2662   0.520   2.198   3.370
  812SOL    HW2 2663   0.357   2.196   3.365
  813SOL     OW 2664   1.603   2.309   2.599
  813SOL    HW1 2665   1.529   2.355   2.549
  813SOL    HW2 2666   1.654   2.377   2.652
  814SOL     OW 2667   0.231   3.575   2.345
  814SOL    HW1 2668   0.265   3.652   2.399
  814SOL    HW2 2669   0.275   3.575   2.255
  815SOL     OW 2670   1.127   3.203   3.552
  815SOL    HW1 2671   1.174   3.203   3.640
  815SOL    HW2 2672   1.079   3.116   3.541
  816SOL     OW 2673   0.230   3.296   2.400
  816SOL    HW1 2674   0.204   3.392   2.400
  816SOL    HW2 2675   0.159   3.242   2.445
  817SOL     OW 2676   0.240   2.953   2.748
  817SOL    HW1 2677   0.254   2.869   2.800
  817SOL    HW2 2678   0.185   3.017   2.803
  818SOL     OW 2679   0.606   2.826   1.985
  818SOL    HW1 2680   0.613   2.910   1.931
  818SOL    HW2 2681   0.652   2.839   2.073
  819SOL     OW 2682   1.594   1.976   3.342
  819SOL    HW1 2683   1.576   2.043   3.270
  819SOL    HW2 2684   1.591   2.022   3.431
  820SOL     OW 2685   0.122   2.505   2.425
  820SOL    HW1 2686   0.077   2.417   2.442
  820SOL    HW2 2687   0.121   2.559   2.509
  821SOL     OW 2688   1.842   3.629   2.221
  821SOL    HW1 2689   1.896   3.600   2.301
  821SOL    HW2 2690   1.872   3.719   2.192
  822SOL     OW 2691   0.027   3.458   1.979
  822SOL    HW1 2692   0.008   3.362   2.000
  822SOL    HW2 2693  -0.006   3.516   2.054
  823SOL     OW 2694   1.689   2.784   2.474
  823SOL    HW1 2695   1.784   2.755   2.482
  823SOL    HW2 2696   1.681   2.849   2.399
  824SOL     OW 2697   1.641   2.970   2.294
  824SOL    HW1 2698   1.727   2.972   2.242
  824SOL    HW2 2699   1.655   3.017   2.382
  825SOL     OW 2700   0.113   2.599   3.459
  825SOL    HW1 2701   0.201   2.586   3.504
  825SOL    HW2 2702   0.100   2.696   3.437
  826SOL     OW 2703   0.613   3.227   2.588
  826SOL    HW1 2704   0.564   3.140   2.597
  826SOL    HW2 2705   0.590   3.270   2.501
  827SOL     OW 2706   1.293   3.090   3.285
  827SOL    HW1 2707   1.330   3.017   3.227
  827SOL    HW2 2708   1.345   3.095   3.370
  828SOL     OW 2709   0.809   1.866   2.364
  828SOL    HW1 2710   0.849   1.957   2.355
  828SOL    HW2 2711   0.709   1.874   2.370
  829SOL     OW 2712   0.197   2.838   3.126
  829SOL    HW1 2713   0.286   2.793   3.112
  829SOL    HW2 2714   0.124   2.773   3.107
  830SOL     OW 2715   1.525   2.861   2.052
  830SOL    HW1 2716   1.462   2.785   2.065
  830SOL    HW2 2717   1.573   2.879   2.138
  831SOL     OW 2718   0.317   2.113   3.663
  831SOL    HW1 2719   0.388   2.184   3.669
  831SOL    HW2 2720   0.229   2.152   3.691
  832SOL     OW 2721   1.466   3.279   2.815
  832SOL    HW1 2722   1.407   3.285   2.895
  832SOL    HW2 2723   1.451   3.191   2.769
  833SOL     OW 2724   1.667   3.576   2.434
  833SOL    HW1 2725   1.626   3.553   2.346
  833SOL    HW2 2726   1.649   3.502   2.499
  834SOL     OW 2727   0.598   2.591   2.132
  834SOL    HW1 2728   0.622   2.660   2.064
  834SOL    HW2 2729   0.520   2.624   2.186
  835SOL     OW 2730   1.281   2.207   2.806
  835SOL    HW1 2731   1.195   2.157   2.793
  835SOL    HW2 2732   1.343   2.153   2.862
  836SOL     OW 2733   1.576   3.524   2.169
  836SOL    HW1 2734   1.665   3.570   2.172
  836SOL    HW2 2735   1.555   3.500   2.074
  837SOL     OW 2736   0.807   2.467   3.327
  837SOL    HW1 2737   0.760   2.464   3.416
  837SOL    HW2 2738   0.756   2.412   3.261
  838SOL     OW 2739   1.394   2.331   3.536
  838SOL    HW1 2740   1.374   2.374   3.624
  838SOL    HW2 2741   1.472   2.269   3.545
  839SOL     OW 2742   0.973   2.752   3.434
  839SOL    HW1 2743   1.019   2.668   3.405
  839SOL    HW2 2744   0.917   2.786   3.359
  840SOL     OW 2745   0.991   2.272   3.104
  840SOL    HW1 2746   0.914   2.306   3.158
  840SOL    HW2 2747   0.957   2.221   3.025
  841SOL     OW 2748   1.041   2.563   2.291
  841SOL    HW1 2749   1.067   2.559   2.387
  841SOL    HW2 2750   0.956   2.512   2.277
  842SOL     OW 2751   0.076   2.673   2.651
  842SOL    HW1 2752   0.175   2.661   2.660
  842SOL    HW2 2753   0.052   2.768   2.672
  843SOL     OW 2754   0.130   3.683   3.433
  843SOL    HW1 2755   0.120   3.668   3.532
  843SOL    HW2 2756   0.044   3.719   3.397
  844SOL     OW 2757   0.865   2.210   2.057
  844SOL    HW1 2758   0.924   2.273   2.008
  844SOL    HW2 2759   0.884   2.116   2.028
  845SOL     OW 2760   1.719   2.447   3.693
  845SOL    HW1 2761   1.693   2.536   3.657
  845SOL    HW2 2762   1.717   2.379   3.620
  846SOL     OW 2763   1.362   3.006   2.407
  846SOL    HW1 2764   1.445   2.977   2.359
  846SOL    HW2 2765   1.313   3.073   2.351
  847SOL     OW 2766   0.550   2.058   2.747
  847SOL    HW1 2767   0.545   2.053   2.847
  847SOL    HW2 2768   0.552   2.154   2.718
  848SOL     OW 2769   1.008   3.318   2.339
  848SOL    HW1 2770   0.962   3.390   2.287
  848SOL    HW2 2771   1.004   3.338   2.437
  849SOL     OW 2772   0.351   3.663   2.715
  849SOL    HW1 2773   0.401   3.577   2.721
  849SOL    HW2 2774   0.416   3.740   2.712
  850SOL     OW 2775   1.795   2.928   2.735
  850SOL    HW1 2776   1.733   2.913   2.659
  850SOL    HW2 2777   1.743   2.939   2.820
  851SOL     OW 2778   1.227   3.412   3.368
  851SOL    HW1 2779   1.233   3.335   3.432
  851SOL    HW2 2780   1.175   3.386   3.288
  852SOL     OW 2781   0.321   2.805   2.104
  852SOL    HW1 2782   0.403   2.844   2.062
  852SOL    HW2 2783   0.294   2.723   2.055
  853SOL     OW 2784   1.458   2.597   2.590
  853SOL    HW1 2785   1.453   2.532   2.665
  853SOL    HW2 2786   1.538   2.656   2.603
  854SOL     OW 2787   0.461   3.128   3.589
  854SOL    HW1 2788   0.411   3.129   3.503
  854SOL    HW2 2789   0.398   3.110   3.665
  855SOL     OW 2790   1.111   3.638   2.099
  855SOL    HW1 2791   1.051   3.576   2.149
  855SOL    HW2 2792   1.142   3.594   2.014
  856SOL     OW 2793   0.202   2.147   3.360
  856SOL    HW1 2794   0.122   2.207   3.347
  856SOL    HW2 2795   0.192   2.098   3.446
  857SOL     OW 2796   1.632   3.239   1.943
  857SOL    HW1 2797   1.600   3.333   1.933
  857SOL    HW2 2798   1.556   3.176   1.931
  858SOL     OW 2799   0.464   3.605   2.185
  858SOL    HW1 2800   0.497   3.644   2.271
  858SOL    HW2 2801   0.540   3.598   2.120
  859SOL     OW 2802   1.400   1.969   2.288
  859SOL    HW1 2803   1.376   1.932   2.198
  859SOL    HW2 2804   1.499   1.985   2.292
  860SOL     OW 2805   0.249   3.647   3.103
  860SOL    HW1 2806   0.306   3.582   3.153
  860SOL    HW2 2807   0.233   3.614   3.010
  861SOL     OW 2808   0.940   3.560   2.766
  861SOL    HW1 2809   1.020   3.503   2.787
  861SOL    HW2 2810   0.891   3.520   2.689
  862SOL     OW 2811   0.382   2.562   2.342
  862SOL    HW1 2812   0.427   2.472   2.339
  862SOL    HW2 2813   0.288   2.551   2.375
  863SOL     OW 2814   1.547   2.084   3.591
  863SOL    HW1 2815   1.542   2.121   3.683
  863SOL    HW2 2816   1.475   2.015   3.579
  864SOL     OW 2817   0.614   1.984   1.979
  864SOL    HW1 2818   0.712   1.962   1.986
  864SOL    HW2 2819   0.583   1.967   1.886
  865SOL     OW 2820   0.781   2.126   3.611
  865SOL    HW1 2821   0.848   2.065   3.654
  865SOL    HW2 2822   0.708   2.145   3.676
  866SOL     OW 2823   1.351   2.452   3.295
  866SOL    HW1 2824   1.379   2.409   3.380
  866SOL    HW2 2825   1.376   2.548   3.296
  867SOL     OW 2826   0.922   2.365   2.761
  867SOL    HW1 2827   0.897   2.356   2.665
  867SOL    HW2 2828   0.970   2.283   2.792
  868SOL     OW 2829   0.539   1.926   2.374
  868SOL    HW1 2830   0.458   1.927   2.432
  868SOL    HW2 2831   0.542   2.009   2.319
  869SOL     OW 2832   1.434   3.050   1.903
  869SOL    HW1 2833   1.466   2.974   1.960
  869SOL    HW2 2834   1.342   3.077   1.933
  870SOL     OW 2835   0.297   1.897   2.033
  870SOL    HW1 2836   0.346   1.981   2.012
  870SOL    HW2 2837   0.359   1.832   2.078
  871SOL     OW 2838   0.935   2.098   2.342
  871SOL    HW1 2839   0.887   2.139   2.264
  871SOL    HW2 2840   1.034   2.096   2.323
  872SOL     OW 2841   1.076   2.545   3.326
  872SOL    HW1 2842   0.996   2.484   3.329
  872SOL    HW2 2843   1.157   2.492   3.302
  873SOL     OW 2844   1.227   3.432   2.655
  873SOL    HW1 2845   1.248   3.506   2.590
  873SOL    HW2 2846   1.295   3.432   2.728
  874SOL     OW 2847   0.459   3.014   2.603
  874SOL    HW1 2848   0.388   2.987   2.668
  874SOL    HW2 2849   0.433   2.986   2.510
  875SOL     OW 2850   1.271   3.659   2.453
  875SOL    HW1 2851   1.315   3.723   2.389
  875SOL    HW2 2852   1.221   3.711   2.523
  876SOL     OW 2853   1.032   2.411   1.878
  876SOL    HW1 2854   0.991   2.493   1.839
  876SOL    HW2 2855   1.096   2.437   1.951
  877SOL     OW 2856   0.078   2.418   3.248
  877SOL    HW1 2857   0.170   2.417   3.207
  877SOL    HW2 2858   0.072   2.492   3.315
  878SOL     OW 2859   0.561   2.084   3.009
  878SOL    HW1 2860   0.599   2.000   3.046
  878SOL    HW2 2861   0.473   2.103   3.053
  879SOL     OW 2862   0.866   2.316   2.504
  879SOL    HW1 2863   0.834   2.388   2.442
  879SOL    HW2 2864   0.890   2.235   2.451
  880SOL     OW 2865   1.017   1.901   2.615
  880SOL    HW1 2866   0.945   1.906   2.546
  880SOL    HW2 2867   0.993   1.832   2.684
  881SOL     OW 2868   1.429   3.035   2.729
  881SOL    HW1 2869   1.374   2.951   2.722
  881SOL    HW2 2870   1.455   3.064   2.637
  882SOL     OW 2871   1.466   2.452   2.854
  882SOL    HW1 2872   1.436   2.357   2.861
  882SOL    HW2 2873   1.539   2.468   2.920
  883SOL     OW 2874   1.857   2.695   2.239
  883SOL    HW1 2875   1.899   2.631   2.303
  883SOL    HW2 2876   1.819   2.644   2.161
  884SOL     OW 2877   0.488   3.247   2.036
  884SOL    HW1 2878   0.401   3.232   2.083
  884SOL    HW2 2879   0.471   3.273   1.941
  885SOL     OW 2880   1.664   3.142   2.519
  885SOL    HW1 2881   1.763   3.150   2.533
  885SOL    HW2 2882   1.619   3.226   2.550
  886SOL     OW 2883   1.390   2.437   1.940
  886SOL    HW1 2884   1.336   2.416   2.021
  886SOL    HW2 2885   1.481   2.396   1.949
  887SOL     OW 2886   0.527   2.118   2.190
  887SOL    HW1 2887   0.554   2.059   2.115
  887SOL    HW2 2888   0.527   2.213   2.159
  888SOL     OW 2889   1.754   3.085   3.450
  888SOL    HW1 2890   1.845   3.046   3.437
  888SOL    HW2 2891   1.762   3.181   3.474
  889SOL     OW 2892   1.592   3.491   3.487
  889SOL    HW1 2893   1.619   3.525   3.397
  889SOL    HW2 2894   1.671   3.453   3.533
  890SOL     OW 2895   1.638   2.961   2.941
  890SOL    HW1 2896   1.643   3.042   3.000
  890SOL    HW2 2897   1.552   2.963   2.890
  891SOL     OW 2898   0.915   1.951   3.264
  891SOL    HW1 2899   0.940   1.931   3.169
  891SOL    HW2 2900   0.987   2.007   3.306
  892SOL     OW 2901   0.980   2.978   3.581
  892SOL    HW1 2902   0.881   2.984   3.591
  892SOL    HW2 2903   1.003   2.898   3.525
  893SOL     OW 2904   0.705   2.912   2.230
  893SOL    HW1 2905   0.691   2.919   2.329
  893SOL    HW2 2906   0.789   2.861   2.212
  894SOL     OW 2907   0.410   2.675   3.113
  894SOL    HW1 2908   0.496   2.687   3.163
  894SOL    HW2 2909   0.368   2.588   3.140
  895SOL     OW 2910   1.274   2.248   3.124
  895SOL    HW1 2911   1.295   2.322   3.188
  895SOL    HW2 2912   1.185   2.265   3.081
  896SOL     OW 2913   0.064   3.426   3.193
  896SOL    HW1 2914   0.018   3.508   3.159
  896SOL    HW2 2915   0.162   3.445   3.202
  897SOL     OW 2916   0.367   2.962   2.363
  897SOL    HW1 2917   0.360   3.045   2.307
  897SOL    HW2 2918   0.371   2.882   2.303
  898SOL     OW 2919   0.566   2.399   2.727
  898SOL    HW1 2920   0.578   2.465   2.653
  898SOL    HW2 2921   0.612   2.433   2.810
  899SOL     OW 2922   1.252   3.210   2.250
  899SOL    HW1 2923   1.302   3.287   2.290
  899SOL    HW2 2924   1.157   3.212   2.282
  900SOL     OW 2925   1.272   3.307   3.004
  900SOL    HW1 2926   1.319   3.320   3.091
  900SOL    HW2 2927   1.206   3.233   3.013
  901SOL     OW 2928   1.582   2.501   2.334
  901SOL    HW1 2929   1.551   2.562   2.407
  901SOL    HW2 2930   1.632   2.553   2.265
  902SOL     OW 2931   0.354   3.372   3.191
  902SOL    HW1 2932   0.333   3.328   3.104
  902SOL    HW2 2933   0.451   3.398   3.194
  903SOL     OW 2934   0.402   2.613   3.460
  903SOL    HW1 2935   0.470   2.668   3.413
  903SOL    HW2 2936   0.442   2.525   3.487
  904SOL     OW 2937   1.587   2.641   3.532
  904SOL    HW1 2938   1.495   2.679   3.527
  904SOL    HW2 2939   1.647   2.688   3.467
  905SOL     OW 2940   1.013   1.967   3.632
  905SOL    HW1 2941   1.019   2.052   3.580
  905SOL    HW2 2942   1.045   1.891   3.575
  906SOL     OW 2943   0.504   1.912   3.602
  906SOL    HW1 2944   0.462   1.855   3.532
  906SOL    HW2 2945   0.438   1.981   3.634
  907SOL     OW 2946   0.573   2.732   2.891
  907SOL    HW1 2947   0.617   2.821   2.882
  907SOL    HW2 2948   0.510   2.732   2.968
  908SOL     OW 2949   1.360   2.724   2.907
  908SOL    HW1 2950   1.285   2.724   2.841
  908SOL    HW2 2951   1.397   2.632   2.916
  909SOL     OW 2952   1.209   2.387   2.137
  909SOL    HW1 2953   1.222   2.303   2.191
  909SOL    HW2 2954   1.180   2.461   2.197
  910SOL     OW 2955   0.307   2.075   3.093
  910SOL    HW1 2956   0.284   2.112   3.183
  910SOL    HW2 2957   0.277   1.980   3.087
  911SOL     OW 2958   0.037   3.172   3.144
  911SOL    HW1 2959   0.090   3.123   3.212
  911SOL    HW2 2960   0.059   3.270   3.149
  912SOL     OW 2961   0.732   2.496   2.926
  912SOL    HW1 2962   0.791   2.470   2.850
  912SOL    HW2 2963   0.704   2.592   2.915
  913SOL     OW 2964   1.728   2.797   3.716
  913SOL    HW1 2965   1.682   2.790   3.627
  913SOL    HW2 2966   1.666   2.841   3.782
  914SOL     OW 2967   0.307   1.925   2.480
  914SOL    HW1 2968   0.296   2.019   2.513
  914SOL    HW2 2969   0.302   1.862   2.557
  915SOL     OW 2970   1.622   2.229   2.236
  915SOL    HW1 2971   1.624   2.153   2.300
  915SOL    HW2 2972   1.574   2.306   2.276
  916SOL     OW 2973   1.023   2.628   2.828
  916SOL    HW1 2974   1.038   2.649   2.924
  916SOL    HW2 2975   0.993   2.533   2.819
  917SOL     OW 2976   1.859   3.380   3.467
  917SOL    HW1 2977   1.873   3.407   3.372
  917SOL    HW2 2978   1.942   3.402   3.520
  918SOL     OW 2979   0.350   2.760   3.666
  918SOL    HW1 2980   0.426   2.804   3.714
  918SOL    HW2 2981   0.385   2.713   3.584
  919SOL     OW 2982   1.540   2.136   1.987
  919SOL    HW1 2983   1.479   2.061   2.010
  919SOL    HW2 2984   1.562   2.188   2.070
  920SOL     OW 2985   1.303   2.700   1.904
  920SOL    HW1 2986   1.337   2.607   1.919
  920SOL    HW2 2987   1.321   2.727   1.809
  921SOL     OW 2988   1.068   3.195   2.711
  921SOL    HW1 2989   1.075   3.111   2.656
  921SOL    HW2 2990   1.130   3.264   2.675
  922SOL     OW 2991   0.319   2.672   2.811
  922SOL    HW1 2992   0.412   2.708   2.816
  922SOL    HW2 2993   0.313   2.587   2.863
  923SOL     OW 2994   0.339   2.371   2.868
  923SOL    HW1 2995   0.287   2.288   2.851
  923SOL    HW2 2996   0.416   2.376   2.804
  924SOL     OW 2997   1.138   2.242   3.540
  924SOL    HW1 2998   1.093   2.305   3.604
  924SOL    HW2 2999   1.231   2.273   3.523
  925SOL     OW 3000   1.160   2.069   3.339
  925SOL    HW1 3001   1.160   2.133   3.416
  925SOL    HW2 3002   1.188   2.117   3.256
  926SOL     OW 3003   0.008   3.188   2.062
  926SOL    HW1 3004  -0.085   3.209   2.031
  926SOL    HW2 3005   0.018   3.089   2.075
  927SOL     OW 3006   0.088   3.663   2.789
  927SOL    HW1 3007   0.046   3.577   2.762
  927SOL    HW2 3008   0.182   3.666   2.755
  928SOL     OW 3009   0.504   3.430   2.772
  928SOL    HW1 3010   0.570   3.504   2.781
  928SOL    HW2 3011   0.548   3.351   2.730
  929SOL     OW 3012   1.002   2.658   3.100
  929SOL    HW1 3013   1.043   2.626   3.186
  929SOL    HW2 3014   0.906   2.631   3.097
  930SOL     OW 3015   0.040   2.406   2.976
  930SOL    HW1 3016   0.125   2.373   2.935
  930SOL    HW2 3017   0.053   2.421   3.074
  931SOL     OW 3018   0.189   2.382   3.584
  931SOL    HW1 3019   0.248   2.342   3.514
  931SOL    HW2 3020   0.131   2.453   3.543
  932SOL     OW 3021   1.369   2.812   3.522
  932SOL    HW1 3022   1.408   2.901   3.542
  932SOL    HW2 3023   1.379   2.792   3.425
  933SOL     OW 3024   0.815   2.434   2.187
  933SOL    HW1 3025   0.822   2.345   2.141
  933SOL    HW2 3026   0.721   2.468   2.179
  934SOL     OW 3027   1.657   2.466   3.068
  934SOL    HW1 3028   1.619   2.397   3.130
  934SOL    HW2 3029   1.739   2.430   3.024
  935SOL     OW 3030   0.252   3.426   3.606
  935SOL    HW1 3031   0.222   3.483   3.682
  935SOL    HW2 3032   0.245   3.329   3.632
  936SOL     OW 3033   0.671   2.326   3.131
  936SOL    HW1 3034   0.637   2.237   3.101
  936SOL    HW2 3035   0.697   2.380   3.051
  937SOL     OW 3036   0.473   2.362   2.053
  937SOL    HW1 3037   0.534   2.442   2.057
  937SOL    HW2 3038   0.378   2.393   2.060
  938SOL     OW 3039   0.159   2.999   3.328
  938SOL    HW1 3040   0.181   2.938   3.404
  938SOL    HW2 3041   0.169   2.950   3.242
  939SOL     OW 3042   1.347   2.921   3.096
  939SOL    HW1 3043   1.371   2.858   3.022
  939SOL    HW2 3044   1.257   2.961   3.078
  940SOL     OW 3045   1.302   2.717   2.171
  940SOL    HW1 3046   1.216   2.686   2.213
  940SOL    HW2 3047   1.298   2.703   2.072
  941SOL     OW 3048   1.759   3.609   3.016
  941SOL    HW1 3049   1.820   3.639   2.943
  941SOL    HW2 3050   1.721   3.520   2.994
  942SOL     OW 3051   1.252   3.593   2.990
  942SOL    HW1 3052   1.336   3.598   2.936
  942SOL    HW2 3053   1.229   3.497   3.008
  943SOL     OW 3054   0.083   3.120   2.884
  943SOL    HW1 3055   0.078   3.119   2.984
  943SOL    HW2 3056   0.000   3.079   2.846
  944SOL     OW 3057   1.726   1.997   2.385
  944SOL    HW1 3058   1.799   1.980   2.318
  944SOL    HW2 3059   1.695   1.910   2.423
  945SOL     OW 3060   1.388   3.435   2.339
  945SOL    HW1 3061   1.455   3.447   2.265
  945SOL    HW2 3062   1.348   3.524   2.362
  946SOL     OW 3063   0.130   3.656   3.713
  946SOL    HW1 3064   0.089   3.582   3.766
  946SOL    HW2 3065   0.194   3.707   3.771
  947SOL     OW 3066   1.280   2.789   2.534
  947SOL    HW1 3067   1.340   2.708   2.536
  947SOL    HW2 3068   1.320   2.858   2.474
  948SOL     OW 3069   0.830   3.135   3.284
  948SOL    HW1 3070   0.825   3.168   3.379
  948SOL    HW2 3071   0.744   3.154   3.238
  949SOL     OW 3072   0.672   3.478   2.016
  949SOL    HW1 3073   0.681   3.488   1.917
  949SOL    HW2 3074   0.632   3.389   2.037
  950SOL     OW 3075   1.650   3.582   3.256
  950SOL    HW1 3076   1.703   3.592   3.172
  950SOL    HW2 3077   1.623   3.672   3.290
  951SOL     OW 3078   1.841   2.037   2.825
  951SOL    HW1 3079   1.880   1.952   2.789
  951SOL    HW2 3080   1.743   2.039   2.806
  952SOL     OW 3081   0.263   2.188   2.582
  952SOL    HW1 3082   0.184   2.239   2.548
  952SOL    HW2 3083   0.254   2.173   2.680
  953SOL     OW 3084   1.194   3.474   1.893
  953SOL    HW1 3085   1.200   3.381   1.930
  953SOL    HW2 3086   1.135   3.474   1.813
  954SOL     OW 3087   0.822   2.864   3.234
  954SOL    HW1 3088   0.862   2.863   3.142
  954SOL    HW2 3089   0.832   2.956   3.274
  955SOL     OW 3090   0.916   2.772   2.153
  955SOL    HW1 3091   0.979   2.810   2.085
  955SOL    HW2 3092   0.956   2.689   2.192
  956SOL     OW 3093   1.504   3.469   1.906
  956SOL    HW1 3094   1.412   3.506   1.913
  956SOL    HW2 3095   1.542   3.489   1.816
  957SOL     OW 3096   0.372   3.150   3.352
  957SOL    HW1 3097   0.359   3.243   3.318
  957SOL    HW2 3098   0.288   3.098   3.339
  958SOL     OW 3099   1.614   3.154   3.151
  958SOL    HW1 3100   1.674   3.157   3.231
  958SOL    HW2 3101   1.539   3.218   3.164
  959SOL     OW 3102   1.039   2.960   2.558
  959SOL    HW1 3103   0.969   2.913   2.612
  959SOL    HW2 3104   1.098   2.892   2.515
  960SOL     OW 3105   1.014   2.098   2.833
  960SOL    HW1 3106   1.006   2.062   2.740
  960SOL    HW2 3107   1.012   2.022   2.898
  961SOL     OW 3108   0.590   3.349   2.353
  961SOL    HW1 3109   0.632   3.291   2.283
  961SOL    HW2 3110   0.546   3.428   2.309
  962SOL     OW 3111   1.709   2.247   3.243
  962SOL    HW1 3112   1.782   2.316   3.247
  962SOL    HW2 3113   1.737   2.172   3.184
  963SOL     OW 3114   0.255   3.210   2.152
  963SOL    HW1 3115   0.159   3.211   2.125
  963SOL    HW2 3116   0.267   3.263   2.236
  964SOL     OW 3117   0.105   2.875   3.588
  964SOL    HW1 3118   0.028   2.842   3.642
  964SOL    HW2 3119   0.190   2.845   3.630
  965SOL     OW 3120   0.672   2.065   3.351
  965SOL    HW1 3121   0.762   2.049   3.311
  965SOL    HW2 3122   0.680   2.070   3.450
  966SOL     OW 3123   0.075   2.207   1.895
  966SOL    HW1 3124  -0.017   2.179   1.866
  966SOL    HW2 3125   0.106   2.284   1.839
  967SOL     OW 3126   1.440   2.718   3.260
  967SOL    HW1 3127   1.383   2.770   3.197
  967SOL    HW2 3128   1.536   2.730   3.236
  968SOL     OW 3129   0.072   2.028   2.180
  968SOL    HW1 3130   0.055   2.111   2.126
  968SOL    HW2 3131   0.162   1.991   2.158
  969SOL     OW 3132   1.183   3.197   1.981
  969SOL    HW1 3133   1.084   3.186   1.983
  969SOL    HW2 3134   1.217   3.212   2.074
  970SOL     OW 3135   0.613   2.704   3.293
  970SOL    HW1 3136   0.669   2.785   3.276
  970SOL    HW2 3137   0.672   2.624   3.296
  971SOL     OW 3138   1.493   3.629   2.821
  971SOL    HW1 3139   1.526   3.693   2.752
  971SOL    HW2 3140   1.559   3.623   2.896
  972SOL     OW 3141   0.716   2.427   3.570
  972SOL    HW1 3142   0.735   2.492   3.644
  972SOL    HW2 3143   0.776   2.347   3.579
  973SOL     OW 3144   1.450   3.082   3.495
  973SOL    HW1 3145   1.441   3.072   3.594
  973SOL    HW2 3146   1.546   3.075   3.469
  974SOL     OW 3147   0.390   3.603   3.422
  974SOL    HW1 3148   0.299   3.644   3.420
  974SOL    HW2 3149   0.383   3.509   3.454
  975SOL     OW 3150   1.674   2.745   3.116
  975SOL    HW1 3151   1.647   2.656   3.079
  975SOL    HW2 3152   1.675   2.813   3.043
  976SOL     OW 3153   1.225   2.187   2.311
  976SOL    HW1 3154   1.290   2.113   2.300
  976SOL    HW2 3155   1.245   2.237   2.395
  977SOL     OW 3156   0.594   2.607   2.514
  977SOL    HW1 3157   0.644   2.692   2.495
  977SOL    HW2 3158   0.506   2.609   2.466
  978SOL     OW 3159   1.777   2.204   3.504
  978SOL    HW1 3160   1.760   2.235   3.410
  978SOL    HW2 3161   1.693   2.167   3.542
  979SOL     OW 3162   1.730   2.796   3.379
  979SOL    HW1 3163   1.768   2.887   3.394
  979SOL    HW2 3164   1.722   2.779   3.280
  980SOL     OW 3165   0.859   3.236   1.878
  980SOL    HW1 3166   0.813   3.251   1.966
  980SOL    HW2 3167   0.903   3.321   1.848
  981SOL     OW 3168   0.661   3.652   2.815
  981SOL    HW1 3169   0.615   3.740   2.802
  981SOL    HW2 3170   0.760   3.664   2.808
  982SOL     OW 3171   0.859   2.818   2.723
  982SOL    HW1 3172   0.913   2.749   2.771
  982SOL    HW2 3173   0.827   2.887   2.789
  983SOL     OW 3174   1.083   2.846   1.949
  983SOL    HW1 3175   1.060   2.899   1.867
  983SOL    HW2 3176   1.164   2.790   1.930
  984SOL     OW 3177   1.861   3.431   2.713
  984SOL    HW1 3178   1.790   3.419   2.643
  984SOL    HW2 3179   1.862   3.352   2.773
  985SOL     OW 3180   0.221   3.176   3.706
  985SOL    HW1 3181   0.156   3.103   3.685
  985SOL    HW2 3182   0.225   3.190   3.804
  986SOL     OW 3183   0.079   3.102   2.515
  986SOL    HW1 3184   0.078   3.055   2.603
  986SOL    HW2 3185   0.161   3.074   2.464
  987SOL     OW 3186   0.672   3.253   3.486
  987SOL    HW1 3187   0.594   3.203   3.524
  987SOL    HW2 3188   0.669   3.348   3.517
  988SOL     OW 3189   1.824   2.054   3.089
  988SOL    HW1 3190   1.820   1.964   3.133
  988SOL    HW2 3191   1.827   2.043   2.990
  989SOL     OW 3192   0.428   2.286   2.382
  989SOL    HW1 3193   0.458   2.214   2.320
  989SOL    HW2 3194   0.389   2.246   2.465
  990SOL     OW 3195   1.705   3.349   2.966
  990SOL    HW1 3196   1.612   3.324   2.939
  990SOL    HW2 3197   1.731   3.299   3.048
  991SOL     OW 3198   0.317   2.409   3.142
  991SOL    HW1 3199   0.355   2.350   3.214
  991SOL    HW2 3200   0.357   2.383   3.054
  992SOL     OW 3201   0.812   3.448   2.549
  992SOL    HW1 3202   0.844   3.458   2.455
  992SOL    HW2 3203   0.733   3.386   2.551
  993SOL     OW 3204   1.424   2.076   2.974
  993SOL    HW1 3205   1.476   2.011   3.029
  993SOL    HW2 3206   1.375   2.139   3.035
  994SOL     OW 3207   1.001   1.896   3.016
  994SOL    HW1 3208   0.938   1.824   2.985
  994SOL    HW2 3209   1.094   1.860   3.016
  995SOL     OW 3210   0.770   3.192   2.163
  995SOL    HW1 3211   0.724   3.105   2.180
  995SOL    HW2 3212   0.861   3.189   2.204
  996SOL     OW 3213   1.352   1.914   2.030
  996SOL    HW1 3214   1.387   1.873   1.946
  996SOL    HW2 3215   1.262   1.876   2.050
  997SOL     OW 3216   1.300   2.315   2.553
  997SOL    HW1 3217   1.241   2.395   2.557
  997SOL    HW2 3218   1.315   2.280   2.646
  998SOL     OW 3219   1.593   2.083   2.744
  998SOL    HW1 3220   1.509   2.082   2.798
  998SOL    HW2 3221   1.595   2.166   2.688
  999SOL     OW 3222   0.039   2.939   2.162
  999SOL    HW1 3223   0.138   2.928   2.153
  999SOL    HW2 3224  -0.001   2.853   2.194
 1000SOL     OW 3225   0.875   3.508   2.199
 1000SOL    HW1 3226   0.798   3.473   2.145
 1000SOL    HW2 3227   0.843   3.579   2.261
 1001SOL     OW 3228   0.230   2.490   3.837
 1001SOL    HW1 3229   0.137   2.488   3.874
 1001SOL    HW2 3230   0.231   2.451   3.745
 1002SOL     OW 3231   0.225   2.137   4.720
 1002SOL    HW1 3232   0.260   2.120   4.812
 1002SOL    HW2 3233   0.137   2.092   4.708
 1003SOL     OW 3234   0.019   2.230   4.371
 1003SOL    HW1 3235  -0.063   2.273   4.410
 1003SOL    HW2 3236  -0.009   2.157   4.308
 1004SOL     OW 3237   0.569   3.137   4.889
 1004SOL    HW1 3238   0.476   3.130   4.852
 1004SOL    HW2 3239   0.580   3.226   4.933
 1005SOL     OW 3240   1.555   3.373   4.427
 1005SOL    HW1 3241   1.498   3.357   4.508
 1005SOL    HW2 3242   1.496   3.383   4.347
 1006SOL     OW 3243   1.135   2.565   4.441
 1006SOL    HW1 3244   1.192   2.643   4.416
 1006SOL    HW2 3245   1.075   2.591   4.517
 1007SOL     OW 3246   1.755   2.469   3.955
 1007SOL    HW1 3247   1.743   2.456   3.856
 1007SOL    HW2 3248   1.725   2.388   4.004
 1008SOL     OW 3249   0.768   3.006   4.747
 1008SOL    HW1 3250   0.690   3.023   4.807
 1008SOL    HW2 3251   0.802   3.093   4.711
 1009SOL     OW 3252   0.685   2.874   4.389
 1009SOL    HW1 3253   0.754   2.858   4.459
 1009SOL    HW2 3254   0.612   2.931   4.427
 1010SOL     OW 3255   0.335   3.297   4.785
 1010SOL    HW1 3256   0.257   3.266   4.732
 1010SOL    HW2 3257   0.393   3.355   4.728
 1011SOL     OW 3258   1.603   2.309   4.461
 1011SOL    HW1 3259   1.529   2.355   4.411
 1011SOL    HW2 3260   1.654   2.377   4.514
 1012SOL     OW 3261   0.231   3.575   4.207
 1012SOL    HW1 3262   0.265   3.652   4.261
 1012SOL    HW2 3263   0.275   3.575   4.117
 1013SOL     OW 3264   0.230   3.296   4.262
 1013SOL    HW1 3265   0.204   3.392   4.262
 1013SOL    HW2 3266   0.159   3.242   4.307
 1014SOL     OW 3267   0.240   2.953   4.610
 1014SOL    HW1 3268   0.254   2.869   4.662
 1014SOL    HW2 3269   0.185   3.017   4.665
 1015SOL     OW 3270   0.620   3.648   5.163
 1015SOL    HW1 3271   0.528   3.631   5.198
 1015SOL    HW2 3272   0.648   3.740   5.189
 1016SOL     OW 3273   0.606   2.826   3.847
 1016SOL    HW1 3274   0.613   2.910   3.793
 1016SOL    HW2 3275   0.652   2.839   3.935
 1017SOL     OW 3276   0.122   2.505   4.287
 1017SOL    HW1 3277   0.077   2.417   4.304
 1017SOL    HW2 3278   0.121   2.559   4.371
 1018SOL     OW 3279   1.842   3.629   4.083
 1018SOL    HW1 3280   1.896   3.600   4.163
 1018SOL    HW2 3281   1.872   3.719   4.054
 1019SOL     OW 3282   0.027   3.458   3.841
 1019SOL    HW1 3283   0.008   3.362   3.862
 1019SOL    HW2 3284  -0.006   3.516   3.916
 1020SOL     OW 3285   1.689   2.784   4.336
 1020SOL    HW1 3286   1.784   2.755   4.344
 1020SOL    HW2 3287   1.681   2.849   4.261
 1021SOL     OW 3288   1.641   2.970   4.156
 1021SOL    HW1 3289   1.727   2.972   4.104
 1021SOL    HW2 3290   1.655   3.017   4.244
 1022SOL     OW 3291   0.613   3.227   4.450
 1022SOL    HW1 3292   0.564   3.140   4.459
 1022SOL    HW2 3293   0.590   3.270   4.363
 1023SOL     OW 3294   0.809   1.866   4.226
 1023SOL    HW1 3295   0.849   1.957   4.217
 1023SOL    HW2 3296   0.709   1.874   4.232
 1024SOL     OW 3297   0.197   2.838   4.988
 1024SOL    HW1 3298   0.286   2.793   4.974
 1024SOL    HW2 3299   0.124   2.773   4.969
 1025SOL     OW 3300   1.525   2.861   3.914
 1025SOL    HW1 3301   1.462   2.785   3.927
 1025SOL    HW2 3302   1.573   2.879   4.000
 1026SOL     OW 3303   1.466   3.279   4.677
 1026SOL    HW1 3304   1.407   3.285   4.757
 1026SOL    HW2 3305   1.451   3.191   4.631
 1027SOL     OW 3306   1.667   3.576   4.296
 1027SOL    HW1 3307   1.626   3.553   4.208
 1027SOL    HW2 3308   1.649   3.502   4.361
 1028SOL     OW 3309   0.598   2.591   3.994
 1028SOL    HW1 3310   0.622   2.660   3.926
 1028SOL    HW2 3311   0.520   2.624   4.048
 1029SOL     OW 3312   1.281   2.207   4.668
 1029SOL    HW1 3313   1.195   2.157   4.655
 1029SOL    HW2 3314   1.343   2.153   4.724
 1030SOL     OW 3315   1.576   3.524   4.031
 1030SOL    HW1 3316   1.665   3.570   4.034
 1030SOL    HW2 3317   1.555   3.500   3.936
 1031SOL     OW 3318   0.991   2.272   4.966
 1031SOL    HW1 3319   0.914   2.306   5.020
 1031SOL    HW2 3320   0.957   2.221   4.887
 1032SOL     OW 3321   1.041   2.563   4.153
 1032SOL    HW1 3322   1.067   2.559   4.249
 1032SOL    HW2 3323   0.956   2.512   4.139
 1033SOL     OW 3324   0.076   2.673   4.513
 1033SOL    HW1 3325   0.175   2.661   4.522
 1033SOL    HW2 3326   0.052   2.768   4.534
 1034SOL     OW 3327   0.130   3.683   5.295
 1034SOL    HW1 3328   0.120   3.668   5.394
 1034SOL    HW2 3329   0.044   3.719   5.259
 1035SOL     OW 3330   0.865   2.210   3.919
 1035SOL    HW1 3331   0.924   2.273   3.870
 1035SOL    HW2 3332   0.884   2.116   3.890
 1036SOL     OW 3333   1.362   3.006   4.269
 1036SOL    HW1 3334   1.445   2.977   4.221
 1036SOL    HW2 3335   1.313   3.073   4.213
 1037SOL     OW 3336   0.550   2.058   4.609
 1037SOL    HW1 3337   0.545   2.053   4.709
 1037SOL    HW2 3338   0.552   2.154   4.580
 1038SOL     OW 3339   1.008   3.318   4.201
 1038SOL    HW1 3340   0.962   3.390   4.149
 1038SOL    HW2 3341   1.004   3.338   4.299
 1039SOL     OW 3342   0.351   3.663   4.577
 1039SOL    HW1 3343   0.401   3.577   4.583
 1039SOL    HW2 3344   0.416   3.740   4.574
 1040SOL     OW 3345   1.795   2.928   4.597
 1040SOL    HW1 3346   1.733   2.913   4.521
 1040SOL    HW2 3347   1.743   2.939   4.682
 1041SOL     OW 3348   0.321   2.805   3.966
 1041SOL    HW1 3349   0.403   2.844   3.924
 1041SOL    HW2 3350   0.294   2.723   3.917
 1042SOL     OW 3351   1.458   2.597   4.452
 1042SOL    HW1 3352   1.453   2.532   4.527
 1042SOL    HW2 3353   1.538   2.656   4.465
 1043SOL     OW 3354   1.111   3.638   3.961
 1043SOL    HW1 3355   1.051   3.576   4.011
 1043SOL    HW2 3356   1.142   3.594   3.876
 1044SOL     OW 3357   1.632   3.239   3.805
 1044SOL    HW1 3358   1.600   3.333   3.795
 1044SOL    HW2 3359   1.556   3.176   3.793
 1045SOL     OW 3360   0.464   3.605   4.047
 1045SOL    HW1 3361   0.497   3.644   4.133
 1045SOL    HW2 3362   0.540   3.598   3.982
 1046SOL     OW 3363   1.400   1.969   4.150
 1046SOL    HW1 3364   1.376   1.932   4.060
 1046SOL    HW2 3365   1.499   1.985   4.154
 1047SOL     OW 3366   0.249   3.647   4.965
 1047SOL    HW1 3367   0.306   3.582   5.015
 1047SOL    HW2 3368   0.233   3.614   4.872
 1048SOL     OW 3369   0.940   3.560   4.628
 1048SOL    HW1 3370   1.020   3.503   4.649
 1048SOL    HW2 3371   0.891   3.520   4.551
 1049SOL     OW 3372   0.382   2.562   4.204
 1049SOL    HW1 3373   0.427   2.472   4.201
 1049SOL    HW2 3374   0.288   2.551   4.237
 1050SOL     OW 3375   0.614   1.984   3.841
 1050SOL    HW1 3376   0.712   1.962   3.848
 1050SOL    HW2 3377   0.583   1.967   3.748
 1051SOL     OW 3378   0.803   3.264   4.648
 1051SOL    HW1 3379   0.893   3.278   4.606
 1051SOL    HW2 3380   0.732   3.266   4.577
 1052SOL     OW 3381   0.922   2.365   4.623
 1052SOL    HW1 3382   0.897   2.356   4.527
 1052SOL    HW2 3383   0.970   2.283   4.654
 1053SOL     OW 3384   0.539   1.926   4.236
 1053SOL    HW1 3385   0.458   1.927   4.294
 1053SOL    HW2 3386   0.542   2.009   4.181
 1054SOL     OW 3387   1.434   3.050   3.765
 1054SOL    HW1 3388   1.466   2.974   3.822
 1054SOL    HW2 3389   1.342   3.077   3.795
 1055SOL     OW 3390   0.297   1.897   3.895
 1055SOL    HW1 3391   0.346   1.981   3.874
 1055SOL    HW2 3392   0.359   1.832   3.940
 1056SOL     OW 3393   0.935   2.098   4.204
 1056SOL    HW1 3394   0.887   2.139   4.126
 1056SOL    HW2 3395   1.034   2.096   4.185
 1057SOL     OW 3396   1.227   3.432   4.517
 1057SOL    HW1 3397   1.248   3.506   4.452
 1057SOL    HW2 3398   1.295   3.432   4.590
 1058SOL     OW 3399   0.459   3.014   4.465
 1058SOL    HW1 3400   0.388   2.987   4.530
 1058SOL    HW2 3401   0.433   2.986   4.372
 1059SOL     OW 3402   1.271   3.659   4.315
 1059SOL    HW1 3403   1.315   3.723   4.251
 1059SOL    HW2 3404   1.221   3.711   4.385
 1060SOL     OW 3405   1.032   2.411   3.740
 1060SOL    HW1 3406   0.991   2.493   3.701
 1060SOL    HW2 3407   1.096   2.437   3.813
 1061SOL     OW 3408   0.561   2.084   4.871
 1061SOL    HW1 3409   0.599   2.000   4.908
 1061SOL    HW2 3410   0.473   2.103   4.915
 1062SOL     OW 3411   0.866   2.316   4.366
 1062SOL    HW1 3412   0.834   2.388   4.304
 1062SOL    HW2 3413   0.890   2.235   4.313
 1063SOL     OW 3414   1.017   1.901   4.477
 1063SOL    HW1 3415   0.945   1.906   4.408
 1063SOL    HW2 3416   0.993   1.832   4.546
 1064SOL     OW 3417   1.429   3.035   4.591
 1064SOL    HW1 3418   1.374   2.951   4.584
 1064SOL    HW2 3419   1.455   3.064   4.499
 1065SOL     OW 3420   1.466   2.452   4.716
 1065SOL    HW1 3421   1.436   2.357   4.723
 1065SOL    HW2 3422   1.539   2.468   4.782
 1066SOL     OW 3423   1.857   2.695   4.101
 1066SOL    HW1 3424   1.899   2.631   4.165
 1066SOL    HW2 3425   1.819   2.644   4.023
 1067SOL     OW 3426   0.488   3.247   3.898
 1067SOL    HW1 3427   0.401   3.232   3.945
 1067SOL    HW2 3428   0.471   3.273   3.803
 1068SOL     OW 3429   1.664   3.142   4.381
 1068SOL    HW1 3430   1.763   3.150   4.395
 1068SOL    HW2 3431   1.619   3.226   4.412
 1069SOL     OW 3432   1.390   2.437   3.802
 1069SOL    HW1 3433   1.336   2.416   3.883
 1069SOL    HW2 3434   1.481   2.396   3.811
 1070SOL     OW 3435   0.527   2.118   4.052
 1070SOL    HW1 3436   0.554   2.059   3.977
 1070SOL    HW2 3437   0.527   2.213   4.021
 1071SOL     OW 3438   1.111   3.057   4.824
 1071SOL    HW1 3439   1.071   3.101   4.905
 1071SOL    HW2 3440   1.070   3.094   4.741
 1072SOL     OW 3441   1.638   2.961   4.803
 1072SOL    HW1 3442   1.643   3.042   4.862
 1072SOL    HW2 3443   1.552   2.963   4.752
 1073SOL     OW 3444   0.705   2.912   4.092
 1073SOL    HW1 3445   0.691   2.919   4.191
 1073SOL    HW2 3446   0.789   2.861   4.074
 1074SOL     OW 3447   0.410   2.675   4.975
 1074SOL    HW1 3448   0.496   2.687   5.025
 1074SOL    HW2 3449   0.368   2.588   5.002
 1075SOL     OW 3450   1.274   2.248   4.986
 1075SOL    HW1 3451   1.295   2.322   5.050
 1075SOL    HW2 3452   1.185   2.265   4.943
 1076SOL     OW 3453   0.367   2.962   4.225
 1076SOL    HW1 3454   0.360   3.045   4.169
 1076SOL    HW2 3455   0.371   2.882   4.165
 1077SOL     OW 3456   0.566   2.399   4.589
 1077SOL    HW1 3457   0.578   2.465   4.515
 1077SOL    HW2 3458   0.612   2.433   4.672
 1078SOL     OW 3459   1.252   3.210   4.112
 1078SOL    HW1 3460   1.302   3.287   4.152
 1078SOL    HW2 3461   1.157   3.212   4.144
 1079SOL     OW 3462   1.272   3.307   4.866
 1079SOL    HW1 3463   1.319   3.320   4.953
 1079SOL    HW2 3464   1.206   3.233   4.875
 1080SOL     OW 3465   1.582   2.501   4.196
 1080SOL    HW1 3466   1.551   2.562   4.269
 1080SOL    HW2 3467   1.632   2.553   4.127
 1081SOL     OW 3468   0.354   3.372   5.053
 1081SOL    HW1 3469   0.333   3.328   4.966
 1081SOL    HW2 3470   0.451   3.398   5.056
 1082SOL     OW 3471   0.573   2.732   4.753
 1082SOL    HW1 3472   0.617   2.821   4.744
 1082SOL    HW2 3473   0.510   2.732   4.830
 1083SOL     OW 3474   1.360   2.724   4.769
 1083SOL    HW1 3475   1.285   2.724   4.703
 1083SOL    HW2 3476   1.397   2.632   4.778
 1084SOL     OW 3477   1.209   2.387   3.999
 1084SOL    HW1 3478   1.222   2.303   4.053
 1084SOL    HW2 3479   1.180   2.461   4.059
 1085SOL     OW 3480   0.307   2.075   4.955
 1085SOL    HW1 3481   0.284   2.112   5.045
 1085SOL    HW2 3482   0.277   1.980   4.949
 1086SOL     OW 3483   0.037   3.172   5.006
 1086SOL    HW1 3484   0.090   3.123   5.074
 1086SOL    HW2 3485   0.059   3.270   5.011
 1087SOL     OW 3486   0.732   2.496   4.788
 1087SOL    HW1 3487   0.791   2.470   4.712
 1087SOL    HW2 3488   0.704   2.592   4.777
 1088SOL     OW 3489   0.307   1.925   4.342
 1088SOL    HW1 3490   0.296   2.019   4.375
 1088SOL    HW2 3491   0.302   1.862   4.419
 1089SOL     OW 3492   1.622   2.229   4.098
 1089SOL    HW1 3493   1.624   2.153   4.162
 1089SOL    HW2 3494   1.574   2.306   4.138
 1090SOL     OW 3495   1.023   2.628   4.690
 1090SOL    HW1 3496   1.038   2.649   4.786
 1090SOL    HW2 3497   0.993   2.533   4.681
 1091SOL     OW 3498   1.540   2.136   3.849
 1091SOL    HW1 3499   1.479   2.061   3.872
 1091SOL    HW2 3500   1.562   2.188   3.932
 1092SOL     OW 3501   1.303   2.700   3.766
 1092SOL    HW1 3502   1.337   2.607   3.781
 1092SOL    HW2 3503   1.321   2.727   3.671
 1093SOL     OW 3504   1.068   3.195   4.573
 1093SOL    HW1 3505   1.075   3.111   4.518
 1093SOL    HW2 3506   1.130   3.264   4.537
 1094SOL     OW 3507   0.319   2.672   4.673
 1094SOL    HW1 3508   0.412   2.708   4.678
 1094SOL    HW2 3509   0.313   2.587   4.725
 1095SOL     OW 3510   0.339   2.371   4.730
 1095SOL    HW1 3511   0.287   2.288   4.713
 1095SOL    HW2 3512   0.416   2.376   4.666
 1096SOL     OW 3513   1.160   2.069   5.201
 1096SOL    HW1 3514   1.160   2.133   5.278
 1096SOL    HW2 3515   1.188   2.117   5.118
 1097SOL     OW 3516   0.008   3.188   3.924
 1097SOL    HW1 3517  -0.085   3.209   3.893
 1097SOL    HW2 3518   0.018   3.089   3.937
 1098SOL     OW 3519   0.088   3.663   4.651
 1098SOL    HW1 3520   0.046   3.577   4.624
 1098SOL    HW2 3521   0.182   3.666   4.617
 1099SOL     OW 3522   0.504   3.430   4.634
 1099SOL    HW1 3523   0.570   3.504   4.643
 1099SOL    HW2 3524   0.548   3.351   4.592
 1100SOL     OW 3525   1.002   2.658   4.962
 1100SOL    HW1 3526   1.043   2.626   5.048
 1100SOL    HW2 3527   0.906   2.631   4.959
 1101SOL     OW 3528   0.040   2.406   4.838
 1101SOL    HW1 3529   0.125   2.373   4.797
 1101SOL    HW2 3530   0.053   2.421   4.936
 1102SOL     OW 3531   0.815   2.434   4.049
 1102SOL    HW1 3532   0.822   2.345   4.003
 1102SOL    HW2 3533   0.721   2.468   4.041
 1103SOL     OW 3534   1.657   2.466   4.930
 1103SOL    HW1 3535   1.619   2.397   4.992
 1103SOL    HW2 3536   1.739   2.430   4.886
 1104SOL     OW 3537   0.671   2.326   4.993
 1104SOL    HW1 3538   0.637   2.237   4.963
 1104SOL    HW2 3539   0.697   2.380   4.913
 1105SOL     OW 3540   0.930   3.540   5.189
 1105SOL    HW1 3541   0.906   3.522   5.094
 1105SOL    HW2 3542   0.960   3.634   5.199
 1106SOL     OW 3543   0.473   2.362   3.915
 1106SOL    HW1 3544   0.534   2.442   3.919
 1106SOL    HW2 3545   0.378   2.393   3.922
 1107SOL     OW 3546   1.347   2.921   4.958
 1107SOL    HW1 3547   1.371   2.858   4.884
 1107SOL    HW2 3548   1.257   2.961   4.940
 1108SOL     OW 3549   1.302   2.717   4.033
 1108SOL    HW1 3550   1.216   2.686   4.075
 1108SOL    HW2 3551   1.298   2.703   3.934
 1109SOL     OW 3552   1.759   3.609   4.878
 1109SOL    HW1 3553   1.820   3.639   4.805
 1109SOL    HW2 3554   1.721   3.520   4.856
 1110SOL     OW 3555   1.252   3.593   4.852
 1110SOL    HW1 3556   1.336   3.598   4.798
 1110SOL    HW2 3557   1.229   3.497   4.870
 1111SOL     OW 3558   0.083   3.120   4.746
 1111SOL    HW1 3559   0.078   3.119   4.846
 1111SOL    HW2 3560   0.000   3.079   4.708
 1112SOL     OW 3561   1.726   1.997   4.247
 1112SOL    HW1 3562   1.799   1.980   4.180
 1112SOL    HW2 3563   1.695   1.910   4.285
 1113SOL     OW 3564   1.388   3.435   4.201
 1113SOL    HW1 3565   1.455   3.447   4.127
 1113SOL    HW2 3566   1.348   3.524   4.224
 1114SOL     OW 3567   1.280   2.789   4.396
 1114SOL    HW1 3568   1.340   2.708   4.398
 1114SOL    HW2 3569   1.320   2.858   4.336
 1115SOL     OW 3570   0.672   3.478   3.878
 1115SOL    HW1 3571   0.681   3.488   3.779
 1115SOL    HW2 3572   0.632   3.389   3.899
 1116SOL     OW 3573   1.650   3.582   5.118
 1116SOL    HW1 3574   1.703   3.592   5.034
 1116SOL    HW2 3575   1.623   3.672   5.152
 1117SOL     OW 3576   1.841   2.037   4.687
 1117SOL    HW1 3577   1.880   1.952   4.651
 1117SOL    HW2 3578   1.743   2.039   4.668
 1118SOL     OW 3579   0.263   2.188   4.444
 1118SOL    HW1 3580   0.184   2.239   4.410
 1118SOL    HW2 3581   0.254   2.173   4.542
 1119SOL     OW 3582   1.194   3.474   3.755
 1119SOL    HW1 3583   1.200   3.381   3.792
 1119SOL    HW2 3584   1.135   3.474   3.675
 1120SOL     OW 3585   0.822   2.864   5.096
 1120SOL    HW1 3586   0.862   2.863   5.004
 1120SOL    HW2 3587   0.832   2.956   5.136
 1121SOL     OW 3588   0.916   2.772   4.015
 1121SOL    HW1 3589   0.979   2.810   3.947
 1121SOL    HW2 3590   0.956   2.689   4.054
 1122SOL     OW 3591   1.504   3.469   3.768
 1122SOL    HW1 3592   1.412   3.506   3.775
 1122SOL    HW2 3593   1.542   3.489   3.678
 1123SOL     OW 3594   1.039   2.960   4.420
 1123SOL    HW1 3595   0.969   2.913   4.474
 1123SOL    HW2 3596   1.098   2.892   4.377
 1124SOL     OW 3597   1.014   2.098   4.695
 1124SOL    HW1 3598   1.006   2.062   4.602
 1124SOL    HW2 3599   1.012   2.022   4.760
 1125SOL     OW 3600   0.590   3.349   4.215
 1125SOL    HW1 3601   0.632   3.291   4.145
 1125SOL    HW2 3602   0.546   3.428   4.171
 1126SOL     OW 3603   1.709   2.247   5.105
 1126SOL    HW1 3604   1.782   2.316   5.109
 1126SOL    HW2 3605   1.737   2.172   5.046
 1127SOL     OW 3606   0.255   3.210   4.014
 1127SOL    HW1 3607   0.159   3.211   3.987
 1127SOL    HW2 3608   0.267   3.263   4.098
 1128SOL     OW 3609   0.075   2.207   3.757
 1128SOL    HW1 3610  -0.017   2.179   3.728
 1128SOL    HW2 3611   0.106   2.284   3.701
 1129SOL     OW 3612   0.072   2.028   4.042
 1129SOL    HW1 3613   0.055   2.111   3.988
 1129SOL    HW2 3614   0.162   1.991   4.020
 1130SOL     OW 3615   1.183   3.197   3.843
 1130SOL    HW1 3616   1.084   3.186   3.845
 1130SOL    HW2 3617   1.217   3.212   3.936
 1131SOL     OW 3618   1.493   3.629   4.683
 1131SOL    HW1 3619   1.526   3.693   4.614
 1131SOL    HW2 3620   1.559   3.623   4.758
 1132SOL     OW 3621   1.450   3.082   5.357
 1132SOL    HW1 3622   1.441   3.072   5.456
 1132SOL    HW2 3623   1.546   3.075   5.331
 1133SOL     OW 3624   1.674   2.745   4.978
 1133SOL    HW1 3625   1.647   2.656   4.941
 1133SOL    HW2 3626   1.675   2.813   4.905
 1134SOL     OW 3627   1.225   2.187   4.173
 1134SOL    HW1 3628   1.290   2.113   4.162
 1134SOL    HW2 3629   1.245   2.237   4.257
 1135SOL     OW 3630   0.594   2.607   4.376
 1135SOL    HW1 3631   0.644   2.692   4.357
 1135SOL    HW2 3632   0.506   2.609   4.328
 1136SOL     OW 3633   1.730   2.796   5.241
 1136SOL    HW1 3634   1.768   2.887   5.256
 1136SOL    HW2 3635   1.722   2.779   5.142
 1137SOL     OW 3636   0.859   3.236   3.740
 1137SOL    HW1 3637   0.813   3.251   3.828
 1137SOL    HW2 3638   0.903   3.321   3.710
 1138SOL     OW 3639   0.661   3.652   4.677
 1138SOL    HW1 3640   0.615   3.740   4.664
 1138SOL    HW2 3641   0.760   3.664   4.670
 1139SOL     OW 3642   0.859   2.818   4.585
 1139SOL    HW1 3643   0.913   2.749   4.633
 1139SOL    HW2 3644   0.827   2.887   4.651
 1140SOL     OW 3645   1.083   2.846   3.811
 1140SOL    HW1 3646   1.060   2.899   3.729
 1140SOL    HW2 3647   1.164   2.790   3.792
 1141SOL     OW 3648   1.861   3.431   4.575
 1141SOL    HW1 3649   1.790   3.419   4.505
 1141SOL    HW2 3650   1.862   3.352   4.635
 1142SOL     OW 3651   0.079   3.102   4.377
 1142SOL    HW1 3652   0.078   3.055   4.465
 1142SOL    HW2 3653   0.161   3.074   4.326
 1143SOL     OW 3654   1.824   2.054   4.951
 1143SOL    HW1 3655   1.820   1.964   4.995
 1143SOL    HW2 3656   1.827   2.043   4.852
 1144SOL     OW 3657   0.428   2.286   4.244
 1144SOL    HW1 3658   0.458   2.214   4.182
 1144SOL    HW2 3659   0.389   2.246   4.327
 1145SOL     OW 3660   1.705   3.349   4.828
 1145SOL    HW1 3661   1.612   3.324   4.801
 1145SOL    HW2 3662   1.731   3.299   4.910
 1146SOL     OW 3663   0.812   3.448   4.411
 1146SOL    HW1 3664   0.844   3.458   4.317
 1146SOL    HW2 3665   0.733   3.386   4.413
 1147SOL     OW 3666   1.424   2.076   4.836
 1147SOL    HW1 3667   1.476   2.011   4.891
 1147SOL    HW2 3668   1.375   2.139   4.897
 1148SOL     OW 3669   1.001   1.896   4.878
 1148SOL    HW1 3670   0.938   1.824   4.847
 1148SOL    HW2 3671   1.094   1.860   4.878
 1149SOL     OW 3672   0.770   3.192   4.025
 1149SOL    HW1 3673   0.724   3.105   4.042
 1149SOL    HW2 3674   0.861   3.189   4.066
 1150SOL     OW 3675   1.352   1.914   3.892
 1150SOL    HW1 3676   1.387   1.873   3.808
 1150SOL    HW2 3677   1.262   1.876   3.912
 1151SOL     OW 3678   1.300   2.315   4.415
 1151SOL    HW1 3679   1.241   2.395   4.419
 1151SOL    HW2 3680   1.315   2.280   4.508
 1152SOL     OW 3681   1.593   2.083   4.606
 1152SOL    HW1 3682   1.509   2.082   4.660
 1152SOL    HW2 3683   1.595   2.166   4.550
 1153SOL     OW 3684   0.039   2.939   4.024
 1153SOL    HW1 3685   0.138   2.928   4.015
 1153SOL    HW2 3686  -0.001   2.853   4.056
 1154SOL     OW 3687   0.875   3.508   4.061
 1154SOL    HW1 3688   0.798   3.473   4.007
 1154SOL    HW2 3689   0.843   3.579   4.123
 1155SOL     OW 3690   0.230   4.352   0.113
 1155SOL    HW1 3691   0.137   4.350   0.150
 1155SOL    HW2 3692   0.231   4.313   0.021
 1156SOL     OW 3693   0.225   3.999   0.996
 1156SOL    HW1 3694   0.260   3.982   1.088
 1156SOL    HW2 3695   0.137   3.954   0.984
 1157SOL     OW 3696   0.019   4.092   0.647
 1157SOL    HW1 3697  -0.063   4.135   0.686
 1157SOL    HW2 3698  -0.009   4.019   0.584
 1158SOL     OW 3699   0.569   4.999   1.165
 1158SOL    HW1 3700   0.476   4.992   1.128
 1158SOL    HW2 3701   0.580   5.088   1.209
 1159SOL     OW 3702   1.555   5.235   0.703
 1159SOL    HW1 3703   1.498   5.219   0.784
 1159SOL    HW2 3704   1.496   5.245   0.623
 1160SOL     OW 3705   1.135   4.427   0.717
 1160SOL    HW1 3706   1.192   4.505   0.692
 1160SOL    HW2 3707   1.075   4.453   0.793
 1161SOL     OW 3708   1.755   4.331   0.231
 1161SOL    HW1 3709   1.743   4.318   0.132
 1161SOL    HW2 3710   1.725   4.250   0.280
 1162SOL     OW 3711   0.768   4.868   1.023
 1162SOL    HW1 3712   0.690   4.885   1.083
 1162SOL    HW2 3713   0.802   4.955   0.987
 1163SOL     OW 3714   0.850   4.522   1.823
 1163SOL    HW1 3715   0.846   4.598   1.888
 1163SOL    HW2 3716   0.872   4.558   1.732
 1164SOL     OW 3717   0.685   4.736   0.665
 1164SOL    HW1 3718   0.754   4.720   0.735
 1164SOL    HW2 3719   0.612   4.793   0.703
 1165SOL     OW 3720   0.686   4.885   1.803
 1165SOL    HW1 3721   0.746   4.964   1.817
 1165SOL    HW2 3722   0.600   4.916   1.762
 1166SOL     OW 3723   0.335   5.159   1.061
 1166SOL    HW1 3724   0.257   5.128   1.008
 1166SOL    HW2 3725   0.393   5.217   1.004
 1167SOL     OW 3726   0.438   4.116   1.499
 1167SOL    HW1 3727   0.520   4.060   1.508
 1167SOL    HW2 3728   0.357   4.058   1.503
 1168SOL     OW 3729   1.603   4.171   0.737
 1168SOL    HW1 3730   1.529   4.217   0.687
 1168SOL    HW2 3731   1.654   4.239   0.790
 1169SOL     OW 3732   0.240   4.815   0.886
 1169SOL    HW1 3733   0.254   4.731   0.938
 1169SOL    HW2 3734   0.185   4.879   0.941
 1170SOL     OW 3735   0.606   4.688   0.123
 1170SOL    HW1 3736   0.613   4.772   0.069
 1170SOL    HW2 3737   0.652   4.701   0.211
 1171SOL     OW 3738   1.594   3.838   1.480
 1171SOL    HW1 3739   1.576   3.905   1.408
 1171SOL    HW2 3740   1.591   3.884   1.569
 1172SOL     OW 3741   0.122   4.367   0.563
 1172SOL    HW1 3742   0.077   4.279   0.580
 1172SOL    HW2 3743   0.121   4.421   0.647
 1173SOL     OW 3744   1.689   4.646   0.612
 1173SOL    HW1 3745   1.784   4.617   0.620
 1173SOL    HW2 3746   1.681   4.711   0.537
 1174SOL     OW 3747   1.641   4.832   0.432
 1174SOL    HW1 3748   1.727   4.834   0.380
 1174SOL    HW2 3749   1.655   4.879   0.520
 1175SOL     OW 3750   0.113   4.461   1.597
 1175SOL    HW1 3751   0.201   4.448   1.642
 1175SOL    HW2 3752   0.100   4.558   1.575
 1176SOL     OW 3753   1.293   4.952   1.423
 1176SOL    HW1 3754   1.330   4.879   1.365
 1176SOL    HW2 3755   1.345   4.957   1.508
 1177SOL     OW 3756   0.809   3.728   0.502
 1177SOL    HW1 3757   0.849   3.819   0.493
 1177SOL    HW2 3758   0.709   3.736   0.508
 1178SOL     OW 3759   0.197   4.700   1.264
 1178SOL    HW1 3760   0.286   4.655   1.250
 1178SOL    HW2 3761   0.124   4.635   1.245
 1179SOL     OW 3762   1.525   4.723   0.190
 1179SOL    HW1 3763   1.462   4.647   0.203
 1179SOL    HW2 3764   1.573   4.741   0.276
 1180SOL     OW 3765   0.317   3.975   1.801
 1180SOL    HW1 3766   0.388   4.046   1.807
 1180SOL    HW2 3767   0.229   4.014   1.829
 1181SOL     OW 3768   1.466   5.141   0.953
 1181SOL    HW1 3769   1.407   5.147   1.033
 1181SOL    HW2 3770   1.451   5.053   0.907
 1182SOL     OW 3771   0.598   4.453   0.270
 1182SOL    HW1 3772   0.622   4.522   0.202
 1182SOL    HW2 3773   0.520   4.486   0.324
 1183SOL     OW 3774   1.281   4.069   0.944
 1183SOL    HW1 3775   1.195   4.019   0.931
 1183SOL    HW2 3776   1.343   4.015   1.000
 1184SOL     OW 3777   0.807   4.329   1.465
 1184SOL    HW1 3778   0.760   4.326   1.554
 1184SOL    HW2 3779   0.756   4.274   1.399
 1185SOL     OW 3780   1.394   4.193   1.674
 1185SOL    HW1 3781   1.374   4.236   1.762
 1185SOL    HW2 3782   1.472   4.131   1.683
 1186SOL     OW 3783   0.973   4.614   1.572
 1186SOL    HW1 3784   1.019   4.530   1.543
 1186SOL    HW2 3785   0.917   4.648   1.497
 1187SOL     OW 3786   0.991   4.134   1.242
 1187SOL    HW1 3787   0.914   4.168   1.296
 1187SOL    HW2 3788   0.957   4.083   1.163
 1188SOL     OW 3789   1.041   4.425   0.429
 1188SOL    HW1 3790   1.067   4.421   0.525
 1188SOL    HW2 3791   0.956   4.374   0.415
 1189SOL     OW 3792   0.076   4.535   0.789
 1189SOL    HW1 3793   0.175   4.523   0.798
 1189SOL    HW2 3794   0.052   4.630   0.810
 1190SOL     OW 3795   0.865   4.072   0.195
 1190SOL    HW1 3796   0.924   4.135   0.146
 1190SOL    HW2 3797   0.884   3.978   0.166
 1191SOL     OW 3798   1.719   4.309   1.831
 1191SOL    HW1 3799   1.693   4.398   1.795
 1191SOL    HW2 3800   1.717   4.241   1.758
 1192SOL     OW 3801   1.362   4.868   0.545
 1192SOL    HW1 3802   1.445   4.839   0.497
 1192SOL    HW2 3803   1.313   4.935   0.489
 1193SOL     OW 3804   0.550   3.920   0.885
 1193SOL    HW1 3805   0.545   3.915   0.985
 1193SOL    HW2 3806   0.552   4.016   0.856
 1194SOL     OW 3807   1.795   4.790   0.873
 1194SOL    HW1 3808   1.733   4.775   0.797
 1194SOL    HW2 3809   1.743   4.801   0.958
 1195SOL     OW 3810   0.321   4.667   0.242
 1195SOL    HW1 3811   0.403   4.706   0.200
 1195SOL    HW2 3812   0.294   4.585   0.193
 1196SOL     OW 3813   1.458   4.459   0.728
 1196SOL    HW1 3814   1.453   4.394   0.803
 1196SOL    HW2 3815   1.538   4.518   0.741
 1197SOL     OW 3816   0.202   4.009   1.498
 1197SOL    HW1 3817   0.122   4.069   1.485
 1197SOL    HW2 3818   0.192   3.960   1.584
 1198SOL     OW 3819   1.632   5.101   0.081
 1198SOL    HW1 3820   1.600   5.195   0.071
 1198SOL    HW2 3821   1.556   5.038   0.069
 1199SOL     OW 3822   1.400   3.831   0.426
 1199SOL    HW1 3823   1.376   3.794   0.336
 1199SOL    HW2 3824   1.499   3.847   0.430
 1200SOL     OW 3825   0.382   4.424   0.480
 1200SOL    HW1 3826   0.427   4.334   0.477
 1200SOL    HW2 3827   0.288   4.413   0.513
 1201SOL     OW 3828   1.547   3.946   1.729
 1201SOL    HW1 3829   1.542   3.983   1.821
 1201SOL    HW2 3830   1.475   3.877   1.717
 1202SOL     OW 3831   0.781   3.988   1.749
 1202SOL    HW1 3832   0.848   3.927   1.792
 1202SOL    HW2 3833   0.708   4.007   1.814
 1203SOL     OW 3834   1.351   4.314   1.433
 1203SOL    HW1 3835   1.379   4.271   1.518
 1203SOL    HW2 3836   1.376   4.410   1.434
 1204SOL     OW 3837   0.803   5.126   0.924
 1204SOL    HW1 3838   0.893   5.140   0.882
 1204SOL    HW2 3839   0.732   5.128   0.853
 1205SOL     OW 3840   0.922   4.227   0.899
 1205SOL    HW1 3841   0.897   4.218   0.803
 1205SOL    HW2 3842   0.970   4.145   0.930
 1206SOL     OW 3843   0.539   3.788   0.512
 1206SOL    HW1 3844   0.458   3.789   0.570
 1206SOL    HW2 3845   0.542   3.871   0.457
 1207SOL     OW 3846   1.434   4.912   0.041
 1207SOL    HW1 3847   1.466   4.836   0.098
 1207SOL    HW2 3848   1.342   4.939   0.071
 1208SOL     OW 3849   0.297   3.759   0.171
 1208SOL    HW1 3850   0.346   3.843   0.150
 1208SOL    HW2 3851   0.359   3.694   0.216
 1209SOL     OW 3852   0.935   3.960   0.480
 1209SOL    HW1 3853   0.887   4.001   0.402
 1209SOL    HW2 3854   1.034   3.958   0.461
 1210SOL     OW 3855   1.076   4.407   1.464
 1210SOL    HW1 3856   0.996   4.346   1.467
 1210SOL    HW2 3857   1.157   4.354   1.440
 1211SOL     OW 3858   1.227   5.294   0.793
 1211SOL    HW1 3859   1.248   5.368   0.728
 1211SOL    HW2 3860   1.295   5.294   0.866
 1212SOL     OW 3861   0.459   4.876   0.741
 1212SOL    HW1 3862   0.388   4.849   0.806
 1212SOL    HW2 3863   0.433   4.848   0.648
 1213SOL     OW 3864   1.032   4.273   0.016
 1213SOL    HW1 3865   0.991   4.355  -0.023
 1213SOL    HW2 3866   1.096   4.299   0.089
 1214SOL     OW 3867   0.078   4.280   1.386
 1214SOL    HW1 3868   0.170   4.279   1.345
 1214SOL    HW2 3869   0.072   4.354   1.453
 1215SOL     OW 3870   0.561   3.946   1.147
 1215SOL    HW1 3871   0.599   3.862   1.184
 1215SOL    HW2 3872   0.473   3.965   1.191
 1216SOL     OW 3873   0.866   4.178   0.642
 1216SOL    HW1 3874   0.834   4.250   0.580
 1216SOL    HW2 3875   0.890   4.097   0.589
 1217SOL     OW 3876   1.017   3.763   0.753
 1217SOL    HW1 3877   0.945   3.768   0.684
 1217SOL    HW2 3878   0.993   3.694   0.822
 1218SOL     OW 3879   1.429   4.897   0.867
 1218SOL    HW1 3880   1.374   4.813   0.860
 1218SOL    HW2 3881   1.455   4.926   0.775
 1219SOL     OW 3882   1.466   4.314   0.992
 1219SOL    HW1 3883   1.436   4.219   0.999
 1219SOL    HW2 3884   1.539   4.330   1.058
 1220SOL     OW 3885   1.857   4.557   0.377
 1220SOL    HW1 3886   1.899   4.493   0.441
 1220SOL    HW2 3887   1.819   4.506   0.299
 1221SOL     OW 3888   1.664   5.004   0.657
 1221SOL    HW1 3889   1.763   5.012   0.671
 1221SOL    HW2 3890   1.619   5.088   0.688
 1222SOL     OW 3891   1.390   4.299   0.078
 1222SOL    HW1 3892   1.336   4.278   0.159
 1222SOL    HW2 3893   1.481   4.258   0.087
 1223SOL     OW 3894   0.527   3.980   0.328
 1223SOL    HW1 3895   0.554   3.921   0.253
 1223SOL    HW2 3896   0.527   4.075   0.297
 1224SOL     OW 3897   1.754   4.947   1.588
 1224SOL    HW1 3898   1.845   4.908   1.575
 1224SOL    HW2 3899   1.762   5.043   1.612
 1225SOL     OW 3900   1.638   4.823   1.079
 1225SOL    HW1 3901   1.643   4.904   1.138
 1225SOL    HW2 3902   1.552   4.825   1.028
 1226SOL     OW 3903   0.915   3.813   1.402
 1226SOL    HW1 3904   0.940   3.793   1.307
 1226SOL    HW2 3905   0.987   3.869   1.444
 1227SOL     OW 3906   0.980   4.840   1.719
 1227SOL    HW1 3907   0.881   4.846   1.729
 1227SOL    HW2 3908   1.003   4.760   1.663
 1228SOL     OW 3909   0.705   4.774   0.368
 1228SOL    HW1 3910   0.691   4.781   0.467
 1228SOL    HW2 3911   0.789   4.723   0.350
 1229SOL     OW 3912   0.410   4.537   1.251
 1229SOL    HW1 3913   0.496   4.549   1.301
 1229SOL    HW2 3914   0.368   4.450   1.278
 1230SOL     OW 3915   1.274   4.110   1.262
 1230SOL    HW1 3916   1.295   4.184   1.326
 1230SOL    HW2 3917   1.185   4.127   1.219
 1231SOL     OW 3918   0.367   4.824   0.501
 1231SOL    HW1 3919   0.360   4.907   0.445
 1231SOL    HW2 3920   0.371   4.744   0.441
 1232SOL     OW 3921   0.566   4.261   0.865
 1232SOL    HW1 3922   0.578   4.327   0.791
 1232SOL    HW2 3923   0.612   4.295   0.948
 1233SOL     OW 3924   1.582   4.363   0.472
 1233SOL    HW1 3925   1.551   4.424   0.545
 1233SOL    HW2 3926   1.632   4.415   0.403
 1234SOL     OW 3927   0.402   4.475   1.598
 1234SOL    HW1 3928   0.470   4.530   1.551
 1234SOL    HW2 3929   0.442   4.387   1.625
 1235SOL     OW 3930   1.587   4.503   1.670
 1235SOL    HW1 3931   1.495   4.541   1.665
 1235SOL    HW2 3932   1.647   4.550   1.605
 1236SOL     OW 3933   1.013   3.829   1.770
 1236SOL    HW1 3934   1.019   3.914   1.718
 1236SOL    HW2 3935   1.045   3.753   1.713
 1237SOL     OW 3936   0.504   3.774   1.740
 1237SOL    HW1 3937   0.462   3.717   1.670
 1237SOL    HW2 3938   0.438   3.843   1.772
 1238SOL     OW 3939   0.573   4.594   1.029
 1238SOL    HW1 3940   0.617   4.683   1.020
 1238SOL    HW2 3941   0.510   4.594   1.106
 1239SOL     OW 3942   1.360   4.586   1.045
 1239SOL    HW1 3943   1.285   4.586   0.979
 1239SOL    HW2 3944   1.397   4.494   1.054
 1240SOL     OW 3945   1.209   4.249   0.275
 1240SOL    HW1 3946   1.222   4.165   0.329
 1240SOL    HW2 3947   1.180   4.323   0.335
 1241SOL     OW 3948   0.307   3.937   1.231
 1241SOL    HW1 3949   0.284   3.974   1.321
 1241SOL    HW2 3950   0.277   3.842   1.225
 1242SOL     OW 3951   0.037   5.034   1.282
 1242SOL    HW1 3952   0.090   4.985   1.350
 1242SOL    HW2 3953   0.059   5.132   1.287
 1243SOL     OW 3954   0.732   4.358   1.064
 1243SOL    HW1 3955   0.791   4.332   0.988
 1243SOL    HW2 3956   0.704   4.454   1.053
 1244SOL     OW 3957   1.728   4.659   1.854
 1244SOL    HW1 3958   1.682   4.652   1.765
 1244SOL    HW2 3959   1.666   4.703   1.920
 1245SOL     OW 3960   0.307   3.787   0.618
 1245SOL    HW1 3961   0.296   3.881   0.651
 1245SOL    HW2 3962   0.302   3.724   0.695
 1246SOL     OW 3963   1.622   4.091   0.374
 1246SOL    HW1 3964   1.624   4.015   0.438
 1246SOL    HW2 3965   1.574   4.168   0.414
 1247SOL     OW 3966   1.023   4.490   0.966
 1247SOL    HW1 3967   1.038   4.511   1.062
 1247SOL    HW2 3968   0.993   4.395   0.957
 1248SOL     OW 3969   1.859   5.242   1.605
 1248SOL    HW1 3970   1.873   5.269   1.510
 1248SOL    HW2 3971   1.942   5.264   1.658
 1249SOL     OW 3972   0.350   4.622   1.804
 1249SOL    HW1 3973   0.426   4.666   1.852
 1249SOL    HW2 3974   0.385   4.575   1.722
 1250SOL     OW 3975   1.540   3.998   0.125
 1250SOL    HW1 3976   1.479   3.923   0.148
 1250SOL    HW2 3977   1.562   4.050   0.208
 1251SOL     OW 3978   1.303   4.562   0.042
 1251SOL    HW1 3979   1.337   4.469   0.057
 1251SOL    HW2 3980   1.321   4.589  -0.053
 1252SOL     OW 3981   0.319   4.534   0.949
 1252SOL    HW1 3982   0.412   4.570   0.954
 1252SOL    HW2 3983   0.313   4.449   1.001
 1253SOL     OW 3984   0.339   4.233   1.006
 1253SOL    HW1 3985   0.287   4.150   0.989
 1253SOL    HW2 3986   0.416   4.238   0.942
 1254SOL     OW 3987   1.138   4.104   1.678
 1254SOL    HW1 3988   1.093   4.167   1.742
 1254SOL    HW2 3989   1.231   4.135   1.661
 1255SOL     OW 3990   1.160   3.931   1.477
 1255SOL    HW1 3991   1.160   3.995   1.554
 1255SOL    HW2 3992   1.188   3.979   1.394
 1256SOL     OW 3993   0.008   5.050   0.200
 1256SOL    HW1 3994  -0.085   5.071   0.169
 1256SOL    HW2 3995   0.018   4.951   0.213
 1257SOL     OW 3996   1.002   4.520   1.238
 1257SOL    HW1 3997   1.043   4.488   1.324
 1257SOL    HW2 3998   0.906   4.493   1.235
 1258SOL     OW 3999   0.040   4.268   1.114
 1258SOL    HW1 4000   0.125   4.235   1.073
 1258SOL    HW2 4001   0.053   4.283   1.212
 1259SOL     OW 4002   0.189   4.244   1.722
 1259SOL    HW1 4003   0.248   4.204   1.652
 1259SOL    HW2 4004   0.131   4.315   1.681
 1260SOL     OW 4005   1.369   4.674   1.660
 1260SOL    HW1 4006   1.408   4.763   1.680
 1260SOL    HW2 4007   1.379   4.654   1.563
 1261SOL     OW 4008   0.815   4.296   0.325
 1261SOL    HW1 4009   0.822   4.207   0.279
 1261SOL    HW2 4010   0.721   4.330   0.317
 1262SOL     OW 4011   1.657   4.328   1.206
 1262SOL    HW1 4012   1.619   4.259   1.268
 1262SOL    HW2 4013   1.739   4.292   1.162
 1263SOL     OW 4014   0.671   4.188   1.269
 1263SOL    HW1 4015   0.637   4.099   1.239
 1263SOL    HW2 4016   0.697   4.242   1.189
 1264SOL     OW 4017   0.473   4.224   0.191
 1264SOL    HW1 4018   0.534   4.304   0.195
 1264SOL    HW2 4019   0.378   4.255   0.198
 1265SOL     OW 4020   0.159   4.861   1.466
 1265SOL    HW1 4021   0.181   4.800   1.542
 1265SOL    HW2 4022   0.169   4.812   1.380
 1266SOL     OW 4023   1.347   4.783   1.234
 1266SOL    HW1 4024   1.371   4.720   1.160
 1266SOL    HW2 4025   1.257   4.823   1.216
 1267SOL     OW 4026   1.302   4.579   0.309
 1267SOL    HW1 4027   1.216   4.548   0.351
 1267SOL    HW2 4028   1.298   4.565   0.210
 1268SOL     OW 4029   0.083   4.982   1.022
 1268SOL    HW1 4030   0.078   4.981   1.122
 1268SOL    HW2 4031   0.000   4.941   0.984
 1269SOL     OW 4032   0.903   3.810   0.133
 1269SOL    HW1 4033   0.954   3.811   0.047
 1269SOL    HW2 4034   0.959   3.768   0.204
 1270SOL     OW 4035   1.726   3.859   0.523
 1270SOL    HW1 4036   1.799   3.842   0.456
 1270SOL    HW2 4037   1.695   3.772   0.561
 1271SOL     OW 4038   1.280   4.651   0.672
 1271SOL    HW1 4039   1.340   4.570   0.674
 1271SOL    HW2 4040   1.320   4.720   0.612
 1272SOL     OW 4041   0.830   4.997   1.422
 1272SOL    HW1 4042   0.825   5.030   1.517
 1272SOL    HW2 4043   0.744   5.016   1.376
 1273SOL     OW 4044   1.841   3.899   0.963
 1273SOL    HW1 4045   1.880   3.814   0.927
 1273SOL    HW2 4046   1.743   3.901   0.944
 1274SOL     OW 4047   0.263   4.050   0.720
 1274SOL    HW1 4048   0.184   4.101   0.686
 1274SOL    HW2 4049   0.254   4.035   0.818
 1275SOL     OW 4050   0.822   4.726   1.372
 1275SOL    HW1 4051   0.862   4.725   1.280
 1275SOL    HW2 4052   0.832   4.818   1.412
 1276SOL     OW 4053   0.916   4.634   0.291
 1276SOL    HW1 4054   0.979   4.672   0.223
 1276SOL    HW2 4055   0.956   4.551   0.330
 1277SOL     OW 4056   0.372   5.012   1.490
 1277SOL    HW1 4057   0.359   5.105   1.456
 1277SOL    HW2 4058   0.288   4.960   1.477
 1278SOL     OW 4059   1.614   5.016   1.289
 1278SOL    HW1 4060   1.674   5.019   1.369
 1278SOL    HW2 4061   1.539   5.080   1.302
 1279SOL     OW 4062   1.039   4.822   0.696
 1279SOL    HW1 4063   0.969   4.775   0.750
 1279SOL    HW2 4064   1.098   4.754   0.653
 1280SOL     OW 4065   1.014   3.960   0.971
 1280SOL    HW1 4066   1.006   3.924   0.878
 1280SOL    HW2 4067   1.012   3.884   1.036
 1281SOL     OW 4068   1.709   4.109   1.381
 1281SOL    HW1 4069   1.782   4.178   1.385
 1281SOL    HW2 4070   1.737   4.034   1.322
 1282SOL     OW 4071   0.105   4.737   1.726
 1282SOL    HW1 4072   0.028   4.704   1.780
 1282SOL    HW2 4073   0.190   4.707   1.768
 1283SOL     OW 4074   0.672   3.927   1.489
 1283SOL    HW1 4075   0.762   3.911   1.449
 1283SOL    HW2 4076   0.680   3.932   1.588
 1284SOL     OW 4077   0.075   4.069   0.033
 1284SOL    HW1 4078  -0.017   4.041   0.004
 1284SOL    HW2 4079   0.106   4.146  -0.023
 1285SOL     OW 4080   1.440   4.580   1.398
 1285SOL    HW1 4081   1.383   4.632   1.335
 1285SOL    HW2 4082   1.536   4.592   1.374
 1286SOL     OW 4083   0.072   3.890   0.318
 1286SOL    HW1 4084   0.055   3.973   0.264
 1286SOL    HW2 4085   0.162   3.853   0.296
 1287SOL     OW 4086   0.613   4.566   1.431
 1287SOL    HW1 4087   0.669   4.647   1.414
 1287SOL    HW2 4088   0.672   4.486   1.434
 1288SOL     OW 4089   0.716   4.289   1.708
 1288SOL    HW1 4090   0.735   4.354   1.782
 1288SOL    HW2 4091   0.776   4.209   1.717
 1289SOL     OW 4092   1.450   4.944   1.633
 1289SOL    HW1 4093   1.441   4.934   1.732
 1289SOL    HW2 4094   1.546   4.937   1.607
 1290SOL     OW 4095   1.674   4.607   1.254
 1290SOL    HW1 4096   1.647   4.518   1.217
 1290SOL    HW2 4097   1.675   4.675   1.181
 1291SOL     OW 4098   1.225   4.049   0.449
 1291SOL    HW1 4099   1.290   3.975   0.438
 1291SOL    HW2 4100   1.245   4.099   0.533
 1292SOL     OW 4101   0.594   4.469   0.652
 1292SOL    HW1 4102   0.644   4.554   0.633
 1292SOL    HW2 4103   0.506   4.471   0.604
 1293SOL     OW 4104   1.777   4.066   1.642
 1293SOL    HW1 4105   1.760   4.097   1.548
 1293SOL    HW2 4106   1.693   4.029   1.680
 1294SOL     OW 4107   1.730   4.658   1.517
 1294SOL    HW1 4108   1.768   4.749   1.532
 1294SOL    HW2 4109   1.722   4.641   1.418
 1295SOL     OW 4110   0.859   4.680   0.861
 1295SOL    HW1 4111   0.913   4.611   0.909
 1295SOL    HW2 4112   0.827   4.749   0.927
 1296SOL     OW 4113   1.083   4.708   0.087
 1296SOL    HW1 4114   1.060   4.761   0.005
 1296SOL    HW2 4115   1.164   4.652   0.068
 1297SOL     OW 4116   0.079   4.964   0.653
 1297SOL    HW1 4117   0.078   4.917   0.741
 1297SOL    HW2 4118   0.161   4.936   0.602
 1298SOL     OW 4119   1.824   3.916   1.227
 1298SOL    HW1 4120   1.820   3.826   1.271
 1298SOL    HW2 4121   1.827   3.905   1.128
 1299SOL     OW 4122   0.428   4.148   0.520
 1299SOL    HW1 4123   0.458   4.076   0.458
 1299SOL    HW2 4124   0.389   4.108   0.603
 1300SOL     OW 4125   0.317   4.271   1.280
 1300SOL    HW1 4126   0.355   4.212   1.352
 1300SOL    HW2 4127   0.357   4.245   1.192
 1301SOL     OW 4128   1.424   3.938   1.112
 1301SOL    HW1 4129   1.476   3.873   1.167
 1301SOL    HW2 4130   1.375   4.001   1.173
 1302SOL     OW 4131   1.001   3.758   1.154
 1302SOL    HW1 4132   0.938   3.686   1.123
 1302SOL    HW2 4133   1.094   3.722   1.154
 1303SOL     OW 4134   0.770   5.054   0.301
 1303SOL    HW1 4135   0.724   4.967   0.318
 1303SOL    HW2 4136   0.861   5.051   0.342
 1304SOL     OW 4137   1.352   3.776   0.168
 1304SOL    HW1 4138   1.387   3.735   0.084
 1304SOL    HW2 4139   1.262   3.738   0.188
 1305SOL     OW 4140   1.300   4.177   0.691
 1305SOL    HW1 4141   1.241   4.257   0.695
 1305SOL    HW2 4142   1.315   4.142   0.784
 1306SOL     OW 4143   1.593   3.945   0.882
 1306SOL    HW1 4144   1.509   3.944   0.936
 1306SOL    HW2 4145   1.595   4.028   0.826
 1307SOL     OW 4146   0.039   4.801   0.300
 1307SOL    HW1 4147   0.138   4.790   0.291
 1307SOL    HW2 4148  -0.001   4.715   0.332
 1308SOL     OW 4149   0.230   4.352   1.975
 1308SOL    HW1 4150   0.137   4.350   2.012
 1308SOL    HW2 4151   0.231   4.313   1.883
 1309SOL     OW 4152   0.225   3.999   2.858
 1309SOL    HW1 4153   0.260   3.982   2.950
 1309SOL    HW2 4154   0.137   3.954   2.846
 1310SOL     OW 4155   0.019   4.092   2.509
 1310SOL    HW1 4156  -0.063   4.135   2.548
 1310SOL    HW2 4157  -0.009   4.019   2.446
 1311SOL     OW 4158   0.569   4.999   3.027
 1311SOL    HW1 4159   0.476   4.992   2.990
 1311SOL    HW2 4160   0.580   5.088   3.071
 1312SOL     OW 4161   1.555   5.235   2.565
 1312SOL    HW1 4162   1.498   5.219   2.646
 1312SOL    HW2 4163   1.496   5.245   2.485
 1313SOL     OW 4164   1.135   4.427   2.579
 1313SOL    HW1 4165   1.192   4.505   2.554
 1313SOL    HW2 4166   1.075   4.453   2.655
 1314SOL     OW 4167   1.755   4.331   2.093
 1314SOL    HW1 4168   1.743   4.318   1.994
 1314SOL    HW2 4169   1.725   4.250   2.142
 1315SOL     OW 4170   0.768   4.868   2.885
 1315SOL    HW1 4171   0.690   4.885   2.945
 1315SOL    HW2 4172   0.802   4.955   2.849
 1316SOL     OW 4173   0.850   4.522   3.685
 1316SOL    HW1 4174   0.846   4.598   3.750
 1316SOL    HW2 4175   0.872   4.558   3.594
 1317SOL     OW 4176   0.685   4.736   2.527
 1317SOL    HW1 4177   0.754   4.720   2.597
 1317SOL    HW2 4178   0.612   4.793   2.565
 1318SOL     OW 4179   0.686   4.885   3.665
 1318SOL    HW1 4180   0.746   4.964   3.679
 1318SOL    HW2 4181   0.600   4.916   3.624
 1319SOL     OW 4182   0.335   5.159   2.923
 1319SOL    HW1 4183   0.257   5.128   2.870
 1319SOL    HW2 4184   0.393   5.217   2.866
 1320SOL     OW 4185   0.438   4.116   3.361
 1320SOL    HW1 4186   0.520   4.060   3.370
 1320SOL    HW2 4187   0.357   4.058   3.365
 1321SOL     OW 4188   1.603   4.171   2.599
 1321SOL    HW1 4189   1.529   4.217   2.549
 1321SOL    HW2 4190   1.654   4.239   2.652
 1322SOL     OW 4191   0.240   4.815   2.748
 1322SOL    HW1 4192   0.254   4.731   2.800
 1322SOL    HW2 4193   0.185   4.879   2.803
 1323SOL     OW 4194   0.606   4.688   1.985
 1323SOL    HW1 4195   0.613   4.772   1.931
 1323SOL    HW2 4196   0.652   4.701   2.073
 1324SOL     OW 4197   1.594   3.838   3.342
 1324SOL    HW1 4198   1.576   3.905   3.270
 1324SOL    HW2 4199   1.591   3.884   3.431
 1325SOL     OW 4200   0.122   4.367   2.425
 1325SOL    HW1 4201   0.077   4.279   2.442
 1325SOL    HW2 4202   0.121   4.421   2.509
 1326SOL     OW 4203   1.689   4.646   2.474
 1326SOL    HW1 4204   1.784   4.617   2.482
 1326SOL    HW2 4205   1.681   4.711   2.399
 1327SOL     OW 4206   1.641   4.832   2.294
 1327SOL    HW1 4207   1.727   4.834   2.242
 1327SOL    HW2 4208   1.655   4.879   2.382
 1328SOL     OW 4209   0.113   4.461   3.459
 1328SOL    HW1 4210   0.201   4.448   3.504
 1328SOL    HW2 4211   0.100   4.558   3.437
 1329SOL     OW 4212   1.293   4.952   3.285
 1329SOL    HW1 4213   1.330   4.879   3.227
 1329SOL    HW2 4214   1.345   4.957   3.370
 1330SOL     OW 4215   0.809   3.728   2.364
 1330SOL    HW1 4216   0.849   3.819   2.355
 1330SOL    HW2 4217   0.709   3.736   2.370
 1331SOL     OW 4218   0.197   4.700   3.126
 1331SOL    HW1 4219   0.286   4.655   3.112
 1331SOL    HW2 4220   0.124   4.635   3.107
 1332SOL     OW 4221   1.525   4.723   2.052
 1332SOL    HW1 4222   1.462   4.647   2.065
 1332SOL    HW2 4223   1.573   4.741   2.138
 1333SOL     OW 4224   0.317   3.975   3.663
 1333SOL    HW1 4225   0.388   4.046   3.669
 1333SOL    HW2 4226   0.229   4.014   3.691
 1334SOL     OW 4227   1.466   5.141   2.815
 1334SOL    HW1 4228   1.407   5.147   2.895
 1334SOL    HW2 4229   1.451   5.053   2.769
 1335SOL     OW 4230   0.598   4.453   2.132
 1335SOL    HW1 4231   0.622   4.522   2.064
 1335SOL    HW2 4232   0.520   4.486   2.186
 1336SOL     OW 4233   1.281   4.069   2.806
 1336SOL    HW1 4234   1.195   4.019   2.793
 1336SOL    HW2 4235   1.343   4.015   2.862
 1337SOL     OW 4236   0.807   4.329   3.327
 1337SOL    HW1 4237   0.760   4.326   3.416
 1337SOL    HW2 4238   0.756   4.274   3.261
 1338SOL     OW 4239   1.394   4.193   3.536
 1338SOL    HW1 4240   1.374   4.236   3.624
 1338SOL    HW2 4241   1.472   4.131   3.545
 1339SOL     OW 4242   0.973   4.614   3.434
 1339SOL    HW1 4243   1.019   4.530   3.405
 1339SOL    HW2 4244   0.917   4.648   3.359
 1340SOL     OW 4245   0.991   4.134   3.104
 1340SOL    HW1 4246   0.914   4.168   3.158
 1340SOL    HW2 4247   0.957   4.083   3.025
 1341SOL     OW 4248   1.041   4.425   2.291
 1341SOL    HW1 4249   1.067   4.421   2.387
 1341SOL    HW2 4250   0.956   4.374   2.277
 1342SOL     OW 4251   0.076   4.535   2.651
 1342SOL    HW1 4252   0.175   4.523   2.660
 1342SOL    HW2 4253   0.052   4.630   2.672
 1343SOL     OW 4254   0.865   4.072   2.057
 1343SOL    HW1 4255   0.924   4.135   2.008
 1343SOL    HW2 4256   0.884   3.978   2.028
 1344SOL     OW 4257   1.719   4.309   3.693
 1344SOL    HW1 4258   1.693   4.398   3.657
 1344SOL    HW2 4259   1.717   4.241   3.620
 1345SOL     OW 4260   1.362   4.868   2.407
 1345SOL    HW1 4261   1.445   4.839   2.359
 1345SOL    HW2 4262   1.313   4.935   2.351
 1346SOL     OW 4263   0.550   3.920   2.747
 1346SOL    HW1 4264   0.545   3.915   2.847
 1346SOL    HW2 4265   0.552   4.016   2.718
 1347SOL     OW 4266   1.795   4.790   2.735
 1347SOL    HW1 4267   1.733   4.775   2.659
 1347SOL    HW2 4268   1.743   4.801   2.820
 1348SOL     OW 4269   0.321   4.667   2.104
 1348SOL    HW1 4270   0.403   4.706   2.062
 1348SOL    HW2 4271   0.294   4.585   2.055
 1349SOL     OW 4272   1.458   4.459   2.590
 1349SOL    HW1 4273   1.453   4.394   2.665
 1349SOL    HW2 4274   1.538   4.518   2.603
 1350SOL     OW 4275   0.202   4.009   3.360
 1350SOL    HW1 4276   0.122   4.069   3.347
 1350SOL    HW2 4277   0.192   3.960   3.446
 1351SOL     OW 4278   1.632   5.101   1.943
 1351SOL    HW1 4279   1.600   5.195   1.933
 1351SOL    HW2 4280   1.556   5.038   1.931
 1352SOL     OW 4281   1.400   3.831   2.288
 1352SOL    HW1 4282   1.376   3.794   2.198
 1352SOL    HW2 4283   1.499   3.847   2.292
 1353SOL     OW 4284   0.382   4.424   2.342
 1353SOL    HW1 4285   0.427   4.334   2.339
 1353SOL    HW2 4286   0.288   4.413   2.375
 1354SOL     OW 4287   1.547   3.946   3.591
 1354SOL    HW1 4288   1.542   3.983   3.683
 1354SOL    HW2 4289   1.475   3.877   3.579
 1355SOL     OW 4290   0.614   3.846   1.979
 1355SOL    HW1 4291   0.712   3.824   1.986
 1355SOL    HW2 4292   0.583   3.829   1.886
 1356SOL     OW 4293   0.781   3.988   3.611
 1356SOL    HW1 4294   0.848   3.927   3.654
 1356SOL    HW2 4295   0.708   4.007   3.676
 1357SOL     OW 4296   1.351   4.314   3.295
 1357SOL    HW1 4297   1.379   4.271   3.380
 1357SOL    HW2 4298   1.376   4.410   3.296
 1358SOL     OW 4299   0.803   5.126   2.786
 1358SOL    HW1 4300   0.893   5.140   2.744
 1358SOL    HW2 4301   0.732   5.128   2.715
 1359SOL     OW 4302   0.922   4.227   2.761
 1359SOL    HW1 4303   0.897   4.218   2.665
 1359SOL    HW2 4304   0.970   4.145   2.792
 1360SOL     OW 4305   0.539   3.788   2.374
 1360SOL    HW1 4306   0.458   3.789   2.432
 1360SOL    HW2 4307   0.542   3.871   2.319
 1361SOL     OW 4308   1.434   4.912   1.903
 1361SOL    HW1 4309   1.466   4.836   1.960
 1361SOL    HW2 4310   1.342   4.939   1.933
 1362SOL     OW 4311   0.297   3.759   2.033
 1362SOL    HW1 4312   0.346   3.843   2.012
 1362SOL    HW2 4313   0.359   3.694   2.078
 1363SOL     OW 4314   0.935   3.960   2.342
 1363SOL    HW1 4315   0.887   4.001   2.264
 1363SOL    HW2 4316   1.034   3.958   2.323
 1364SOL     OW 4317   1.076   4.407   3.326
 1364SOL    HW1 4318   0.996   4.346   3.329
 1364SOL    HW2 4319   1.157   4.354   3.302
 1365SOL     OW 4320   1.227   5.294   2.655
 1365SOL    HW1 4321   1.248   5.368   2.590
 1365SOL    HW2 4322   1.295   5.294   2.728
 1366SOL     OW 4323   0.459   4.876   2.603
 1366SOL    HW1 4324   0.388   4.849   2.668
 1366SOL    HW2 4325   0.433   4.848   2.510
 1367SOL     OW 4326   1.032   4.273   1.878
 1367SOL    HW1 4327   0.991   4.355   1.839
 1367SOL    HW2 4328   1.096   4.299   1.951
 1368SOL     OW 4329   0.078   4.280   3.248
 1368SOL    HW1 4330   0.170   4.279   3.207
 1368SOL    HW2 4331   0.072   4.354   3.315
 1369SOL     OW 4332   0.866   4.178   2.504
 1369SOL    HW1 4333   0.834   4.250   2.442
 1369SOL    HW2 4334   0.890   4.097   2.451
 1370SOL     OW 4335   1.017   3.763   2.615
 1370SOL    HW1 4336   0.945   3.768   2.546
 1370SOL    HW2 4337   0.993   3.694   2.684
 1371SOL     OW 4338   1.429   4.897   2.729
 1371SOL    HW1 4339   1.374   4.813   2.722
 1371SOL    HW2 4340   1.455   4.926   2.637
 1372SOL     OW 4341   1.466   4.314   2.854
 1372SOL    HW1 4342   1.436   4.219   2.861
 1372SOL    HW2 4343   1.539   4.330   2.920
 1373SOL     OW 4344   1.857   4.557   2.239
 1373SOL    HW1 4345   1.899   4.493   2.303
 1373SOL    HW2 4346   1.819   4.506   2.161
 1374SOL     OW 4347   1.664   5.004   2.519
 1374SOL    HW1 4348   1.763   5.012   2.533
 1374SOL    HW2 4349   1.619   5.088   2.550
 1375SOL     OW 4350   1.390   4.299   1.940
 1375SOL    HW1 4351   1.336   4.278   2.021
 1375SOL    HW2 4352   1.481   4.258   1.949
 1376SOL     OW 4353   0.527   3.980   2.190
 1376SOL    HW1 4354   0.554   3.921   2.115
 1376SOL    HW2 4355   0.527   4.075   2.159
 1377SOL     OW 4356   1.754   4.947   3.450
 1377SOL    HW1 4357   1.845   4.908   3.437
 1377SOL    HW2 4358   1.762   5.043   3.474
 1378SOL     OW 4359   1.638   4.823   2.941
 1378SOL    HW1 4360   1.643   4.904   3.000
 1378SOL    HW2 4361   1.552   4.825   2.890
 1379SOL     OW 4362   0.980   4.840   3.581
 1379SOL    HW1 4363   0.881   4.846   3.591
 1379SOL    HW2 4364   1.003   4.760   3.525
 1380SOL     OW 4365   0.705   4.774   2.230
 1380SOL    HW1 4366   0.691   4.781   2.329
 1380SOL    HW2 4367   0.789   4.723   2.212
 1381SOL     OW 4368   0.410   4.537   3.113
 1381SOL    HW1 4369   0.496   4.549   3.163
 1381SOL    HW2 4370   0.368   4.450   3.140
 1382SOL     OW 4371   1.274   4.110   3.124
 1382SOL    HW1 4372   1.295   4.184   3.188
 1382SOL    HW2 4373   1.185   4.127   3.081
 1383SOL     OW 4374   0.367   4.824   2.363
 1383SOL    HW1 4375   0.360   4.907   2.307
 1383SOL    HW2 4376   0.371   4.744   2.303
 1384SOL     OW 4377   0.566   4.261   2.727
 1384SOL    HW1 4378   0.578   4.327   2.653
 1384SOL    HW2 4379   0.612   4.295   2.810
 1385SOL     OW 4380   1.582   4.363   2.334
 1385SOL    HW1 4381   1.551   4.424   2.407
 1385SOL    HW2 4382   1.632   4.415   2.265
 1386SOL     OW 4383   0.402   4.475   3.460
 1386SOL    HW1 4384   0.470   4.530   3.413
 1386SOL    HW2 4385   0.442   4.387   3.487
 1387SOL     OW 4386   1.587   4.503   3.532
 1387SOL    HW1 4387   1.495   4.541   3.527
 1387SOL    HW2 4388   1.647   4.550   3.467
 1388SOL     OW 4389   1.013   3.829   3.632
 1388SOL    HW1 4390   1.019   3.914   3.580
 1388SOL    HW2 4391   1.045   3.753   3.575
 1389SOL     OW 4392   0.504   3.774   3.602
 1389SOL    HW1 4393   0.462   3.717   3.532
 1389SOL    HW2 4394   0.438   3.843   3.634
 1390SOL     OW 4395   0.573   4.594   2.891
 1390SOL    HW1 4396   0.617   4.683   2.882
 1390SOL    HW2 4397   0.510   4.594   2.968
 1391SOL     OW 4398   1.360   4.586   2.907
 1391SOL    HW1 4399   1.285   4.586   2.841
 1391SOL    HW2 4400   1.397   4.494   2.916
 1392SOL     OW 4401   1.209   4.249   2.137
 1392SOL    HW1 4402   1.222   4.165   2.191
 1392SOL    HW2 4403   1.180   4.323   2.197
 1393SOL     OW 4404   0.307   3.937   3.093
 1393SOL    HW1 4405   0.284   3.974   3.183
 1393SOL    HW2 4406   0.277   3.842   3.087
 1394SOL     OW 4407   0.037   5.034   3.144
 1394SOL    HW1 4408   0.090   4.985   3.212
 1394SOL    HW2 4409   0.059   5.132   3.149
 1395SOL     OW 4410   0.732   4.358   2.926
 1395SOL    HW1 4411   0.791   4.332   2.850
 1395SOL    HW2 4412   0.704   4.454   2.915
 1396SOL     OW 4413   1.728   4.659   3.716
 1396SOL    HW1 4414   1.682   4.652   3.627
 1396SOL    HW2 4415   1.666   4.703   3.782
 1397SOL     OW 4416   0.307   3.787   2.480
 1397SOL    HW1 4417   0.296   3.881   2.513
 1397SOL    HW2 4418   0.302   3.724   2.557
 1398SOL     OW 4419   1.622   4.091   2.236
 1398SOL    HW1 4420   1.624   4.015   2.300
 1398SOL    HW2 4421   1.574   4.168   2.276
 1399SOL     OW 4422   1.023   4.490   2.828
 1399SOL    HW1 4423   1.038   4.511   2.924
 1399SOL    HW2 4424   0.993   4.395   2.819
 1400SOL     OW 4425   1.859   5.242   3.467
 1400SOL    HW1 4426   1.873   5.269   3.372
 1400SOL    HW2 4427   1.942   5.264   3.520
 1401SOL     OW 4428   0.350   4.622   3.666
 1401SOL    HW1 4429   0.426   4.666   3.714
 1401SOL    HW2 4430   0.385   4.575   3.584
 1402SOL     OW 4431   1.540   3.998   1.987
 1402SOL    HW1 4432   1.479   3.923   2.010
 1402SOL    HW2 4433   1.562   4.050   2.070
 1403SOL     OW 4434   1.303   4.562   1.904
 1403SOL    HW1 4435   1.337   4.469   1.919
 1403SOL    HW2 4436   1.321   4.589   1.809
 1404SOL     OW 4437   0.319   4.534   2.811
 1404SOL    HW1 4438   0.412   4.570   2.816
 1404SOL    HW2 4439   0.313   4.449   2.863
 1405SOL     OW 4440   0.339   4.233   2.868
 1405SOL    HW1 4441   0.287   4.150   2.851
 1405SOL    HW2 4442   0.416   4.238   2.804
 1406SOL     OW 4443   1.138   4.104   3.540
 1406SOL    HW1 4444   1.093   4.167   3.604
 1406SOL    HW2 4445   1.231   4.135   3.523
 1407SOL     OW 4446   1.160   3.931   3.339
 1407SOL    HW1 4447   1.160   3.995   3.416
 1407SOL    HW2 4448   1.188   3.979   3.256
 1408SOL     OW 4449   0.008   5.050   2.062
 1408SOL    HW1 4450  -0.085   5.071   2.031
 1408SOL    HW2 4451   0.018   4.951   2.075
 1409SOL     OW 4452   1.002   4.520   3.100
 1409SOL    HW1 4453   1.043   4.488   3.186
 1409SOL    HW2 4454   0.906   4.493   3.097
 1410SOL     OW 4455   0.040   4.268   2.976
 1410SOL    HW1 4456   0.125   4.235   2.935
 1410SOL    HW2 4457   0.053   4.283   3.074
 1411SOL     OW 4458   0.189   4.244   3.584
 1411SOL    HW1 4459   0.248   4.204   3.514
 1411SOL    HW2 4460   0.131   4.315   3.543
 1412SOL     OW 4461   1.369   4.674   3.522
 1412SOL    HW1 4462   1.408   4.763   3.542
 1412SOL    HW2 4463   1.379   4.654   3.425
 1413SOL     OW 4464   0.815   4.296   2.187
 1413SOL    HW1 4465   0.822   4.207   2.141
 1413SOL    HW2 4466   0.721   4.330   2.179
 1414SOL     OW 4467   1.657   4.328   3.068
 1414SOL    HW1 4468   1.619   4.259   3.130
 1414SOL    HW2 4469   1.739   4.292   3.024
 1415SOL     OW 4470   0.473   4.224   2.053
 1415SOL    HW1 4471   0.534   4.304   2.057
 1415SOL    HW2 4472   0.378   4.255   2.060
 1416SOL     OW 4473   0.159   4.861   3.328
 1416SOL    HW1 4474   0.181   4.800   3.404
 1416SOL    HW2 4475   0.169   4.812   3.242
 1417SOL     OW 4476   1.347   4.783   3.096
 1417SOL    HW1 4477   1.371   4.720   3.022
 1417SOL    HW2 4478   1.257   4.823   3.078
 1418SOL     OW 4479   1.302   4.579   2.171
 1418SOL    HW1 4480   1.216   4.548   2.213
 1418SOL    HW2 4481   1.298   4.565   2.072
 1419SOL     OW 4482   0.083   4.982   2.884
 1419SOL    HW1 4483   0.078   4.981   2.984
 1419SOL    HW2 4484   0.000   4.941   2.846
 1420SOL     OW 4485   1.726   3.859   2.385
 1420SOL    HW1 4486   1.799   3.842   2.318
 1420SOL    HW2 4487   1.695   3.772   2.423
 1421SOL     OW 4488   1.280   4.651   2.534
 1421SOL    HW1 4489   1.340   4.570   2.536
 1421SOL    HW2 4490   1.320   4.720   2.474
 1422SOL     OW 4491   0.830   4.997   3.284
 1422SOL    HW1 4492   0.825   5.030   3.379
 1422SOL    HW2 4493   0.744   5.016   3.238
 1423SOL     OW 4494   1.841   3.899   2.825
 1423SOL    HW1 4495   1.880   3.814   2.789
 1423SOL    HW2 4496   1.743   3.901   2.806
 1424SOL     OW 4497   0.263   4.050   2.582
 1424SOL    HW1 4498   0.184   4.101   2.548
 1424SOL    HW2 4499   0.254   4.035   2.680
 1425SOL     OW 4500   1.194   5.336   1.893
 1425SOL    HW1 4501   1.200   5.243   1.930
 1425SOL    HW2 4502   1.135   5.336   1.813
 1426SOL     OW 4503   0.822   4.726   3.234
 1426SOL    HW1 4504   0.862   4.725   3.142
 1426SOL    HW2 4505   0.832   4.818   3.274
 1427SOL     OW 4506   0.916   4.634   2.153
 1427SOL    HW1 4507   0.979   4.672   2.085
 1427SOL    HW2 4508   0.956   4.551   2.192
 1428SOL     OW 4509   0.372   5.012   3.352
 1428SOL    HW1 4510   0.359   5.105   3.318
 1428SOL    HW2 4511   0.288   4.960   3.339
 1429SOL     OW 4512   1.614   5.016   3.151
 1429SOL    HW1 4513   1.674   5.019   3.231
 1429SOL    HW2 4514   1.539   5.080   3.164
 1430SOL     OW 4515   1.039   4.822   2.558
 1430SOL    HW1 4516   0.969   4.775   2.612
 1430SOL    HW2 4517   1.098   4.754   2.515
 1431SOL     OW 4518   1.014   3.960   2.833
 1431SOL    HW1 4519   1.006   3.924   2.740
 1431SOL    HW2 4520   1.012   3.884   2.898
 1432SOL     OW 4521   1.709   4.109   3.243
 1432SOL    HW1 4522   1.782   4.178   3.247
 1432SOL    HW2 4523   1.737   4.034   3.184
 1433SOL     OW 4524   0.105   4.737   3.588
 1433SOL    HW1 4525   0.028   4.704   3.642
 1433SOL    HW2 4526   0.190   4.707   3.630
 1434SOL     OW 4527   0.075   4.069   1.895
 1434SOL    HW1 4528  -0.017   4.041   1.866
 1434SOL    HW2 4529   0.106   4.146   1.839
 1435SOL     OW 4530   1.440   4.580   3.260
 1435SOL    HW1 4531   1.383   4.632   3.197
 1435SOL    HW2 4532   1.536   4.592   3.236
 1436SOL     OW 4533   0.072   3.890   2.180
 1436SOL    HW1 4534   0.055   3.973   2.126
 1436SOL    HW2 4535   0.162   3.853   2.158
 1437SOL     OW 4536   0.613   4.566   3.293
 1437SOL    HW1 4537   0.669   4.647   3.276
 1437SOL    HW2 4538   0.672   4.486   3.296
 1438SOL     OW 4539   0.716   4.289   3.570
 1438SOL    HW1 4540   0.735   4.354   3.644
 1438SOL    HW2 4541   0.776   4.209   3.579
 1439SOL     OW 4542   1.450   4.944   3.495
 1439SOL    HW1 4543   1.441   4.934   3.594
 1439SOL    HW2 4544   1.546   4.937   3.469
 1440SOL     OW 4545   1.674   4.607   3.116
 1440SOL    HW1 4546   1.647   4.518   3.079
 1440SOL    HW2 4547   1.675   4.675   3.043
 1441SOL     OW 4548   1.225   4.049   2.311
 1441SOL    HW1 4549   1.290   3.975   2.300
 1441SOL    HW2 4550   1.245   4.099   2.395
 1442SOL     OW 4551   0.594   4.469   2.514
 1442SOL    HW1 4552   0.644   4.554   2.495
 1442SOL    HW2 4553   0.506   4.471   2.466
 1443SOL     OW 4554   1.777   4.066   3.504
 1443SOL    HW1 4555   1.760   4.097   3.410
 1443SOL    HW2 4556   1.693   4.029   3.542
 1444SOL     OW 4557   1.730   4.658   3.379
 1444SOL    HW1 4558   1.768   4.749   3.394
 1444SOL    HW2 4559   1.722   4.641   3.280
 1445SOL     OW 4560   0.859   4.680   2.723
 1445SOL    HW1 4561   0.913   4.611   2.771
 1445SOL    HW2 4562   0.827   4.749   2.789
 1446SOL     OW 4563   1.083   4.708   1.949
 1446SOL    HW1 4564   1.060   4.761   1.867
 1446SOL    HW2 4565   1.164   4.652   1.930
 1447SOL     OW 4566   0.079   4.964   2.515
 1447SOL    HW1 4567   0.078   4.917   2.603
 1447SOL    HW2 4568   0.161   4.936   2.464
 1448SOL     OW 4569   1.824   3.916   3.089
 1448SOL    HW1 4570   1.820   3.826   3.133
 1448SOL    HW2 4571   1.827   3.905   2.990
 1449SOL     OW 4572   0.428   4.148   2.382
 1449SOL    HW1 4573   0.458   4.076   2.320
 1449SOL    HW2 4574   0.389   4.108   2.465
 1450SOL     OW 4575   0.317   4.271   3.142
 1450SOL    HW1 4576   0.355   4.212   3.214
 1450SOL    HW2 4577   0.357   4.245   3.054
 1451SOL     OW 4578   1.424   3.938   2.974
 1451SOL    HW1 4579   1.476   3.873   3.029
 1451SOL    HW2 4580   1.375   4.001   3.035
 1452SOL     OW 4581   1.001   3.758   3.016
 1452SOL    HW1 4582   0.938   3.686   2.985
 1452SOL    HW2 4583   1.094   3.722   3.016
 1453SOL     OW 4584   0.770   5.054   2.163
 1453SOL    HW1 4585   0.724   4.967   2.180
 1453SOL    HW2 4586   0.861   5.051   2.204
 1454SOL     OW 4587   1.352   3.776   2.030
 1454SOL    HW1 4588   1.387   3.735   1.946
 1454SOL    HW2 4589   1.262   3.738   2.050
 1455SOL     OW 4590   1.300   4.177   2.553
 1455SOL    HW1 4591   1.241   4.257   2.557
 1455SOL    HW2 4592   1.315   4.142   2.646
 1456SOL     OW 4593   1.593   3.945   2.744
 1456SOL    HW1 4594   1.509   3.944   2.798
 1456SOL    HW2 4595   1.595   4.028   2.688
 1457SOL     OW 4596   0.039   4.801   2.162
 1457SOL    HW1 4597   0.138   4.790   2.153
 1457SOL    HW2 4598  -0.001   4.715   2.194
 1458SOL     OW 4599   0.230   4.352   3.837
 1458SOL    HW1 4600   0.137   4.350   3.874
 1458SOL    HW2 4601   0.231   4.313   3.745
 1459SOL     OW 4602   0.225   3.999   4.720
 1459SOL    HW1 4603   0.260   3.982   4.812
 1459SOL    HW2 4604   0.137   3.954   4.708
 1460SOL     OW 4605   0.019   4.092   4.371
 1460SOL    HW1 4606  -0.063   4.135   4.410
 1460SOL    HW2 4607  -0.009   4.019   4.308
 1461SOL     OW 4608   0.569   4.999   4.889
 1461SOL    HW1 4609   0.476   4.992   4.852
 1461SOL    HW2 4610   0.580   5.088   4.933
 1462SOL     OW 4611   1.555   5.235   4.427
 1462SOL    HW1 4612   1.498   5.219   4.508
 1462SOL    HW2 4613   1.496   5.245   4.347
 1463SOL     OW 4614   1.135   4.427   4.441
 1463SOL    HW1 4615   1.192   4.505   4.416
 1463SOL    HW2 4616   1.075   4.453   4.517
 1464SOL     OW 4617   1.755   4.331   3.955
 1464SOL    HW1 4618   1.743   4.318   3.856
 1464SOL    HW2 4619   1.725   4.250   4.004
 1465SOL     OW 4620   0.768   4.868   4.747
 1465SOL    HW1 4621   0.690   4.885   4.807
 1465SOL    HW2 4622   0.802   4.955   4.711
 1466SOL     OW 4623   0.685   4.736   4.389
 1466SOL    HW1 4624   0.754   4.720   4.459
 1466SOL    HW2 4625   0.612   4.793   4.427
 1467SOL     OW 4626   0.335   5.159   4.785
 1467SOL    HW1 4627   0.257   5.128   4.732
 1467SOL    HW2 4628   0.393   5.217   4.728
 1468SOL     OW 4629   1.603   4.171   4.461
 1468SOL    HW1 4630   1.529   4.217   4.411
 1468SOL    HW2 4631   1.654   4.239   4.514
 1469SOL     OW 4632   0.240   4.815   4.610
 1469SOL    HW1 4633   0.254   4.731   4.662
 1469SOL    HW2 4634   0.185   4.879   4.665
 1470SOL     OW 4635   0.606   4.688   3.847
 1470SOL    HW1 4636   0.613   4.772   3.793
 1470SOL    HW2 4637   0.652   4.701   3.935
 1471SOL     OW 4638   0.122   4.367   4.287
 1471SOL    HW1 4639   0.077   4.279   4.304
 1471SOL    HW2 4640   0.121   4.421   4.371
 1472SOL     OW 4641   1.689   4.646   4.336
 1472SOL    HW1 4642   1.784   4.617   4.344
 1472SOL    HW2 4643   1.681   4.711   4.261
 1473SOL     OW 4644   1.641   4.832   4.156
 1473SOL    HW1 4645   1.727   4.834   4.104
 1473SOL    HW2 4646   1.655   4.879   4.244
 1474SOL     OW 4647   0.809   3.728   4.226
 1474SOL    HW1 4648   0.849   3.819   4.217
 1474SOL    HW2 4649   0.709   3.736   4.232
 1475SOL     OW 4650   0.197   4.700   4.988
 1475SOL    HW1 4651   0.286   4.655   4.974
 1475SOL    HW2 4652   0.124   4.635   4.969
 1476SOL     OW 4653   1.525   4.723   3.914
 1476SOL    HW1 4654   1.462   4.647   3.927
 1476SOL    HW2 4655   1.573   4.741   4.000
 1477SOL     OW 4656   1.466   5.141   4.677
 1477SOL    HW1 4657   1.407   5.147   4.757
 1477SOL    HW2 4658   1.451   5.053   4.631
 1478SOL     OW 4659   0.598   4.453   3.994
 1478SOL    HW1 4660   0.622   4.522   3.926
 1478SOL    HW2 4661   0.520   4.486   4.048
 1479SOL     OW 4662   1.281   4.069   4.668
 1479SOL    HW1 4663   1.195   4.019   4.655
 1479SOL    HW2 4664   1.343   4.015   4.724
 1480SOL     OW 4665   0.991   4.134   4.966
 1480SOL    HW1 4666   0.914   4.168   5.020
 1480SOL    HW2 4667   0.957   4.083   4.887
 1481SOL     OW 4668   1.041   4.425   4.153
 1481SOL    HW1 4669   1.067   4.421   4.249
 1481SOL    HW2 4670   0.956   4.374   4.139
 1482SOL     OW 4671   0.076   4.535   4.513
 1482SOL    HW1 4672   0.175   4.523   4.522
 1482SOL    HW2 4673   0.052   4.630   4.534
 1483SOL     OW 4674   0.865   4.072   3.919
 1483SOL    HW1 4675   0.924   4.135   3.870
 1483SOL    HW2 4676   0.884   3.978   3.890
 1484SOL     OW 4677   1.362   4.868   4.269
 1484SOL    HW1 4678   1.445   4.839   4.221
 1484SOL    HW2 4679   1.313   4.935   4.213
 1485SOL     OW 4680   0.550   3.920   4.609
 1485SOL    HW1 4681   0.545   3.915   4.709
 1485SOL    HW2 4682   0.552   4.016   4.580
 1486SOL     OW 4683   1.795   4.790   4.597
 1486SOL    HW1 4684   1.733   4.775   4.521
 1486SOL    HW2 4685   1.743   4.801   4.682
 1487SOL     OW 4686   0.321   4.667   3.966
 1487SOL    HW1 4687   0.403   4.706   3.924
 1487SOL    HW2 4688   0.294   4.585   3.917
 1488SOL     OW 4689   1.458   4.459   4.452
 1488SOL    HW1 4690   1.453   4.394   4.527
 1488SOL    HW2 4691   1.538   4.518   4.465
 1489SOL     OW 4692   1.632   5.101   3.805
 1489SOL    HW1 4693   1.600   5.195   3.795
 1489SOL    HW2 4694   1.556   5.038   3.793
 1490SOL     OW 4695   1.400   3.831   4.150
 1490SOL    HW1 4696   1.376   3.794   4.060
 1490SOL    HW2 4697   1.499   3.847   4.154
 1491SOL     OW 4698   0.382   4.424   4.204
 1491SOL    HW1 4699   0.427   4.334   4.201
 1491SOL    HW2 4700   0.288   4.413   4.237
 1492SOL     OW 4701   0.614   3.846   3.841
 1492SOL    HW1 4702   0.712   3.824   3.848
 1492SOL    HW2 4703   0.583   3.829   3.748
 1493SOL     OW 4704   0.803   5.126   4.648
 1493SOL    HW1 4705   0.893   5.140   4.606
 1493SOL    HW2 4706   0.732   5.128   4.577
 1494SOL     OW 4707   0.922   4.227   4.623
 1494SOL    HW1 4708   0.897   4.218   4.527
 1494SOL    HW2 4709   0.970   4.145   4.654
 1495SOL     OW 4710   0.539   3.788   4.236
 1495SOL    HW1 4711   0.458   3.789   4.294
 1495SOL    HW2 4712   0.542   3.871   4.181
 1496SOL     OW 4713   1.434   4.912   3.765
 1496SOL    HW1 4714   1.466   4.836   3.822
 1496SOL    HW2 4715   1.342   4.939   3.795
 1497SOL     OW 4716   0.297   3.759   3.895
 1497SOL    HW1 4717   0.346   3.843   3.874
 1497SOL    HW2 4718   0.359   3.694   3.940
 1498SOL     OW 4719   0.935   3.960   4.204
 1498SOL    HW1 4720   0.887   4.001   4.126
 1498SOL    HW2 4721   1.034   3.958   4.185
 1499SOL     OW 4722   1.227   5.294   4.517
 1499SOL    HW1 4723   1.248   5.368   4.452
 1499SOL    HW2 4724   1.295   5.294   4.590
 1500SOL     OW 4725   0.459   4.876   4.465
 1500SOL    HW1 4726   0.388   4.849   4.530
 1500SOL    HW2 4727   0.433   4.848   4.372
 1501SOL     OW 4728   1.032   4.273   3.740
 1501SOL    HW1 4729   0.991   4.355   3.701
 1501SOL    HW2 4730   1.096   4.299   3.813
 1502SOL     OW 4731   0.561   3.946   4.871
 1502SOL    HW1 4732   0.599   3.862   4.908
 1502SOL    HW2 4733   0.473   3.965   4.915
 1503SOL     OW 4734   0.866   4.178   4.366
 1503SOL    HW1 4735   0.834   4.250   4.304
 1503SOL    HW2 4736   0.890   4.097   4.313
 1504SOL     OW 4737   1.017   3.763   4.477
 1504SOL    HW1 4738   0.945   3.768   4.408
 1504SOL    HW2 4739   0.993   3.694   4.546
 1505SOL     OW 4740   1.429   4.897   4.591
 1505SOL    HW1 4741   1.374   4.813   4.584
 1505SOL    HW2 4742   1.455   4.926   4.499
 1506SOL     OW 4743   1.466   4.314   4.716
 1506SOL    HW1 4744   1.436   4.219   4.723
 1506SOL    HW2 4745   1.539   4.330   4.782
 1507SOL     OW 4746   1.857   4.557   4.101
 1507SOL    HW1 4747   1.899   4.493   4.165
 1507SOL    HW2 4748   1.819   4.506   4.023
 1508SOL     OW 4749   1.664   5.004   4.381
 1508SOL    HW1 4750   1.763   5.012   4.395
 1508SOL    HW2 4751   1.619   5.088   4.412
 1509SOL     OW 4752   1.390   4.299   3.802
 1509SOL    HW1 4753   1.336   4.278   3.883
 1509SOL    HW2 4754   1.481   4.258   3.811
 1510SOL     OW 4755   0.527   3.980   4.052
 1510SOL    HW1 4756   0.554   3.921   3.977
 1510SOL    HW2 4757   0.527   4.075   4.021
 1511SOL     OW 4758   1.638   4.823   4.803
 1511SOL    HW1 4759   1.643   4.904   4.862
 1511SOL    HW2 4760   1.552   4.825   4.752
 1512SOL     OW 4761   0.705   4.774   4.092
 1512SOL    HW1 4762   0.691   4.781   4.191
 1512SOL    HW2 4763   0.789   4.723   4.074
 1513SOL     OW 4764   0.410   4.537   4.975
 1513SOL    HW1 4765   0.496   4.549   5.025
 1513SOL    HW2 4766   0.368   4.450   5.002
 1514SOL     OW 4767   1.274   4.110   4.986
 1514SOL    HW1 4768   1.295   4.184   5.050
 1514SOL    HW2 4769   1.185   4.127   4.943
 1515SOL     OW 4770   0.367   4.824   4.225
 1515SOL    HW1 4771   0.360   4.907   4.169
 1515SOL    HW2 4772   0.371   4.744   4.165
 1516SOL     OW 4773   0.566   4.261   4.589
 1516SOL    HW1 4774   0.578   4.327   4.515
 1516SOL    HW2 4775   0.612   4.295   4.672
 1517SOL     OW 4776   1.582   4.363   4.196
 1517SOL    HW1 4777   1.551   4.424   4.269
 1517SOL    HW2 4778   1.632   4.415   4.127
 1518SOL     OW 4779   0.573   4.594   4.753
 1518SOL    HW1 4780   0.617   4.683   4.744
 1518SOL    HW2 4781   0.510   4.594   4.830
 1519SOL     OW 4782   1.360   4.586   4.769
 1519SOL    HW1 4783   1.285   4.586   4.703
 1519SOL    HW2 4784   1.397   4.494   4.778
 1520SOL     OW 4785   1.209   4.249   3.999
 1520SOL    HW1 4786   1.222   4.165   4.053
 1520SOL    HW2 4787   1.180   4.323   4.059
 1521SOL     OW 4788   0.307   3.937   4.955
 1521SOL    HW1 4789   0.284   3.974   5.045
 1521SOL    HW2 4790   0.277   3.842   4.949
 1522SOL     OW 4791   0.037   5.034   5.006
 1522SOL    HW1 4792   0.090   4.985   5.074
 1522SOL    HW2 4793   0.059   5.132   5.011
 1523SOL     OW 4794   0.732   4.358   4.788
 1523SOL    HW1 4795   0.791   4.332   4.712
 1523SOL    HW2 4796   0.704   4.454   4.777
 1524SOL     OW 4797   0.307   3.787   4.342
 1524SOL    HW1 4798   0.296   3.881   4.375
 1524SOL    HW2 4799   0.302   3.724   4.419
 1525SOL     OW 4800   1.622   4.091   4.098
 1525SOL    HW1 4801   1.624   4.015   4.162
 1525SOL    HW2 4802   1.574   4.168   4.138
 1526SOL     OW 4803   1.023   4.490   4.690
 1526SOL    HW1 4804   1.038   4.511   4.786
 1526SOL    HW2 4805   0.993   4.395   4.681
 1527SOL     OW 4806   1.540   3.998   3.849
 1527SOL    HW1 4807   1.479   3.923   3.872
 1527SOL    HW2 4808   1.562   4.050   3.932
 1528SOL     OW 4809   1.303   4.562   3.766
 1528SOL    HW1 4810   1.337   4.469   3.781
 1528SOL    HW2 4811   1.321   4.589   3.671
 1529SOL     OW 4812   0.319   4.534   4.673
 1529SOL    HW1 4813   0.412   4.570   4.678
 1529SOL    HW2 4814   0.313   4.449   4.725
 1530SOL     OW 4815   0.339   4.233   4.730
 1530SOL    HW1 4816   0.287   4.150   4.713
 1530SOL    HW2 4817   0.416   4.238   4.666
 1531SOL     OW 4818   1.160   3.931   5.201
 1531SOL    HW1 4819   1.160   3.995   5.278
 1531SOL    HW2 4820   1.188   3.979   5.118
 1532SOL     OW 4821   0.008   5.050   3.924
 1532SOL    HW1 4822  -0.085   5.071   3.893
 1532SOL    HW2 4823   0.018   4.951   3.937
 1533SOL     OW 4824   1.002   4.520   4.962
 1533SOL    HW1 4825   1.043   4.488   5.048
 1533SOL    HW2 4826   0.906   4.493   4.959
 1534SOL     OW 4827   0.040   4.268   4.838
 1534SOL    HW1 4828   0.125   4.235   4.797
 1534SOL    HW2 4829   0.053   4.283   4.936
 1535SOL     OW 4830   0.815   4.296   4.049
 1535SOL    HW1 4831   0.822   4.207   4.003
 1535SOL    HW2 4832   0.721   4.330   4.041
 1536SOL     OW 4833   1.657   4.328   4.930
 1536SOL    HW1 4834   1.619   4.259   4.992
 1536SOL    HW2 4835   1.739   4.292   4.886
 1537SOL     OW 4836   0.671   4.188   4.993
 1537SOL    HW1 4837   0.637   4.099   4.963
 1537SOL    HW2 4838   0.697   4.242   4.913
 1538SOL     OW 4839   0.473   4.224   3.915
 1538SOL    HW1 4840   0.534   4.304   3.919
 1538SOL    HW2 4841   0.378   4.255   3.922
 1539SOL     OW 4842   1.347   4.783   4.958
 1539SOL    HW1 4843   1.371   4.720   4.884
 1539SOL    HW2 4844   1.257   4.823   4.940
 1540SOL     OW 4845   1.302   4.579   4.033
 1540SOL    HW1 4846   1.216   4.548   4.075
 1540SOL    HW2 4847   1.298   4.565   3.934
 1541SOL     OW 4848   0.083   4.982   4.746
 1541SOL    HW1 4849   0.078   4.981   4.846
 1541SOL    HW2 4850   0.000   4.941   4.708
 1542SOL     OW 4851   1.726   3.859   4.247
 1542SOL    HW1 4852   1.799   3.842   4.180
 1542SOL    HW2 4853   1.695   3.772   4.285
 1543SOL     OW 4854   1.280   4.651   4.396
 1543SOL    HW1 4855   1.340   4.570   4.398
 1543SOL    HW2 4856   1.320   4.720   4.336
 1544SOL     OW 4857   0.830   4.997   5.146
 1544SOL    HW1 4858   0.825   5.030   5.241
 1544SOL    HW2 4859   0.744   5.016   5.100
 1545SOL     OW 4860   1.841   3.899   4.687
 1545SOL    HW1 4861   1.880   3.814   4.651
 1545SOL    HW2 4862   1.743   3.901   4.668
 1546SOL     OW 4863   0.263   4.050   4.444
 1546SOL    HW1 4864   0.184   4.101   4.410
 1546SOL    HW2 4865   0.254   4.035   4.542
 1547SOL     OW 4866   1.194   5.336   3.755
 1547SOL    HW1 4867   1.200   5.243   3.792
 1547SOL    HW2 4868   1.135   5.336   3.675
 1548SOL     OW 4869   0.822   4.726   5.096
 1548SOL    HW1 4870   0.862   4.725   5.004
 1548SOL    HW2 4871   0.832   4.818   5.136
 1549SOL     OW 4872   0.916   4.634   4.015
 1549SOL    HW1 4873   0.979   4.672   3.947
 1549SOL    HW2 4874   0.956   4.551   4.054
 1550SOL     OW 4875   1.039   4.822   4.420
 1550SOL    HW1 4876   0.969   4.775   4.474
 1550SOL    HW2 4877   1.098   4.754   4.377
 1551SOL     OW 4878   1.014   3.960   4.695
 1551SOL    HW1 4879   1.006   3.924   4.602
 1551SOL    HW2 4880   1.012   3.884   4.760
 1552SOL     OW 4881   1.709   4.109   5.105
 1552SOL    HW1 4882   1.782   4.178   5.109
 1552SOL    HW2 4883   1.737   4.034   5.046
 1553SOL     OW 4884   0.075   4.069   3.757
 1553SOL    HW1 4885  -0.017   4.041   3.728
 1553SOL    HW2 4886   0.106   4.146   3.701
 1554SOL     OW 4887   0.072   3.890   4.042
 1554SOL    HW1 4888   0.055   3.973   3.988
 1554SOL    HW2 4889   0.162   3.853   4.020
 1555SOL     OW 4890   1.450   4.944   5.357
 1555SOL    HW1 4891   1.441   4.934   5.456
 1555SOL    HW2 4892   1.546   4.937   5.331
 1556SOL     OW 4893   1.674   4.607   4.978
 1556SOL    HW1 4894   1.647   4.518   4.941
 1556SOL    HW2 4895   1.675   4.675   4.905
 1557SOL     OW 4896   1.225   4.049   4.173
 1557SOL    HW1 4897   1.290   3.975   4.162
 1557SOL    HW2 4898   1.245   4.099   4.257
 1558SOL     OW 4899   0.594   4.469   4.376
 1558SOL    HW1 4900   0.644   4.554   4.357
 1558SOL    HW2 4901   0.506   4.471   4.328
 1559SOL     OW 4902   1.730   4.658   5.241
 1559SOL    HW1 4903   1.768   4.749   5.256
 1559SOL    HW2 4904   1.722   4.641   5.142
 1560SOL     OW 4905   0.859   4.680   4.585
 1560SOL    HW1 4906   0.913   4.611   4.633
 1560SOL    HW2 4907   0.827   4.749   4.651
 1561SOL     OW 4908   1.083   4.708   3.811
 1561SOL    HW1 4909   1.060   4.761   3.729
 1561SOL    HW2 4910   1.164   4.652   3.792
 1562SOL     OW 4911   0.079   4.964   4.377
 1562SOL    HW1 4912   0.078   4.917   4.465
 1562SOL    HW2 4913   0.161   4.936   4.326
 1563SOL     OW 4914   1.824   3.916   4.951
 1563SOL    HW1 4915   1.820   3.826   4.995
 1563SOL    HW2 4916   1.827   3.905   4.852
 1564SOL     OW 4917   0.428   4.148   4.244
 1564SOL    HW1 4918   0.458   4.076   4.182
 1564SOL    HW2 4919   0.389   4.108   4.327
 1565SOL     OW 4920   1.424   3.938   4.836
 1565SOL    HW1 4921   1.476   3.873   4.891
 1565SOL    HW2 4922   1.375   4.001   4.897
 1566SOL     OW 4923   1.001   3.758   4.878
 1566SOL    HW1 4924   0.938   3.686   4.847
 1566SOL    HW2 4925   1.094   3.722   4.878
 1567SOL     OW 4926   0.770   5.054   4.025
 1567SOL    HW1 4927   0.724   4.967   4.042
 1567SOL    HW2 4928   0.861   5.051   4.066
 1568SOL     OW 4929   1.352   3.776   3.892
 1568SOL    HW1 4930   1.387   3.735   3.808
 1568SOL    HW2 4931   1.262   3.738   3.912
 1569SOL     OW 4932   1.300   4.177   4.415
 1569SOL    HW1 4933   1.241   4.257   4.419
 1569SOL    HW2 4934   1.315   4.142   4.508
 1570SOL     OW 4935   1.593   3.945   4.606
 1570SOL    HW1 4936   1.509   3.944   4.660
 1570SOL    HW2 4937   1.595   4.028   4.550
 1571SOL     OW 4938   0.039   4.801   4.024
 1571SOL    HW1 4939   0.138   4.790   4.015
 1571SOL    HW2 4940  -0.001   4.715   4.056
 1572SOL     OW 4941   2.092   0.628   0.113
 1572SOL    HW1 4942   1.999   0.626   0.150
 1572SOL    HW2 4943   2.093   0.589   0.021
 1573SOL     OW 4944   2.087   0.275   0.996
 1573SOL    HW1 4945   2.122   0.258   1.088
 1573SOL    HW2 4946   1.999   0.230   0.984
 1574SOL     OW 4947   1.881   0.368   0.647
 1574SOL    HW1 4948   1.799   0.411   0.686
 1574SOL    HW2 4949   1.853   0.295   0.584
 1575SOL     OW 4950   2.431   1.275   1.165
 1575SOL    HW1 4951   2.338   1.268   1.128
 1575SOL    HW2 4952   2.442   1.364   1.209
 1576SOL     OW 4953   3.417   1.511   0.703
 1576SOL    HW1 4954   3.360   1.495   0.784
 1576SOL    HW2 4955   3.358   1.521   0.623
 1577SOL     OW 4956   2.997   0.703   0.717
 1577SOL    HW1 4957   3.054   0.781   0.692
 1577SOL    HW2 4958   2.937   0.729   0.793
 1578SOL     OW 4959   3.617   0.607   0.231
 1578SOL    HW1 4960   3.605   0.594   0.132
 1578SOL    HW2 4961   3.587   0.526   0.280
 1579SOL     OW 4962   2.630   1.144   1.023
 1579SOL    HW1 4963   2.552   1.161   1.083
 1579SOL    HW2 4964   2.664   1.231   0.987
 1580SOL     OW 4965   2.712   0.798   1.823
 1580SOL    HW1 4966   2.708   0.874   1.888
 1580SOL    HW2 4967   2.734   0.834   1.732
 1581SOL     OW 4968   2.547   1.012   0.665
 1581SOL    HW1 4969   2.616   0.996   0.735
 1581SOL    HW2 4970   2.474   1.069   0.703
 1582SOL     OW 4971   2.548   1.161   1.803
 1582SOL    HW1 4972   2.608   1.240   1.817
 1582SOL    HW2 4973   2.462   1.192   1.762
 1583SOL     OW 4974   2.197   1.435   1.061
 1583SOL    HW1 4975   2.119   1.404   1.008
 1583SOL    HW2 4976   2.255   1.493   1.004
 1584SOL     OW 4977   3.322   1.505   1.339
 1584SOL    HW1 4978   3.346   1.599   1.365
 1584SOL    HW2 4979   3.306   1.451   1.421
 1585SOL     OW 4980   2.300   0.392   1.499
 1585SOL    HW1 4981   2.382   0.336   1.508
 1585SOL    HW2 4982   2.219   0.334   1.503
 1586SOL     OW 4983   3.465   0.447   0.737
 1586SOL    HW1 4984   3.391   0.493   0.687
 1586SOL    HW2 4985   3.516   0.515   0.790
 1587SOL     OW 4986   2.093   1.713   0.483
 1587SOL    HW1 4987   2.127   1.790   0.537
 1587SOL    HW2 4988   2.137   1.713   0.393
 1588SOL     OW 4989   2.989   1.341   1.690
 1588SOL    HW1 4990   3.036   1.341   1.778
 1588SOL    HW2 4991   2.941   1.254   1.679
 1589SOL     OW 4992   2.092   1.434   0.538
 1589SOL    HW1 4993   2.066   1.530   0.538
 1589SOL    HW2 4994   2.021   1.380   0.583
 1590SOL     OW 4995   2.102   1.091   0.886
 1590SOL    HW1 4996   2.116   1.007   0.938
 1590SOL    HW2 4997   2.047   1.155   0.941
 1591SOL     OW 4998   2.482   1.786   1.439
 1591SOL    HW1 4999   2.390   1.769   1.474
 1591SOL    HW2 5000   2.510   1.878   1.465
 1592SOL     OW 5001   2.468   0.964   0.123
 1592SOL    HW1 5002   2.475   1.048   0.069
 1592SOL    HW2 5003   2.514   0.977   0.211
 1593SOL     OW 5004   3.456   0.114   1.480
 1593SOL    HW1 5005   3.438   0.181   1.408
 1593SOL    HW2 5006   3.453   0.160   1.569
 1594SOL     OW 5007   1.984   0.643   0.563
 1594SOL    HW1 5008   1.939   0.555   0.580
 1594SOL    HW2 5009   1.983   0.697   0.647
 1595SOL     OW 5010   3.704   1.767   0.359
 1595SOL    HW1 5011   3.758   1.738   0.439
 1595SOL    HW2 5012   3.734   1.857   0.330
 1596SOL     OW 5013   1.889   1.596   0.117
 1596SOL    HW1 5014   1.870   1.500   0.138
 1596SOL    HW2 5015   1.856   1.654   0.192
 1597SOL     OW 5016   3.551   0.922   0.612
 1597SOL    HW1 5017   3.646   0.893   0.620
 1597SOL    HW2 5018   3.543   0.987   0.537
 1598SOL     OW 5019   3.503   1.108   0.432
 1598SOL    HW1 5020   3.589   1.110   0.380
 1598SOL    HW2 5021   3.517   1.155   0.520
 1599SOL     OW 5022   1.975   0.737   1.597
 1599SOL    HW1 5023   2.063   0.724   1.642
 1599SOL    HW2 5024   1.962   0.834   1.575
 1600SOL     OW 5025   2.475   1.365   0.726
 1600SOL    HW1 5026   2.426   1.278   0.735
 1600SOL    HW2 5027   2.452   1.408   0.639
 1601SOL     OW 5028   3.155   1.228   1.423
 1601SOL    HW1 5029   3.192   1.155   1.365
 1601SOL    HW2 5030   3.207   1.233   1.508
 1602SOL     OW 5031   2.671   0.004   0.502
 1602SOL    HW1 5032   2.711   0.095   0.493
 1602SOL    HW2 5033   2.571   0.012   0.508
 1603SOL     OW 5034   2.059   0.976   1.264
 1603SOL    HW1 5035   2.148   0.931   1.250
 1603SOL    HW2 5036   1.986   0.911   1.245
 1604SOL     OW 5037   3.387   0.999   0.190
 1604SOL    HW1 5038   3.324   0.923   0.203
 1604SOL    HW2 5039   3.435   1.017   0.276
 1605SOL     OW 5040   3.049   1.792   1.616
 1605SOL    HW1 5041   3.073   1.852   1.540
 1605SOL    HW2 5042   3.056   1.697   1.586
 1606SOL     OW 5043   2.179   0.251   1.801
 1606SOL    HW1 5044   2.250   0.322   1.807
 1606SOL    HW2 5045   2.091   0.290   1.829
 1607SOL     OW 5046   3.328   1.417   0.953
 1607SOL    HW1 5047   3.269   1.423   1.033
 1607SOL    HW2 5048   3.313   1.329   0.907
 1608SOL     OW 5049   3.529   1.714   0.572
 1608SOL    HW1 5050   3.488   1.691   0.484
 1608SOL    HW2 5051   3.511   1.640   0.637
 1609SOL     OW 5052   2.460   0.729   0.270
 1609SOL    HW1 5053   2.484   0.798   0.202
 1609SOL    HW2 5054   2.382   0.762   0.324
 1610SOL     OW 5055   3.143   0.345   0.944
 1610SOL    HW1 5056   3.057   0.295   0.931
 1610SOL    HW2 5057   3.205   0.291   1.000
 1611SOL     OW 5058   3.438   1.662   0.307
 1611SOL    HW1 5059   3.527   1.708   0.310
 1611SOL    HW2 5060   3.417   1.638   0.212
 1612SOL     OW 5061   2.669   0.605   1.465
 1612SOL    HW1 5062   2.622   0.602   1.554
 1612SOL    HW2 5063   2.618   0.550   1.399
 1613SOL     OW 5064   3.256   0.469   1.674
 1613SOL    HW1 5065   3.236   0.512   1.762
 1613SOL    HW2 5066   3.334   0.407   1.683
 1614SOL     OW 5067   2.835   0.890   1.572
 1614SOL    HW1 5068   2.881   0.806   1.543
 1614SOL    HW2 5069   2.779   0.924   1.497
 1615SOL     OW 5070   2.853   0.410   1.242
 1615SOL    HW1 5071   2.776   0.444   1.296
 1615SOL    HW2 5072   2.819   0.359   1.163
 1616SOL     OW 5073   2.903   0.701   0.429
 1616SOL    HW1 5074   2.929   0.697   0.525
 1616SOL    HW2 5075   2.818   0.650   0.415
 1617SOL     OW 5076   1.938   0.811   0.789
 1617SOL    HW1 5077   2.037   0.799   0.798
 1617SOL    HW2 5078   1.914   0.906   0.810
 1618SOL     OW 5079   1.992   1.821   1.571
 1618SOL    HW1 5080   1.982   1.806   1.670
 1618SOL    HW2 5081   1.906   1.857   1.535
 1619SOL     OW 5082   2.727   0.348   0.195
 1619SOL    HW1 5083   2.786   0.411   0.146
 1619SOL    HW2 5084   2.746   0.254   0.166
 1620SOL     OW 5085   3.581   0.585   1.831
 1620SOL    HW1 5086   3.555   0.674   1.795
 1620SOL    HW2 5087   3.579   0.517   1.758
 1621SOL     OW 5088   3.224   1.144   0.545
 1621SOL    HW1 5089   3.307   1.115   0.497
 1621SOL    HW2 5090   3.175   1.211   0.489
 1622SOL     OW 5091   2.412   0.196   0.885
 1622SOL    HW1 5092   2.407   0.191   0.985
 1622SOL    HW2 5093   2.414   0.292   0.856
 1623SOL     OW 5094   2.870   1.456   0.477
 1623SOL    HW1 5095   2.824   1.528   0.425
 1623SOL    HW2 5096   2.866   1.476   0.575
 1624SOL     OW 5097   2.213   1.801   0.853
 1624SOL    HW1 5098   2.263   1.715   0.859
 1624SOL    HW2 5099   2.278   1.878   0.850
 1625SOL     OW 5100   3.657   1.066   0.873
 1625SOL    HW1 5101   3.595   1.051   0.797
 1625SOL    HW2 5102   3.605   1.077   0.958
 1626SOL     OW 5103   3.089   1.550   1.506
 1626SOL    HW1 5104   3.095   1.473   1.570
 1626SOL    HW2 5105   3.037   1.524   1.426
 1627SOL     OW 5106   2.183   0.943   0.242
 1627SOL    HW1 5107   2.265   0.982   0.200
 1627SOL    HW2 5108   2.156   0.861   0.193
 1628SOL     OW 5109   3.320   0.735   0.728
 1628SOL    HW1 5110   3.315   0.670   0.803
 1628SOL    HW2 5111   3.400   0.794   0.741
 1629SOL     OW 5112   2.323   1.266   1.727
 1629SOL    HW1 5113   2.273   1.267   1.641
 1629SOL    HW2 5114   2.260   1.248   1.803
 1630SOL     OW 5115   2.973   1.776   0.237
 1630SOL    HW1 5116   2.913   1.714   0.287
 1630SOL    HW2 5117   3.004   1.732   0.152
 1631SOL     OW 5118   2.064   0.285   1.498
 1631SOL    HW1 5119   1.984   0.345   1.485
 1631SOL    HW2 5120   2.054   0.236   1.584
 1632SOL     OW 5121   3.494   1.377   0.081
 1632SOL    HW1 5122   3.462   1.471   0.071
 1632SOL    HW2 5123   3.418   1.314   0.069
 1633SOL     OW 5124   2.326   1.743   0.323
 1633SOL    HW1 5125   2.359   1.782   0.409
 1633SOL    HW2 5126   2.402   1.736   0.258
 1634SOL     OW 5127   3.262   0.107   0.426
 1634SOL    HW1 5128   3.238   0.070   0.336
 1634SOL    HW2 5129   3.361   0.123   0.430
 1635SOL     OW 5130   2.111   1.785   1.241
 1635SOL    HW1 5131   2.168   1.720   1.291
 1635SOL    HW2 5132   2.095   1.752   1.148
 1636SOL     OW 5133   2.802   1.698   0.904
 1636SOL    HW1 5134   2.882   1.641   0.925
 1636SOL    HW2 5135   2.753   1.658   0.827
 1637SOL     OW 5136   2.244   0.700   0.480
 1637SOL    HW1 5137   2.289   0.610   0.477
 1637SOL    HW2 5138   2.150   0.689   0.513
 1638SOL     OW 5139   3.409   0.222   1.729
 1638SOL    HW1 5140   3.404   0.259   1.821
 1638SOL    HW2 5141   3.337   0.153   1.717
 1639SOL     OW 5142   2.643   0.264   1.749
 1639SOL    HW1 5143   2.710   0.203   1.792
 1639SOL    HW2 5144   2.570   0.283   1.814
 1640SOL     OW 5145   2.750   1.514   1.195
 1640SOL    HW1 5146   2.727   1.489   1.101
 1640SOL    HW2 5147   2.811   1.445   1.234
 1641SOL     OW 5148   3.213   0.590   1.433
 1641SOL    HW1 5149   3.241   0.547   1.518
 1641SOL    HW2 5150   3.238   0.686   1.434
 1642SOL     OW 5151   2.665   1.402   0.924
 1642SOL    HW1 5152   2.755   1.416   0.882
 1642SOL    HW2 5153   2.594   1.404   0.853
 1643SOL     OW 5154   2.784   0.503   0.899
 1643SOL    HW1 5155   2.759   0.494   0.803
 1643SOL    HW2 5156   2.832   0.421   0.930
 1644SOL     OW 5157   2.401   0.064   0.512
 1644SOL    HW1 5158   2.320   0.065   0.570
 1644SOL    HW2 5159   2.404   0.147   0.457
 1645SOL     OW 5160   3.296   1.188   0.041
 1645SOL    HW1 5161   3.328   1.112   0.098
 1645SOL    HW2 5162   3.204   1.215   0.071
 1646SOL     OW 5163   2.159   0.035   0.171
 1646SOL    HW1 5164   2.208   0.119   0.150
 1646SOL    HW2 5165   2.221  -0.030   0.216
 1647SOL     OW 5166   2.797   0.236   0.480
 1647SOL    HW1 5167   2.749   0.277   0.402
 1647SOL    HW2 5168   2.896   0.234   0.461
 1648SOL     OW 5169   2.938   0.683   1.464
 1648SOL    HW1 5170   2.858   0.622   1.467
 1648SOL    HW2 5171   3.019   0.630   1.440
 1649SOL     OW 5172   3.089   1.570   0.793
 1649SOL    HW1 5173   3.110   1.644   0.728
 1649SOL    HW2 5174   3.157   1.570   0.866
 1650SOL     OW 5175   2.321   1.152   0.741
 1650SOL    HW1 5176   2.250   1.125   0.806
 1650SOL    HW2 5177   2.295   1.124   0.648
 1651SOL     OW 5178   3.133   1.797   0.591
 1651SOL    HW1 5179   3.177   1.861   0.527
 1651SOL    HW2 5180   3.083   1.849   0.661
 1652SOL     OW 5181   2.894   0.549   0.016
 1652SOL    HW1 5182   2.853   0.631  -0.023
 1652SOL    HW2 5183   2.958   0.575   0.089
 1653SOL     OW 5184   1.940   0.556   1.386
 1653SOL    HW1 5185   2.032   0.555   1.345
 1653SOL    HW2 5186   1.934   0.630   1.453
 1654SOL     OW 5187   2.423   0.222   1.147
 1654SOL    HW1 5188   2.461   0.138   1.184
 1654SOL    HW2 5189   2.335   0.241   1.191
 1655SOL     OW 5190   2.728   0.454   0.642
 1655SOL    HW1 5191   2.696   0.526   0.580
 1655SOL    HW2 5192   2.752   0.373   0.589
 1656SOL     OW 5193   2.879   0.039   0.753
 1656SOL    HW1 5194   2.807   0.044   0.684
 1656SOL    HW2 5195   2.855  -0.030   0.822
 1657SOL     OW 5196   3.291   1.173   0.867
 1657SOL    HW1 5197   3.236   1.089   0.860
 1657SOL    HW2 5198   3.317   1.202   0.775
 1658SOL     OW 5199   3.328   0.590   0.992
 1658SOL    HW1 5200   3.298   0.495   0.999
 1658SOL    HW2 5201   3.401   0.606   1.058
 1659SOL     OW 5202   3.719   0.833   0.377
 1659SOL    HW1 5203   3.761   0.769   0.441
 1659SOL    HW2 5204   3.681   0.782   0.299
 1660SOL     OW 5205   2.350   1.385   0.174
 1660SOL    HW1 5206   2.263   1.370   0.221
 1660SOL    HW2 5207   2.333   1.411   0.079
 1661SOL     OW 5208   3.526   1.280   0.657
 1661SOL    HW1 5209   3.625   1.288   0.671
 1661SOL    HW2 5210   3.481   1.364   0.688
 1662SOL     OW 5211   3.252   0.575   0.078
 1662SOL    HW1 5212   3.198   0.554   0.159
 1662SOL    HW2 5213   3.343   0.534   0.087
 1663SOL     OW 5214   2.389   0.256   0.328
 1663SOL    HW1 5215   2.416   0.197   0.253
 1663SOL    HW2 5216   2.389   0.351   0.297
 1664SOL     OW 5217   3.616   1.223   1.588
 1664SOL    HW1 5218   3.707   1.184   1.575
 1664SOL    HW2 5219   3.624   1.319   1.612
 1665SOL     OW 5220   2.926   1.347   1.340
 1665SOL    HW1 5221   2.846   1.324   1.395
 1665SOL    HW2 5222   3.009   1.321   1.389
 1666SOL     OW 5223   3.454   1.629   1.625
 1666SOL    HW1 5224   3.481   1.663   1.535
 1666SOL    HW2 5225   3.533   1.591   1.671
 1667SOL     OW 5226   2.973   1.195   1.100
 1667SOL    HW1 5227   2.933   1.239   1.181
 1667SOL    HW2 5228   2.932   1.232   1.017
 1668SOL     OW 5229   3.500   1.099   1.079
 1668SOL    HW1 5230   3.505   1.180   1.138
 1668SOL    HW2 5231   3.414   1.101   1.028
 1669SOL     OW 5232   2.777   0.089   1.402
 1669SOL    HW1 5233   2.802   0.069   1.307
 1669SOL    HW2 5234   2.849   0.145   1.444
 1670SOL     OW 5235   2.842   1.116   1.719
 1670SOL    HW1 5236   2.743   1.122   1.729
 1670SOL    HW2 5237   2.865   1.036   1.663
 1671SOL     OW 5238   2.567   1.050   0.368
 1671SOL    HW1 5239   2.553   1.057   0.467
 1671SOL    HW2 5240   2.651   0.999   0.350
 1672SOL     OW 5241   2.272   0.813   1.251
 1672SOL    HW1 5242   2.358   0.825   1.301
 1672SOL    HW2 5243   2.230   0.726   1.278
 1673SOL     OW 5244   3.136   0.386   1.262
 1673SOL    HW1 5245   3.157   0.460   1.326
 1673SOL    HW2 5246   3.047   0.403   1.219
 1674SOL     OW 5247   1.926   1.564   1.331
 1674SOL    HW1 5248   1.880   1.646   1.297
 1674SOL    HW2 5249   2.024   1.583   1.340
 1675SOL     OW 5250   2.229   1.100   0.501
 1675SOL    HW1 5251   2.222   1.183   0.445
 1675SOL    HW2 5252   2.233   1.020   0.441
 1676SOL     OW 5253   2.428   0.537   0.865
 1676SOL    HW1 5254   2.440   0.603   0.791
 1676SOL    HW2 5255   2.474   0.571   0.948
 1677SOL     OW 5256   3.114   1.348   0.388
 1677SOL    HW1 5257   3.164   1.425   0.428
 1677SOL    HW2 5258   3.019   1.350   0.420
 1678SOL     OW 5259   3.134   1.445   1.142
 1678SOL    HW1 5260   3.181   1.458   1.229
 1678SOL    HW2 5261   3.068   1.371   1.151
 1679SOL     OW 5262   3.444   0.639   0.472
 1679SOL    HW1 5263   3.413   0.700   0.545
 1679SOL    HW2 5264   3.494   0.691   0.403
 1680SOL     OW 5265   2.216   1.510   1.329
 1680SOL    HW1 5266   2.195   1.466   1.242
 1680SOL    HW2 5267   2.313   1.536   1.332
 1681SOL     OW 5268   2.264   0.751   1.598
 1681SOL    HW1 5269   2.332   0.806   1.551
 1681SOL    HW2 5270   2.304   0.663   1.625
 1682SOL     OW 5271   3.449   0.779   1.670
 1682SOL    HW1 5272   3.357   0.817   1.665
 1682SOL    HW2 5273   3.509   0.826   1.605
 1683SOL     OW 5274   2.875   0.105   1.770
 1683SOL    HW1 5275   2.881   0.190   1.718
 1683SOL    HW2 5276   2.907   0.029   1.713
 1684SOL     OW 5277   2.366   0.050   1.740
 1684SOL    HW1 5278   2.324  -0.007   1.670
 1684SOL    HW2 5279   2.300   0.119   1.772
 1685SOL     OW 5280   2.435   0.870   1.029
 1685SOL    HW1 5281   2.479   0.959   1.020
 1685SOL    HW2 5282   2.372   0.870   1.106
 1686SOL     OW 5283   3.222   0.862   1.045
 1686SOL    HW1 5284   3.147   0.862   0.979
 1686SOL    HW2 5285   3.259   0.770   1.054
 1687SOL     OW 5286   3.071   0.525   0.275
 1687SOL    HW1 5287   3.084   0.441   0.329
 1687SOL    HW2 5288   3.042   0.599   0.335
 1688SOL     OW 5289   2.169   0.213   1.231
 1688SOL    HW1 5290   2.146   0.250   1.321
 1688SOL    HW2 5291   2.139   0.118   1.225
 1689SOL     OW 5292   1.899   1.310   1.282
 1689SOL    HW1 5293   1.952   1.261   1.350
 1689SOL    HW2 5294   1.921   1.408   1.287
 1690SOL     OW 5295   2.594   0.634   1.064
 1690SOL    HW1 5296   2.653   0.608   0.988
 1690SOL    HW2 5297   2.566   0.730   1.053
 1691SOL     OW 5298   3.590   0.935   1.854
 1691SOL    HW1 5299   3.544   0.928   1.765
 1691SOL    HW2 5300   3.528   0.979   1.920
 1692SOL     OW 5301   2.169   0.063   0.618
 1692SOL    HW1 5302   2.158   0.157   0.651
 1692SOL    HW2 5303   2.164   0.000   0.695
 1693SOL     OW 5304   3.484   0.367   0.374
 1693SOL    HW1 5305   3.486   0.291   0.438
 1693SOL    HW2 5306   3.436   0.444   0.414
 1694SOL     OW 5307   2.885   0.766   0.966
 1694SOL    HW1 5308   2.900   0.787   1.062
 1694SOL    HW2 5309   2.855   0.671   0.957
 1695SOL     OW 5310   2.842   1.573   1.700
 1695SOL    HW1 5311   2.822   1.617   1.612
 1695SOL    HW2 5312   2.881   1.482   1.684
 1696SOL     OW 5313   3.721   1.518   1.605
 1696SOL    HW1 5314   3.735   1.545   1.510
 1696SOL    HW2 5315   3.804   1.540   1.658
 1697SOL     OW 5316   2.212   0.898   1.804
 1697SOL    HW1 5317   2.288   0.942   1.852
 1697SOL    HW2 5318   2.247   0.851   1.722
 1698SOL     OW 5319   3.402   0.274   0.125
 1698SOL    HW1 5320   3.341   0.199   0.148
 1698SOL    HW2 5321   3.424   0.326   0.208
 1699SOL     OW 5322   3.165   0.838   0.042
 1699SOL    HW1 5323   3.199   0.745   0.057
 1699SOL    HW2 5324   3.183   0.865  -0.053
 1700SOL     OW 5325   2.930   1.333   0.849
 1700SOL    HW1 5326   2.937   1.249   0.794
 1700SOL    HW2 5327   2.992   1.402   0.813
 1701SOL     OW 5328   2.181   0.810   0.949
 1701SOL    HW1 5329   2.274   0.846   0.954
 1701SOL    HW2 5330   2.175   0.725   1.001
 1702SOL     OW 5331   2.201   0.509   1.006
 1702SOL    HW1 5332   2.149   0.426   0.989
 1702SOL    HW2 5333   2.278   0.514   0.942
 1703SOL     OW 5334   3.000   0.380   1.678
 1703SOL    HW1 5335   2.955   0.443   1.742
 1703SOL    HW2 5336   3.093   0.411   1.661
 1704SOL     OW 5337   3.022   0.207   1.477
 1704SOL    HW1 5338   3.022   0.271   1.554
 1704SOL    HW2 5339   3.050   0.255   1.394
 1705SOL     OW 5340   1.950   1.801   0.927
 1705SOL    HW1 5341   1.908   1.715   0.900
 1705SOL    HW2 5342   2.044   1.804   0.893
 1706SOL     OW 5343   2.366   1.568   0.910
 1706SOL    HW1 5344   2.432   1.642   0.919
 1706SOL    HW2 5345   2.410   1.489   0.868
 1707SOL     OW 5346   2.864   0.796   1.238
 1707SOL    HW1 5347   2.905   0.764   1.324
 1707SOL    HW2 5348   2.768   0.769   1.235
 1708SOL     OW 5349   1.902   0.544   1.114
 1708SOL    HW1 5350   1.987   0.511   1.073
 1708SOL    HW2 5351   1.915   0.559   1.212
 1709SOL     OW 5352   2.051   0.520   1.722
 1709SOL    HW1 5353   2.110   0.480   1.652
 1709SOL    HW2 5354   1.993   0.591   1.681
 1710SOL     OW 5355   3.231   0.950   1.660
 1710SOL    HW1 5356   3.270   1.039   1.680
 1710SOL    HW2 5357   3.241   0.930   1.563
 1711SOL     OW 5358   2.677   0.572   0.325
 1711SOL    HW1 5359   2.684   0.483   0.279
 1711SOL    HW2 5360   2.583   0.606   0.317
 1712SOL     OW 5361   3.519   0.604   1.206
 1712SOL    HW1 5362   3.481   0.535   1.268
 1712SOL    HW2 5363   3.601   0.568   1.162
 1713SOL     OW 5364   2.114   1.564   1.744
 1713SOL    HW1 5365   2.084   1.621   1.820
 1713SOL    HW2 5366   2.107   1.467   1.770
 1714SOL     OW 5367   2.533   0.464   1.269
 1714SOL    HW1 5368   2.499   0.375   1.239
 1714SOL    HW2 5369   2.559   0.518   1.189
 1715SOL     OW 5370   2.792   1.678   1.465
 1715SOL    HW1 5371   2.768   1.660   1.370
 1715SOL    HW2 5372   2.822   1.772   1.475
 1716SOL     OW 5373   2.335   0.500   0.191
 1716SOL    HW1 5374   2.396   0.580   0.195
 1716SOL    HW2 5375   2.240   0.531   0.198
 1717SOL     OW 5376   2.021   1.137   1.466
 1717SOL    HW1 5377   2.043   1.076   1.542
 1717SOL    HW2 5378   2.031   1.088   1.380
 1718SOL     OW 5379   3.209   1.059   1.234
 1718SOL    HW1 5380   3.233   0.996   1.160
 1718SOL    HW2 5381   3.119   1.099   1.216
 1719SOL     OW 5382   3.164   0.855   0.309
 1719SOL    HW1 5383   3.078   0.824   0.351
 1719SOL    HW2 5384   3.160   0.841   0.210
 1720SOL     OW 5385   3.621   1.747   1.154
 1720SOL    HW1 5386   3.682   1.777   1.081
 1720SOL    HW2 5387   3.583   1.658   1.132
 1721SOL     OW 5388   3.114   1.731   1.128
 1721SOL    HW1 5389   3.198   1.736   1.074
 1721SOL    HW2 5390   3.091   1.635   1.146
 1722SOL     OW 5391   1.945   1.258   1.022
 1722SOL    HW1 5392   1.940   1.257   1.122
 1722SOL    HW2 5393   1.862   1.217   0.984
 1723SOL     OW 5394   2.550   1.662   1.716
 1723SOL    HW1 5395   2.494   1.743   1.725
 1723SOL    HW2 5396   2.602   1.666   1.630
 1724SOL     OW 5397   3.588   0.135   0.523
 1724SOL    HW1 5398   3.661   0.118   0.456
 1724SOL    HW2 5399   3.557   0.048   0.561
 1725SOL     OW 5400   3.250   1.573   0.477
 1725SOL    HW1 5401   3.317   1.585   0.403
 1725SOL    HW2 5402   3.210   1.662   0.500
 1726SOL     OW 5403   1.992   1.794   1.851
 1726SOL    HW1 5404   1.951   1.720   1.904
 1726SOL    HW2 5405   2.056   1.845   1.909
 1727SOL     OW 5406   3.142   0.927   0.672
 1727SOL    HW1 5407   3.202   0.846   0.674
 1727SOL    HW2 5408   3.182   0.996   0.612
 1728SOL     OW 5409   2.692   1.273   1.422
 1728SOL    HW1 5410   2.687   1.306   1.517
 1728SOL    HW2 5411   2.606   1.292   1.376
 1729SOL     OW 5412   2.534   1.616   0.154
 1729SOL    HW1 5413   2.543   1.626   0.055
 1729SOL    HW2 5414   2.494   1.527   0.175
 1730SOL     OW 5415   3.512   1.720   1.394
 1730SOL    HW1 5416   3.565   1.730   1.310
 1730SOL    HW2 5417   3.485   1.810   1.428
 1731SOL     OW 5418   3.703   0.175   0.963
 1731SOL    HW1 5419   3.742   0.090   0.927
 1731SOL    HW2 5420   3.605   0.177   0.944
 1732SOL     OW 5421   2.125   0.326   0.720
 1732SOL    HW1 5422   2.046   0.377   0.686
 1732SOL    HW2 5423   2.116   0.311   0.818
 1733SOL     OW 5424   3.056   1.612   0.031
 1733SOL    HW1 5425   3.062   1.519   0.068
 1733SOL    HW2 5426   2.997   1.612  -0.049
 1734SOL     OW 5427   2.684   1.002   1.372
 1734SOL    HW1 5428   2.724   1.001   1.280
 1734SOL    HW2 5429   2.694   1.094   1.412
 1735SOL     OW 5430   2.778   0.910   0.291
 1735SOL    HW1 5431   2.841   0.948   0.223
 1735SOL    HW2 5432   2.818   0.827   0.330
 1736SOL     OW 5433   3.366   1.607   0.044
 1736SOL    HW1 5434   3.274   1.644   0.051
 1736SOL    HW2 5435   3.404   1.627  -0.046
 1737SOL     OW 5436   2.234   1.288   1.490
 1737SOL    HW1 5437   2.221   1.381   1.456
 1737SOL    HW2 5438   2.150   1.236   1.477
 1738SOL     OW 5439   3.476   1.292   1.289
 1738SOL    HW1 5440   3.536   1.295   1.369
 1738SOL    HW2 5441   3.401   1.356   1.302
 1739SOL     OW 5442   2.901   1.098   0.696
 1739SOL    HW1 5443   2.831   1.051   0.750
 1739SOL    HW2 5444   2.960   1.030   0.653
 1740SOL     OW 5445   2.876   0.236   0.971
 1740SOL    HW1 5446   2.868   0.200   0.878
 1740SOL    HW2 5447   2.874   0.160   1.036
 1741SOL     OW 5448   2.452   1.487   0.491
 1741SOL    HW1 5449   2.494   1.429   0.421
 1741SOL    HW2 5450   2.408   1.566   0.447
 1742SOL     OW 5451   3.571   0.385   1.381
 1742SOL    HW1 5452   3.644   0.454   1.385
 1742SOL    HW2 5453   3.599   0.310   1.322
 1743SOL     OW 5454   2.117   1.348   0.290
 1743SOL    HW1 5455   2.021   1.349   0.263
 1743SOL    HW2 5456   2.129   1.401   0.374
 1744SOL     OW 5457   1.967   1.013   1.726
 1744SOL    HW1 5458   1.890   0.980   1.780
 1744SOL    HW2 5459   2.052   0.983   1.768
 1745SOL     OW 5460   2.534   0.203   1.489
 1745SOL    HW1 5461   2.624   0.187   1.449
 1745SOL    HW2 5462   2.542   0.208   1.588
 1746SOL     OW 5463   3.302   0.856   1.398
 1746SOL    HW1 5464   3.245   0.908   1.335
 1746SOL    HW2 5465   3.398   0.868   1.374
 1747SOL     OW 5466   1.934   0.166   0.318
 1747SOL    HW1 5467   1.917   0.249   0.264
 1747SOL    HW2 5468   2.024   0.129   0.296
 1748SOL     OW 5469   3.045   1.335   0.119
 1748SOL    HW1 5470   2.946   1.324   0.121
 1748SOL    HW2 5471   3.079   1.350   0.212
 1749SOL     OW 5472   2.475   0.842   1.431
 1749SOL    HW1 5473   2.531   0.923   1.414
 1749SOL    HW2 5474   2.534   0.762   1.434
 1750SOL     OW 5475   3.355   1.767   0.959
 1750SOL    HW1 5476   3.388   1.831   0.890
 1750SOL    HW2 5477   3.421   1.761   1.034
 1751SOL     OW 5478   2.578   0.565   1.708
 1751SOL    HW1 5479   2.597   0.630   1.782
 1751SOL    HW2 5480   2.638   0.485   1.717
 1752SOL     OW 5481   3.312   1.220   1.633
 1752SOL    HW1 5482   3.303   1.210   1.732
 1752SOL    HW2 5483   3.408   1.213   1.607
 1753SOL     OW 5484   2.252   1.741   1.560
 1753SOL    HW1 5485   2.161   1.782   1.558
 1753SOL    HW2 5486   2.245   1.647   1.592
 1754SOL     OW 5487   3.536   0.883   1.254
 1754SOL    HW1 5488   3.509   0.794   1.217
 1754SOL    HW2 5489   3.537   0.951   1.181
 1755SOL     OW 5490   3.087   0.325   0.449
 1755SOL    HW1 5491   3.152   0.251   0.438
 1755SOL    HW2 5492   3.107   0.375   0.533
 1756SOL     OW 5493   2.456   0.745   0.652
 1756SOL    HW1 5494   2.506   0.830   0.633
 1756SOL    HW2 5495   2.368   0.747   0.604
 1757SOL     OW 5496   3.639   0.342   1.642
 1757SOL    HW1 5497   3.622   0.373   1.548
 1757SOL    HW2 5498   3.555   0.305   1.680
 1758SOL     OW 5499   3.592   0.934   1.517
 1758SOL    HW1 5500   3.630   1.025   1.532
 1758SOL    HW2 5501   3.584   0.917   1.418
 1759SOL     OW 5502   2.721   1.374   0.016
 1759SOL    HW1 5503   2.675   1.389   0.104
 1759SOL    HW2 5504   2.765   1.459  -0.014
 1760SOL     OW 5505   2.523   1.790   0.953
 1760SOL    HW1 5506   2.477   1.878   0.940
 1760SOL    HW2 5507   2.622   1.802   0.946
 1761SOL     OW 5508   2.721   0.956   0.861
 1761SOL    HW1 5509   2.775   0.887   0.909
 1761SOL    HW2 5510   2.689   1.025   0.927
 1762SOL     OW 5511   2.945   0.984   0.087
 1762SOL    HW1 5512   2.922   1.037   0.005
 1762SOL    HW2 5513   3.026   0.928   0.068
 1763SOL     OW 5514   3.723   1.569   0.851
 1763SOL    HW1 5515   3.652   1.557   0.781
 1763SOL    HW2 5516   3.724   1.490   0.911
 1764SOL     OW 5517   2.083   1.314   1.844
 1764SOL    HW1 5518   2.018   1.241   1.823
 1764SOL    HW2 5519   2.087   1.328   1.942
 1765SOL     OW 5520   1.941   1.240   0.653
 1765SOL    HW1 5521   1.940   1.193   0.741
 1765SOL    HW2 5522   2.023   1.212   0.602
 1766SOL     OW 5523   2.534   1.391   1.624
 1766SOL    HW1 5524   2.456   1.341   1.662
 1766SOL    HW2 5525   2.531   1.486   1.655
 1767SOL     OW 5526   3.686   0.192   1.227
 1767SOL    HW1 5527   3.682   0.102   1.271
 1767SOL    HW2 5528   3.689   0.181   1.128
 1768SOL     OW 5529   2.290   0.424   0.520
 1768SOL    HW1 5530   2.320   0.352   0.458
 1768SOL    HW2 5531   2.251   0.384   0.603
 1769SOL     OW 5532   3.567   1.487   1.104
 1769SOL    HW1 5533   3.474   1.462   1.077
 1769SOL    HW2 5534   3.593   1.437   1.186
 1770SOL     OW 5535   2.179   0.547   1.280
 1770SOL    HW1 5536   2.217   0.488   1.352
 1770SOL    HW2 5537   2.219   0.521   1.192
 1771SOL     OW 5538   2.674   1.586   0.687
 1771SOL    HW1 5539   2.706   1.596   0.593
 1771SOL    HW2 5540   2.595   1.524   0.689
 1772SOL     OW 5541   3.286   0.214   1.112
 1772SOL    HW1 5542   3.338   0.149   1.167
 1772SOL    HW2 5543   3.237   0.277   1.173
 1773SOL     OW 5544   2.863   0.034   1.154
 1773SOL    HW1 5545   2.800  -0.038   1.123
 1773SOL    HW2 5546   2.956  -0.002   1.154
 1774SOL     OW 5547   2.632   1.330   0.301
 1774SOL    HW1 5548   2.586   1.243   0.318
 1774SOL    HW2 5549   2.723   1.327   0.342
 1775SOL     OW 5550   2.480   1.567   1.284
 1775SOL    HW1 5551   2.475   1.649   1.341
 1775SOL    HW2 5552   2.569   1.564   1.239
 1776SOL     OW 5553   3.214   0.052   0.168
 1776SOL    HW1 5554   3.249   0.011   0.084
 1776SOL    HW2 5555   3.124   0.014   0.188
 1777SOL     OW 5556   3.162   0.453   0.691
 1777SOL    HW1 5557   3.103   0.533   0.695
 1777SOL    HW2 5558   3.177   0.418   0.784
 1778SOL     OW 5559   3.455   0.221   0.882
 1778SOL    HW1 5560   3.371   0.220   0.936
 1778SOL    HW2 5561   3.457   0.304   0.826
 1779SOL     OW 5562   1.901   1.077   0.300
 1779SOL    HW1 5563   2.000   1.066   0.291
 1779SOL    HW2 5564   1.861   0.991   0.332
 1780SOL     OW 5565   2.737   1.646   0.337
 1780SOL    HW1 5566   2.660   1.611   0.283
 1780SOL    HW2 5567   2.705   1.717   0.399
 1781SOL     OW 5568   2.092   0.628   1.975
 1781SOL    HW1 5569   1.999   0.626   2.012
 1781SOL    HW2 5570   2.093   0.589   1.883
 1782SOL     OW 5571   2.087   0.275   2.858
 1782SOL    HW1 5572   2.122   0.258   2.950
 1782SOL    HW2 5573   1.999   0.230   2.846
 1783SOL     OW 5574   1.881   0.368   2.509
 1783SOL    HW1 5575   1.799   0.411   2.548
 1783SOL    HW2 5576   1.853   0.295   2.446
 1784SOL     OW 5577   2.431   1.275   3.027
 1784SOL    HW1 5578   2.338   1.268   2.990
 1784SOL    HW2 5579   2.442   1.364   3.071
 1785SOL     OW 5580   3.417   1.511   2.565
 1785SOL    HW1 5581   3.360   1.495   2.646
 1785SOL    HW2 5582   3.358   1.521   2.485
 1786SOL     OW 5583   2.997   0.703   2.579
 1786SOL    HW1 5584   3.054   0.781   2.554
 1786SOL    HW2 5585   2.937   0.729   2.655
 1787SOL     OW 5586   3.617   0.607   2.093
 1787SOL    HW1 5587   3.605   0.594   1.994
 1787SOL    HW2 5588   3.587   0.526   2.142
 1788SOL     OW 5589   2.630   1.144   2.885
 1788SOL    HW1 5590   2.552   1.161   2.945
 1788SOL    HW2 5591   2.664   1.231   2.849
 1789SOL     OW 5592   2.712   0.798   3.685
 1789SOL    HW1 5593   2.708   0.874   3.750
 1789SOL    HW2 5594   2.734   0.834   3.594
 1790SOL     OW 5595   2.547   1.012   2.527
 1790SOL    HW1 5596   2.616   0.996   2.597
 1790SOL    HW2 5597   2.474   1.069   2.565
 1791SOL     OW 5598   2.548   1.161   3.665
 1791SOL    HW1 5599   2.608   1.240   3.679
 1791SOL    HW2 5600   2.462   1.192   3.624
 1792SOL     OW 5601   2.197   1.435   2.923
 1792SOL    HW1 5602   2.119   1.404   2.870
 1792SOL    HW2 5603   2.255   1.493   2.866
 1793SOL     OW 5604   3.322   1.505   3.201
 1793SOL    HW1 5605   3.346   1.599   3.227
 1793SOL    HW2 5606   3.306   1.451   3.283
 1794SOL     OW 5607   2.300   0.392   3.361
 1794SOL    HW1 5608   2.382   0.336   3.370
 1794SOL    HW2 5609   2.219   0.334   3.365
 1795SOL     OW 5610   3.465   0.447   2.599
 1795SOL    HW1 5611   3.391   0.493   2.549
 1795SOL    HW2 5612   3.516   0.515   2.652
 1796SOL     OW 5613   2.093   1.713   2.345
 1796SOL    HW1 5614   2.127   1.790   2.399
 1796SOL    HW2 5615   2.137   1.713   2.255
 1797SOL     OW 5616   2.989   1.341   3.552
 1797SOL    HW1 5617   3.036   1.341   3.640
 1797SOL    HW2 5618   2.941   1.254   3.541
 1798SOL     OW 5619   2.092   1.434   2.400
 1798SOL    HW1 5620   2.066   1.530   2.400
 1798SOL    HW2 5621   2.021   1.380   2.445
 1799SOL     OW 5622   2.102   1.091   2.748
 1799SOL    HW1 5623   2.116   1.007   2.800
 1799SOL    HW2 5624   2.047   1.155   2.803
 1800SOL     OW 5625   2.482   1.786   3.301
 1800SOL    HW1 5626   2.390   1.769   3.336
 1800SOL    HW2 5627   2.510   1.878   3.327
 1801SOL     OW 5628   2.468   0.964   1.985
 1801SOL    HW1 5629   2.475   1.048   1.931
 1801SOL    HW2 5630   2.514   0.977   2.073
 1802SOL     OW 5631   3.456   0.114   3.342
 1802SOL    HW1 5632   3.438   0.181   3.270
 1802SOL    HW2 5633   3.453   0.160   3.431
 1803SOL     OW 5634   1.984   0.643   2.425
 1803SOL    HW1 5635   1.939   0.555   2.442
 1803SOL    HW2 5636   1.983   0.697   2.509
 1804SOL     OW 5637   3.704   1.767   2.221
 1804SOL    HW1 5638   3.758   1.738   2.301
 1804SOL    HW2 5639   3.734   1.857   2.192
 1805SOL     OW 5640   1.889   1.596   1.979
 1805SOL    HW1 5641   1.870   1.500   2.000
 1805SOL    HW2 5642   1.856   1.654   2.054
 1806SOL     OW 5643   3.551   0.922   2.474
 1806SOL    HW1 5644   3.646   0.893   2.482
 1806SOL    HW2 5645   3.543   0.987   2.399
 1807SOL     OW 5646   3.503   1.108   2.294
 1807SOL    HW1 5647   3.589   1.110   2.242
 1807SOL    HW2 5648   3.517   1.155   2.382
 1808SOL     OW 5649   1.975   0.737   3.459
 1808SOL    HW1 5650   2.063   0.724   3.504
 1808SOL    HW2 5651   1.962   0.834   3.437
 1809SOL     OW 5652   2.475   1.365   2.588
 1809SOL    HW1 5653   2.426   1.278   2.597
 1809SOL    HW2 5654   2.452   1.408   2.501
 1810SOL     OW 5655   3.155   1.228   3.285
 1810SOL    HW1 5656   3.192   1.155   3.227
 1810SOL    HW2 5657   3.207   1.233   3.370
 1811SOL     OW 5658   2.671   0.004   2.364
 1811SOL    HW1 5659   2.711   0.095   2.355
 1811SOL    HW2 5660   2.571   0.012   2.370
 1812SOL     OW 5661   2.059   0.976   3.126
 1812SOL    HW1 5662   2.148   0.931   3.112
 1812SOL    HW2 5663   1.986   0.911   3.107
 1813SOL     OW 5664   3.387   0.999   2.052
 1813SOL    HW1 5665   3.324   0.923   2.065
 1813SOL    HW2 5666   3.435   1.017   2.138
 1814SOL     OW 5667   3.049   1.792   3.478
 1814SOL    HW1 5668   3.073   1.852   3.402
 1814SOL    HW2 5669   3.056   1.697   3.448
 1815SOL     OW 5670   2.179   0.251   3.663
 1815SOL    HW1 5671   2.250   0.322   3.669
 1815SOL    HW2 5672   2.091   0.290   3.691
 1816SOL     OW 5673   3.328   1.417   2.815
 1816SOL    HW1 5674   3.269   1.423   2.895
 1816SOL    HW2 5675   3.313   1.329   2.769
 1817SOL     OW 5676   3.529   1.714   2.434
 1817SOL    HW1 5677   3.488   1.691   2.346
 1817SOL    HW2 5678   3.511   1.640   2.499
 1818SOL     OW 5679   2.460   0.729   2.132
 1818SOL    HW1 5680   2.484   0.798   2.064
 1818SOL    HW2 5681   2.382   0.762   2.186
 1819SOL     OW 5682   3.143   0.345   2.806
 1819SOL    HW1 5683   3.057   0.295   2.793
 1819SOL    HW2 5684   3.205   0.291   2.862
 1820SOL     OW 5685   3.438   1.662   2.169
 1820SOL    HW1 5686   3.527   1.708   2.172
 1820SOL    HW2 5687   3.417   1.638   2.074
 1821SOL     OW 5688   2.669   0.605   3.327
 1821SOL    HW1 5689   2.622   0.602   3.416
 1821SOL    HW2 5690   2.618   0.550   3.261
 1822SOL     OW 5691   2.835   0.890   3.434
 1822SOL    HW1 5692   2.881   0.806   3.405
 1822SOL    HW2 5693   2.779   0.924   3.359
 1823SOL     OW 5694   2.853   0.410   3.104
 1823SOL    HW1 5695   2.776   0.444   3.158
 1823SOL    HW2 5696   2.819   0.359   3.025
 1824SOL     OW 5697   2.903   0.701   2.291
 1824SOL    HW1 5698   2.929   0.697   2.387
 1824SOL    HW2 5699   2.818   0.650   2.277
 1825SOL     OW 5700   1.938   0.811   2.651
 1825SOL    HW1 5701   2.037   0.799   2.660
 1825SOL    HW2 5702   1.914   0.906   2.672
 1826SOL     OW 5703   1.992   1.821   3.433
 1826SOL    HW1 5704   1.982   1.806   3.532
 1826SOL    HW2 5705   1.906   1.857   3.397
 1827SOL     OW 5706   2.727   0.348   2.057
 1827SOL    HW1 5707   2.786   0.411   2.008
 1827SOL    HW2 5708   2.746   0.254   2.028
 1828SOL     OW 5709   3.224   1.144   2.407
 1828SOL    HW1 5710   3.307   1.115   2.359
 1828SOL    HW2 5711   3.175   1.211   2.351
 1829SOL     OW 5712   2.412   0.196   2.747
 1829SOL    HW1 5713   2.407   0.191   2.847
 1829SOL    HW2 5714   2.414   0.292   2.718
 1830SOL     OW 5715   2.870   1.456   2.339
 1830SOL    HW1 5716   2.824   1.528   2.287
 1830SOL    HW2 5717   2.866   1.476   2.437
 1831SOL     OW 5718   2.213   1.801   2.715
 1831SOL    HW1 5719   2.263   1.715   2.721
 1831SOL    HW2 5720   2.278   1.878   2.712
 1832SOL     OW 5721   3.657   1.066   2.735
 1832SOL    HW1 5722   3.595   1.051   2.659
 1832SOL    HW2 5723   3.605   1.077   2.820
 1833SOL     OW 5724   3.089   1.550   3.368
 1833SOL    HW1 5725   3.095   1.473   3.432
 1833SOL    HW2 5726   3.037   1.524   3.288
 1834SOL     OW 5727   2.183   0.943   2.104
 1834SOL    HW1 5728   2.265   0.982   2.062
 1834SOL    HW2 5729   2.156   0.861   2.055
 1835SOL     OW 5730   3.320   0.735   2.590
 1835SOL    HW1 5731   3.315   0.670   2.665
 1835SOL    HW2 5732   3.400   0.794   2.603
 1836SOL     OW 5733   2.323   1.266   3.589
 1836SOL    HW1 5734   2.273   1.267   3.503
 1836SOL    HW2 5735   2.260   1.248   3.665
 1837SOL     OW 5736   2.973   1.776   2.099
 1837SOL    HW1 5737   2.913   1.714   2.149
 1837SOL    HW2 5738   3.004   1.732   2.014
 1838SOL     OW 5739   2.064   0.285   3.360
 1838SOL    HW1 5740   1.984   0.345   3.347
 1838SOL    HW2 5741   2.054   0.236   3.446
 1839SOL     OW 5742   3.494   1.377   1.943
 1839SOL    HW1 5743   3.462   1.471   1.933
 1839SOL    HW2 5744   3.418   1.314   1.931
 1840SOL     OW 5745   2.326   1.743   2.185
 1840SOL    HW1 5746   2.359   1.782   2.271
 1840SOL    HW2 5747   2.402   1.736   2.120
 1841SOL     OW 5748   3.262   0.107   2.288
 1841SOL    HW1 5749   3.238   0.070   2.198
 1841SOL    HW2 5750   3.361   0.123   2.292
 1842SOL     OW 5751   2.111   1.785   3.103
 1842SOL    HW1 5752   2.168   1.720   3.153
 1842SOL    HW2 5753   2.095   1.752   3.010
 1843SOL     OW 5754   2.802   1.698   2.766
 1843SOL    HW1 5755   2.882   1.641   2.787
 1843SOL    HW2 5756   2.753   1.658   2.689
 1844SOL     OW 5757   2.244   0.700   2.342
 1844SOL    HW1 5758   2.289   0.610   2.339
 1844SOL    HW2 5759   2.150   0.689   2.375
 1845SOL     OW 5760   3.409   0.222   3.591
 1845SOL    HW1 5761   3.404   0.259   3.683
 1845SOL    HW2 5762   3.337   0.153   3.579
 1846SOL     OW 5763   2.476   0.122   1.979
 1846SOL    HW1 5764   2.574   0.100   1.986
 1846SOL    HW2 5765   2.445   0.105   1.886
 1847SOL     OW 5766   2.643   0.264   3.611
 1847SOL    HW1 5767   2.710   0.203   3.654
 1847SOL    HW2 5768   2.570   0.283   3.676
 1848SOL     OW 5769   2.750   1.514   3.057
 1848SOL    HW1 5770   2.727   1.489   2.963
 1848SOL    HW2 5771   2.811   1.445   3.096
 1849SOL     OW 5772   3.213   0.590   3.295
 1849SOL    HW1 5773   3.241   0.547   3.380
 1849SOL    HW2 5774   3.238   0.686   3.296
 1850SOL     OW 5775   2.665   1.402   2.786
 1850SOL    HW1 5776   2.755   1.416   2.744
 1850SOL    HW2 5777   2.594   1.404   2.715
 1851SOL     OW 5778   2.784   0.503   2.761
 1851SOL    HW1 5779   2.759   0.494   2.665
 1851SOL    HW2 5780   2.832   0.421   2.792
 1852SOL     OW 5781   2.401   0.064   2.374
 1852SOL    HW1 5782   2.320   0.065   2.432
 1852SOL    HW2 5783   2.404   0.147   2.319
 1853SOL     OW 5784   3.296   1.188   1.903
 1853SOL    HW1 5785   3.328   1.112   1.960
 1853SOL    HW2 5786   3.204   1.215   1.933
 1854SOL     OW 5787   2.159   0.035   2.033
 1854SOL    HW1 5788   2.208   0.119   2.012
 1854SOL    HW2 5789   2.221  -0.030   2.078
 1855SOL     OW 5790   2.797   0.236   2.342
 1855SOL    HW1 5791   2.749   0.277   2.264
 1855SOL    HW2 5792   2.896   0.234   2.323
 1856SOL     OW 5793   2.938   0.683   3.326
 1856SOL    HW1 5794   2.858   0.622   3.329
 1856SOL    HW2 5795   3.019   0.630   3.302
 1857SOL     OW 5796   3.089   1.570   2.655
 1857SOL    HW1 5797   3.110   1.644   2.590
 1857SOL    HW2 5798   3.157   1.570   2.728
 1858SOL     OW 5799   2.321   1.152   2.603
 1858SOL    HW1 5800   2.250   1.125   2.668
 1858SOL    HW2 5801   2.295   1.124   2.510
 1859SOL     OW 5802   3.133   1.797   2.453
 1859SOL    HW1 5803   3.177   1.861   2.389
 1859SOL    HW2 5804   3.083   1.849   2.523
 1860SOL     OW 5805   2.894   0.549   1.878
 1860SOL    HW1 5806   2.853   0.631   1.839
 1860SOL    HW2 5807   2.958   0.575   1.951
 1861SOL     OW 5808   1.940   0.556   3.248
 1861SOL    HW1 5809   2.032   0.555   3.207
 1861SOL    HW2 5810   1.934   0.630   3.315
 1862SOL     OW 5811   2.423   0.222   3.009
 1862SOL    HW1 5812   2.461   0.138   3.046
 1862SOL    HW2 5813   2.335   0.241   3.053
 1863SOL     OW 5814   2.728   0.454   2.504
 1863SOL    HW1 5815   2.696   0.526   2.442
 1863SOL    HW2 5816   2.752   0.373   2.451
 1864SOL     OW 5817   2.879   0.039   2.615
 1864SOL    HW1 5818   2.807   0.044   2.546
 1864SOL    HW2 5819   2.855  -0.030   2.684
 1865SOL     OW 5820   3.291   1.173   2.729
 1865SOL    HW1 5821   3.236   1.089   2.722
 1865SOL    HW2 5822   3.317   1.202   2.637
 1866SOL     OW 5823   3.328   0.590   2.854
 1866SOL    HW1 5824   3.298   0.495   2.861
 1866SOL    HW2 5825   3.401   0.606   2.920
 1867SOL     OW 5826   3.719   0.833   2.239
 1867SOL    HW1 5827   3.761   0.769   2.303
 1867SOL    HW2 5828   3.681   0.782   2.161
 1868SOL     OW 5829   2.350   1.385   2.036
 1868SOL    HW1 5830   2.263   1.370   2.083
 1868SOL    HW2 5831   2.333   1.411   1.941
 1869SOL     OW 5832   3.526   1.280   2.519
 1869SOL    HW1 5833   3.625   1.288   2.533
 1869SOL    HW2 5834   3.481   1.364   2.550
 1870SOL     OW 5835   3.252   0.575   1.940
 1870SOL    HW1 5836   3.198   0.554   2.021
 1870SOL    HW2 5837   3.343   0.534   1.949
 1871SOL     OW 5838   2.389   0.256   2.190
 1871SOL    HW1 5839   2.416   0.197   2.115
 1871SOL    HW2 5840   2.389   0.351   2.159
 1872SOL     OW 5841   2.926   1.347   3.202
 1872SOL    HW1 5842   2.846   1.324   3.257
 1872SOL    HW2 5843   3.009   1.321   3.251
 1873SOL     OW 5844   3.454   1.629   3.487
 1873SOL    HW1 5845   3.481   1.663   3.397
 1873SOL    HW2 5846   3.533   1.591   3.533
 1874SOL     OW 5847   2.973   1.195   2.962
 1874SOL    HW1 5848   2.933   1.239   3.043
 1874SOL    HW2 5849   2.932   1.232   2.879
 1875SOL     OW 5850   3.500   1.099   2.941
 1875SOL    HW1 5851   3.505   1.180   3.000
 1875SOL    HW2 5852   3.414   1.101   2.890
 1876SOL     OW 5853   2.777   0.089   3.264
 1876SOL    HW1 5854   2.802   0.069   3.169
 1876SOL    HW2 5855   2.849   0.145   3.306
 1877SOL     OW 5856   2.842   1.116   3.581
 1877SOL    HW1 5857   2.743   1.122   3.591
 1877SOL    HW2 5858   2.865   1.036   3.525
 1878SOL     OW 5859   2.567   1.050   2.230
 1878SOL    HW1 5860   2.553   1.057   2.329
 1878SOL    HW2 5861   2.651   0.999   2.212
 1879SOL     OW 5862   2.272   0.813   3.113
 1879SOL    HW1 5863   2.358   0.825   3.163
 1879SOL    HW2 5864   2.230   0.726   3.140
 1880SOL     OW 5865   3.136   0.386   3.124
 1880SOL    HW1 5866   3.157   0.460   3.188
 1880SOL    HW2 5867   3.047   0.403   3.081
 1881SOL     OW 5868   1.926   1.564   3.193
 1881SOL    HW1 5869   1.880   1.646   3.159
 1881SOL    HW2 5870   2.024   1.583   3.202
 1882SOL     OW 5871   2.229   1.100   2.363
 1882SOL    HW1 5872   2.222   1.183   2.307
 1882SOL    HW2 5873   2.233   1.020   2.303
 1883SOL     OW 5874   2.428   0.537   2.727
 1883SOL    HW1 5875   2.440   0.603   2.653
 1883SOL    HW2 5876   2.474   0.571   2.810
 1884SOL     OW 5877   3.114   1.348   2.250
 1884SOL    HW1 5878   3.164   1.425   2.290
 1884SOL    HW2 5879   3.019   1.350   2.282
 1885SOL     OW 5880   3.134   1.445   3.004
 1885SOL    HW1 5881   3.181   1.458   3.091
 1885SOL    HW2 5882   3.068   1.371   3.013
 1886SOL     OW 5883   3.444   0.639   2.334
 1886SOL    HW1 5884   3.413   0.700   2.407
 1886SOL    HW2 5885   3.494   0.691   2.265
 1887SOL     OW 5886   2.216   1.510   3.191
 1887SOL    HW1 5887   2.195   1.466   3.104
 1887SOL    HW2 5888   2.313   1.536   3.194
 1888SOL     OW 5889   2.264   0.751   3.460
 1888SOL    HW1 5890   2.332   0.806   3.413
 1888SOL    HW2 5891   2.304   0.663   3.487
 1889SOL     OW 5892   3.449   0.779   3.532
 1889SOL    HW1 5893   3.357   0.817   3.527
 1889SOL    HW2 5894   3.509   0.826   3.467
 1890SOL     OW 5895   2.875   0.105   3.632
 1890SOL    HW1 5896   2.881   0.190   3.580
 1890SOL    HW2 5897   2.907   0.029   3.575
 1891SOL     OW 5898   2.366   0.050   3.602
 1891SOL    HW1 5899   2.324  -0.007   3.532
 1891SOL    HW2 5900   2.300   0.119   3.634
 1892SOL     OW 5901   2.435   0.870   2.891
 1892SOL    HW1 5902   2.479   0.959   2.882
 1892SOL    HW2 5903   2.372   0.870   2.968
 1893SOL     OW 5904   3.222   0.862   2.907
 1893SOL    HW1 5905   3.147   0.862   2.841
 1893SOL    HW2 5906   3.259   0.770   2.916
 1894SOL     OW 5907   3.071   0.525   2.137
 1894SOL    HW1 5908   3.084   0.441   2.191
 1894SOL    HW2 5909   3.042   0.599   2.197
 1895SOL     OW 5910   2.169   0.213   3.093
 1895SOL    HW1 5911   2.146   0.250   3.183
 1895SOL    HW2 5912   2.139   0.118   3.087
 1896SOL     OW 5913   1.899   1.310   3.144
 1896SOL    HW1 5914   1.952   1.261   3.212
 1896SOL    HW2 5915   1.921   1.408   3.149
 1897SOL     OW 5916   2.594   0.634   2.926
 1897SOL    HW1 5917   2.653   0.608   2.850
 1897SOL    HW2 5918   2.566   0.730   2.915
 1898SOL     OW 5919   3.590   0.935   3.716
 1898SOL    HW1 5920   3.544   0.928   3.627
 1898SOL    HW2 5921   3.528   0.979   3.782
 1899SOL     OW 5922   2.169   0.063   2.480
 1899SOL    HW1 5923   2.158   0.157   2.513
 1899SOL    HW2 5924   2.164   0.000   2.557
 1900SOL     OW 5925   3.484   0.367   2.236
 1900SOL    HW1 5926   3.486   0.291   2.300
 1900SOL    HW2 5927   3.436   0.444   2.276
 1901SOL     OW 5928   2.885   0.766   2.828
 1901SOL    HW1 5929   2.900   0.787   2.924
 1901SOL    HW2 5930   2.855   0.671   2.819
 1902SOL     OW 5931   2.842   1.573   3.562
 1902SOL    HW1 5932   2.822   1.617   3.474
 1902SOL    HW2 5933   2.881   1.482   3.546
 1903SOL     OW 5934   3.721   1.518   3.467
 1903SOL    HW1 5935   3.735   1.545   3.372
 1903SOL    HW2 5936   3.804   1.540   3.520
 1904SOL     OW 5937   2.212   0.898   3.666
 1904SOL    HW1 5938   2.288   0.942   3.714
 1904SOL    HW2 5939   2.247   0.851   3.584
 1905SOL     OW 5940   3.402   0.274   1.987
 1905SOL    HW1 5941   3.341   0.199   2.010
 1905SOL    HW2 5942   3.424   0.326   2.070
 1906SOL     OW 5943   3.165   0.838   1.904
 1906SOL    HW1 5944   3.199   0.745   1.919
 1906SOL    HW2 5945   3.183   0.865   1.809
 1907SOL     OW 5946   2.930   1.333   2.711
 1907SOL    HW1 5947   2.937   1.249   2.656
 1907SOL    HW2 5948   2.992   1.402   2.675
 1908SOL     OW 5949   2.181   0.810   2.811
 1908SOL    HW1 5950   2.274   0.846   2.816
 1908SOL    HW2 5951   2.175   0.725   2.863
 1909SOL     OW 5952   2.201   0.509   2.868
 1909SOL    HW1 5953   2.149   0.426   2.851
 1909SOL    HW2 5954   2.278   0.514   2.804
 1910SOL     OW 5955   3.000   0.380   3.540
 1910SOL    HW1 5956   2.955   0.443   3.604
 1910SOL    HW2 5957   3.093   0.411   3.523
 1911SOL     OW 5958   3.022   0.207   3.339
 1911SOL    HW1 5959   3.022   0.271   3.416
 1911SOL    HW2 5960   3.050   0.255   3.256
 1912SOL     OW 5961   1.870   1.326   2.062
 1912SOL    HW1 5962   1.777   1.347   2.031
 1912SOL    HW2 5963   1.880   1.227   2.075
 1913SOL     OW 5964   1.950   1.801   2.789
 1913SOL    HW1 5965   1.908   1.715   2.762
 1913SOL    HW2 5966   2.044   1.804   2.755
 1914SOL     OW 5967   2.366   1.568   2.772
 1914SOL    HW1 5968   2.432   1.642   2.781
 1914SOL    HW2 5969   2.410   1.489   2.730
 1915SOL     OW 5970   2.864   0.796   3.100
 1915SOL    HW1 5971   2.905   0.764   3.186
 1915SOL    HW2 5972   2.768   0.769   3.097
 1916SOL     OW 5973   1.902   0.544   2.976
 1916SOL    HW1 5974   1.987   0.511   2.935
 1916SOL    HW2 5975   1.915   0.559   3.074
 1917SOL     OW 5976   2.051   0.520   3.584
 1917SOL    HW1 5977   2.110   0.480   3.514
 1917SOL    HW2 5978   1.993   0.591   3.543
 1918SOL     OW 5979   3.231   0.950   3.522
 1918SOL    HW1 5980   3.270   1.039   3.542
 1918SOL    HW2 5981   3.241   0.930   3.425
 1919SOL     OW 5982   2.677   0.572   2.187
 1919SOL    HW1 5983   2.684   0.483   2.141
 1919SOL    HW2 5984   2.583   0.606   2.179
 1920SOL     OW 5985   2.114   1.564   3.606
 1920SOL    HW1 5986   2.084   1.621   3.682
 1920SOL    HW2 5987   2.107   1.467   3.632
 1921SOL     OW 5988   2.533   0.464   3.131
 1921SOL    HW1 5989   2.499   0.375   3.101
 1921SOL    HW2 5990   2.559   0.518   3.051
 1922SOL     OW 5991   2.792   1.678   3.327
 1922SOL    HW1 5992   2.768   1.660   3.232
 1922SOL    HW2 5993   2.822   1.772   3.337
 1923SOL     OW 5994   2.335   0.500   2.053
 1923SOL    HW1 5995   2.396   0.580   2.057
 1923SOL    HW2 5996   2.240   0.531   2.060
 1924SOL     OW 5997   2.021   1.137   3.328
 1924SOL    HW1 5998   2.043   1.076   3.404
 1924SOL    HW2 5999   2.031   1.088   3.242
 1925SOL     OW 6000   3.209   1.059   3.096
 1925SOL    HW1 6001   3.233   0.996   3.022
 1925SOL    HW2 6002   3.119   1.099   3.078
 1926SOL     OW 6003   3.164   0.855   2.171
 1926SOL    HW1 6004   3.078   0.824   2.213
 1926SOL    HW2 6005   3.160   0.841   2.072
 1927SOL     OW 6006   3.621   1.747   3.016
 1927SOL    HW1 6007   3.682   1.777   2.943
 1927SOL    HW2 6008   3.583   1.658   2.994
 1928SOL     OW 6009   3.114   1.731   2.990
 1928SOL    HW1 6010   3.198   1.736   2.936
 1928SOL    HW2 6011   3.091   1.635   3.008
 1929SOL     OW 6012   1.945   1.258   2.884
 1929SOL    HW1 6013   1.940   1.257   2.984
 1929SOL    HW2 6014   1.862   1.217   2.846
 1930SOL     OW 6015   2.550   1.662   3.578
 1930SOL    HW1 6016   2.494   1.743   3.587
 1930SOL    HW2 6017   2.602   1.666   3.492
 1931SOL     OW 6018   3.588   0.135   2.385
 1931SOL    HW1 6019   3.661   0.118   2.318
 1931SOL    HW2 6020   3.557   0.048   2.423
 1932SOL     OW 6021   3.250   1.573   2.339
 1932SOL    HW1 6022   3.317   1.585   2.265
 1932SOL    HW2 6023   3.210   1.662   2.362
 1933SOL     OW 6024   1.992   1.794   3.713
 1933SOL    HW1 6025   1.951   1.720   3.766
 1933SOL    HW2 6026   2.056   1.845   3.771
 1934SOL     OW 6027   3.142   0.927   2.534
 1934SOL    HW1 6028   3.202   0.846   2.536
 1934SOL    HW2 6029   3.182   0.996   2.474
 1935SOL     OW 6030   2.692   1.273   3.284
 1935SOL    HW1 6031   2.687   1.306   3.379
 1935SOL    HW2 6032   2.606   1.292   3.238
 1936SOL     OW 6033   2.534   1.616   2.016
 1936SOL    HW1 6034   2.543   1.626   1.917
 1936SOL    HW2 6035   2.494   1.527   2.037
 1937SOL     OW 6036   3.512   1.720   3.256
 1937SOL    HW1 6037   3.565   1.730   3.172
 1937SOL    HW2 6038   3.485   1.810   3.290
 1938SOL     OW 6039   3.703   0.175   2.825
 1938SOL    HW1 6040   3.742   0.090   2.789
 1938SOL    HW2 6041   3.605   0.177   2.806
 1939SOL     OW 6042   2.125   0.326   2.582
 1939SOL    HW1 6043   2.046   0.377   2.548
 1939SOL    HW2 6044   2.116   0.311   2.680
 1940SOL     OW 6045   3.056   1.612   1.893
 1940SOL    HW1 6046   3.062   1.519   1.930
 1940SOL    HW2 6047   2.997   1.612   1.813
 1941SOL     OW 6048   2.684   1.002   3.234
 1941SOL    HW1 6049   2.724   1.001   3.142
 1941SOL    HW2 6050   2.694   1.094   3.274
 1942SOL     OW 6051   2.778   0.910   2.153
 1942SOL    HW1 6052   2.841   0.948   2.085
 1942SOL    HW2 6053   2.818   0.827   2.192
 1943SOL     OW 6054   3.366   1.607   1.906
 1943SOL    HW1 6055   3.274   1.644   1.913
 1943SOL    HW2 6056   3.404   1.627   1.816
 1944SOL     OW 6057   2.234   1.288   3.352
 1944SOL    HW1 6058   2.221   1.381   3.318
 1944SOL    HW2 6059   2.150   1.236   3.339
 1945SOL     OW 6060   3.476   1.292   3.151
 1945SOL    HW1 6061   3.536   1.295   3.231
 1945SOL    HW2 6062   3.401   1.356   3.164
 1946SOL     OW 6063   2.901   1.098   2.558
 1946SOL    HW1 6064   2.831   1.051   2.612
 1946SOL    HW2 6065   2.960   1.030   2.515
 1947SOL     OW 6066   2.876   0.236   2.833
 1947SOL    HW1 6067   2.868   0.200   2.740
 1947SOL    HW2 6068   2.874   0.160   2.898
 1948SOL     OW 6069   2.452   1.487   2.353
 1948SOL    HW1 6070   2.494   1.429   2.283
 1948SOL    HW2 6071   2.408   1.566   2.309
 1949SOL     OW 6072   3.571   0.385   3.243
 1949SOL    HW1 6073   3.644   0.454   3.247
 1949SOL    HW2 6074   3.599   0.310   3.184
 1950SOL     OW 6075   2.117   1.348   2.152
 1950SOL    HW1 6076   2.021   1.349   2.125
 1950SOL    HW2 6077   2.129   1.401   2.236
 1951SOL     OW 6078   1.967   1.013   3.588
 1951SOL    HW1 6079   1.890   0.980   3.642
 1951SOL    HW2 6080   2.052   0.983   3.630
 1952SOL     OW 6081   2.534   0.203   3.351
 1952SOL    HW1 6082   2.624   0.187   3.311
 1952SOL    HW2 6083   2.542   0.208   3.450
 1953SOL     OW 6084   1.937   0.345   1.895
 1953SOL    HW1 6085   1.845   0.317   1.866
 1953SOL    HW2 6086   1.968   0.422   1.839
 1954SOL     OW 6087   3.302   0.856   3.260
 1954SOL    HW1 6088   3.245   0.908   3.197
 1954SOL    HW2 6089   3.398   0.868   3.236
 1955SOL     OW 6090   1.934   0.166   2.180
 1955SOL    HW1 6091   1.917   0.249   2.126
 1955SOL    HW2 6092   2.024   0.129   2.158
 1956SOL     OW 6093   3.045   1.335   1.981
 1956SOL    HW1 6094   2.946   1.324   1.983
 1956SOL    HW2 6095   3.079   1.350   2.074
 1957SOL     OW 6096   2.475   0.842   3.293
 1957SOL    HW1 6097   2.531   0.923   3.276
 1957SOL    HW2 6098   2.534   0.762   3.296
 1958SOL     OW 6099   3.355   1.767   2.821
 1958SOL    HW1 6100   3.388   1.831   2.752
 1958SOL    HW2 6101   3.421   1.761   2.896
 1959SOL     OW 6102   2.578   0.565   3.570
 1959SOL    HW1 6103   2.597   0.630   3.644
 1959SOL    HW2 6104   2.638   0.485   3.579
 1960SOL     OW 6105   3.312   1.220   3.495
 1960SOL    HW1 6106   3.303   1.210   3.594
 1960SOL    HW2 6107   3.408   1.213   3.469
 1961SOL     OW 6108   2.252   1.741   3.422
 1961SOL    HW1 6109   2.161   1.782   3.420
 1961SOL    HW2 6110   2.245   1.647   3.454
 1962SOL     OW 6111   3.087   0.325   2.311
 1962SOL    HW1 6112   3.152   0.251   2.300
 1962SOL    HW2 6113   3.107   0.375   2.395
 1963SOL     OW 6114   2.456   0.745   2.514
 1963SOL    HW1 6115   2.506   0.830   2.495
 1963SOL    HW2 6116   2.368   0.747   2.466
 1964SOL     OW 6117   3.639   0.342   3.504
 1964SOL    HW1 6118   3.622   0.373   3.410
 1964SOL    HW2 6119   3.555   0.305   3.542
 1965SOL     OW 6120   2.721   1.374   1.878
 1965SOL    HW1 6121   2.675   1.389   1.966
 1965SOL    HW2 6122   2.765   1.459   1.848
 1966SOL     OW 6123   2.523   1.790   2.815
 1966SOL    HW1 6124   2.477   1.878   2.802
 1966SOL    HW2 6125   2.622   1.802   2.808
 1967SOL     OW 6126   2.721   0.956   2.723
 1967SOL    HW1 6127   2.775   0.887   2.771
 1967SOL    HW2 6128   2.689   1.025   2.789
 1968SOL     OW 6129   2.945   0.984   1.949
 1968SOL    HW1 6130   2.922   1.037   1.867
 1968SOL    HW2 6131   3.026   0.928   1.930
 1969SOL     OW 6132   3.723   1.569   2.713
 1969SOL    HW1 6133   3.652   1.557   2.643
 1969SOL    HW2 6134   3.724   1.490   2.773
 1970SOL     OW 6135   2.083   1.314   3.706
 1970SOL    HW1 6136   2.018   1.241   3.685
 1970SOL    HW2 6137   2.087   1.328   3.804
 1971SOL     OW 6138   1.941   1.240   2.515
 1971SOL    HW1 6139   1.940   1.193   2.603
 1971SOL    HW2 6140   2.023   1.212   2.464
 1972SOL     OW 6141   2.534   1.391   3.486
 1972SOL    HW1 6142   2.456   1.341   3.524
 1972SOL    HW2 6143   2.531   1.486   3.517
 1973SOL     OW 6144   3.686   0.192   3.089
 1973SOL    HW1 6145   3.682   0.102   3.133
 1973SOL    HW2 6146   3.689   0.181   2.990
 1974SOL     OW 6147   2.290   0.424   2.382
 1974SOL    HW1 6148   2.320   0.352   2.320
 1974SOL    HW2 6149   2.251   0.384   2.465
 1975SOL     OW 6150   3.567   1.487   2.966
 1975SOL    HW1 6151   3.474   1.462   2.939
 1975SOL    HW2 6152   3.593   1.437   3.048
 1976SOL     OW 6153   2.179   0.547   3.142
 1976SOL    HW1 6154   2.217   0.488   3.214
 1976SOL    HW2 6155   2.219   0.521   3.054
 1977SOL     OW 6156   2.674   1.586   2.549
 1977SOL    HW1 6157   2.706   1.596   2.455
 1977SOL    HW2 6158   2.595   1.524   2.551
 1978SOL     OW 6159   3.286   0.214   2.974
 1978SOL    HW1 6160   3.338   0.149   3.029
 1978SOL    HW2 6161   3.237   0.277   3.035
 1979SOL     OW 6162   2.863   0.034   3.016
 1979SOL    HW1 6163   2.800  -0.038   2.985
 1979SOL    HW2 6164   2.956  -0.002   3.016
 1980SOL     OW 6165   2.632   1.330   2.163
 1980SOL    HW1 6166   2.586   1.243   2.180
 1980SOL    HW2 6167   2.723   1.327   2.204
 1981SOL     OW 6168   2.480   1.567   3.146
 1981SOL    HW1 6169   2.475   1.649   3.203
 1981SOL    HW2 6170   2.569   1.564   3.101
 1982SOL     OW 6171   3.214   0.052   2.030
 1982SOL    HW1 6172   3.249   0.011   1.946
 1982SOL    HW2 6173   3.124   0.014   2.050
 1983SOL     OW 6174   3.162   0.453   2.553
 1983SOL    HW1 6175   3.103   0.533   2.557
 1983SOL    HW2 6176   3.177   0.418   2.646
 1984SOL     OW 6177   3.455   0.221   2.744
 1984SOL    HW1 6178   3.371   0.220   2.798
 1984SOL    HW2 6179   3.457   0.304   2.688
 1985SOL     OW 6180   1.901   1.077   2.162
 1985SOL    HW1 6181   2.000   1.066   2.153
 1985SOL    HW2 6182   1.861   0.991   2.194
 1986SOL     OW 6183   2.737   1.646   2.199
 1986SOL    HW1 6184   2.660   1.611   2.145
 1986SOL    HW2 6185   2.705   1.717   2.261
 1987SOL     OW 6186   2.092   0.628   3.837
 1987SOL    HW1 6187   1.999   0.626   3.874
 1987SOL    HW2 6188   2.093   0.589   3.745
 1988SOL     OW 6189   2.087   0.275   4.720
 1988SOL    HW1 6190   2.122   0.258   4.812
 1988SOL    HW2 6191   1.999   0.230   4.708
 1989SOL     OW 6192   1.881   0.368   4.371
 1989SOL    HW1 6193   1.799   0.411   4.410
 1989SOL    HW2 6194   1.853   0.295   4.308
 1990SOL     OW 6195   2.431   1.275   4.889
 1990SOL    HW1 6196   2.338   1.268   4.852
 1990SOL    HW2 6197   2.442   1.364   4.933
 1991SOL     OW 6198   3.417   1.511   4.427
 1991SOL    HW1 6199   3.360   1.495   4.508
 1991SOL    HW2 6200   3.358   1.521   4.347
 1992SOL     OW 6201   2.997   0.703   4.441
 1992SOL    HW1 6202   3.054   0.781   4.416
 1992SOL    HW2 6203   2.937   0.729   4.517
 1993SOL     OW 6204   2.630   1.144   4.747
 1993SOL    HW1 6205   2.552   1.161   4.807
 1993SOL    HW2 6206   2.664   1.231   4.711
 1994SOL     OW 6207   2.547   1.012   4.389
 1994SOL    HW1 6208   2.616   0.996   4.459
 1994SOL    HW2 6209   2.474   1.069   4.427
 1995SOL     OW 6210   2.197   1.435   4.785
 1995SOL    HW1 6211   2.119   1.404   4.732
 1995SOL    HW2 6212   2.255   1.493   4.728
 1996SOL     OW 6213   3.465   0.447   4.461
 1996SOL    HW1 6214   3.391   0.493   4.411
 1996SOL    HW2 6215   3.516   0.515   4.514
 1997SOL     OW 6216   2.093   1.713   4.207
 1997SOL    HW1 6217   2.127   1.790   4.261
 1997SOL    HW2 6218   2.137   1.713   4.117
 1998SOL     OW 6219   2.092   1.434   4.262
 1998SOL    HW1 6220   2.066   1.530   4.262
 1998SOL    HW2 6221   2.021   1.380   4.307
 1999SOL     OW 6222   2.102   1.091   4.610
 1999SOL    HW1 6223   2.116   1.007   4.662
 1999SOL    HW2 6224   2.047   1.155   4.665
 2000SOL     OW 6225   2.482   1.786   5.163
 2000SOL    HW1 6226   2.390   1.769   5.198
 2000SOL    HW2 6227   2.510   1.878   5.189
 2001SOL     OW 6228   2.468   0.964   3.847
 2001SOL    HW1 6229   2.475   1.048   3.793
 2001SOL    HW2 6230   2.514   0.977   3.935
 2002SOL     OW 6231   1.984   0.643   4.287
 2002SOL    HW1 6232   1.939   0.555   4.304
 2002SOL    HW2 6233   1.983   0.697   4.371
 2003SOL     OW 6234   3.704   1.767   4.083
 2003SOL    HW1 6235   3.758   1.738   4.163
 2003SOL    HW2 6236   3.734   1.857   4.054
 2004SOL     OW 6237   1.889   1.596   3.841
 2004SOL    HW1 6238   1.870   1.500   3.862
 2004SOL    HW2 6239   1.856   1.654   3.916
 2005SOL     OW 6240   3.551   0.922   4.336
 2005SOL    HW1 6241   3.646   0.893   4.344
 2005SOL    HW2 6242   3.543   0.987   4.261
 2006SOL     OW 6243   3.503   1.108   4.156
 2006SOL    HW1 6244   3.589   1.110   4.104
 2006SOL    HW2 6245   3.517   1.155   4.244
 2007SOL     OW 6246   2.475   1.365   4.450
 2007SOL    HW1 6247   2.426   1.278   4.459
 2007SOL    HW2 6248   2.452   1.408   4.363
 2008SOL     OW 6249   2.671   0.004   4.226
 2008SOL    HW1 6250   2.711   0.095   4.217
 2008SOL    HW2 6251   2.571   0.012   4.232
 2009SOL     OW 6252   2.059   0.976   4.988
 2009SOL    HW1 6253   2.148   0.931   4.974
 2009SOL    HW2 6254   1.986   0.911   4.969
 2010SOL     OW 6255   3.387   0.999   3.914
 2010SOL    HW1 6256   3.324   0.923   3.927
 2010SOL    HW2 6257   3.435   1.017   4.000
 2011SOL     OW 6258   3.328   1.417   4.677
 2011SOL    HW1 6259   3.269   1.423   4.757
 2011SOL    HW2 6260   3.313   1.329   4.631
 2012SOL     OW 6261   3.529   1.714   4.296
 2012SOL    HW1 6262   3.488   1.691   4.208
 2012SOL    HW2 6263   3.511   1.640   4.361
 2013SOL     OW 6264   2.460   0.729   3.994
 2013SOL    HW1 6265   2.484   0.798   3.926
 2013SOL    HW2 6266   2.382   0.762   4.048
 2014SOL     OW 6267   3.143   0.345   4.668
 2014SOL    HW1 6268   3.057   0.295   4.655
 2014SOL    HW2 6269   3.205   0.291   4.724
 2015SOL     OW 6270   3.438   1.662   4.031
 2015SOL    HW1 6271   3.527   1.708   4.034
 2015SOL    HW2 6272   3.417   1.638   3.936
 2016SOL     OW 6273   2.903   0.701   4.153
 2016SOL    HW1 6274   2.929   0.697   4.249
 2016SOL    HW2 6275   2.818   0.650   4.139
 2017SOL     OW 6276   1.938   0.811   4.513
 2017SOL    HW1 6277   2.037   0.799   4.522
 2017SOL    HW2 6278   1.914   0.906   4.534
 2018SOL     OW 6279   2.727   0.348   3.919
 2018SOL    HW1 6280   2.786   0.411   3.870
 2018SOL    HW2 6281   2.746   0.254   3.890
 2019SOL     OW 6282   3.224   1.144   4.269
 2019SOL    HW1 6283   3.307   1.115   4.221
 2019SOL    HW2 6284   3.175   1.211   4.213
 2020SOL     OW 6285   2.412   0.196   4.609
 2020SOL    HW1 6286   2.407   0.191   4.709
 2020SOL    HW2 6287   2.414   0.292   4.580
 2021SOL     OW 6288   2.870   1.456   4.201
 2021SOL    HW1 6289   2.824   1.528   4.149
 2021SOL    HW2 6290   2.866   1.476   4.299
 2022SOL     OW 6291   2.213   1.801   4.577
 2022SOL    HW1 6292   2.263   1.715   4.583
 2022SOL    HW2 6293   2.278   1.878   4.574
 2023SOL     OW 6294   3.657   1.066   4.597
 2023SOL    HW1 6295   3.595   1.051   4.521
 2023SOL    HW2 6296   3.605   1.077   4.682
 2024SOL     OW 6297   2.183   0.943   3.966
 2024SOL    HW1 6298   2.265   0.982   3.924
 2024SOL    HW2 6299   2.156   0.861   3.917
 2025SOL     OW 6300   3.320   0.735   4.452
 2025SOL    HW1 6301   3.315   0.670   4.527
 2025SOL    HW2 6302   3.400   0.794   4.465
 2026SOL     OW 6303   2.973   1.776   3.961
 2026SOL    HW1 6304   2.913   1.714   4.011
 2026SOL    HW2 6305   3.004   1.732   3.876
 2027SOL     OW 6306   3.494   1.377   3.805
 2027SOL    HW1 6307   3.462   1.471   3.795
 2027SOL    HW2 6308   3.418   1.314   3.793
 2028SOL     OW 6309   2.326   1.743   4.047
 2028SOL    HW1 6310   2.359   1.782   4.133
 2028SOL    HW2 6311   2.402   1.736   3.982
 2029SOL     OW 6312   3.262   0.107   4.150
 2029SOL    HW1 6313   3.238   0.070   4.060
 2029SOL    HW2 6314   3.361   0.123   4.154
 2030SOL     OW 6315   2.111   1.785   4.965
 2030SOL    HW1 6316   2.168   1.720   5.015
 2030SOL    HW2 6317   2.095   1.752   4.872
 2031SOL     OW 6318   2.802   1.698   4.628
 2031SOL    HW1 6319   2.882   1.641   4.649
 2031SOL    HW2 6320   2.753   1.658   4.551
 2032SOL     OW 6321   2.244   0.700   4.204
 2032SOL    HW1 6322   2.289   0.610   4.201
 2032SOL    HW2 6323   2.150   0.689   4.237
 2033SOL     OW 6324   2.476   0.122   3.841
 2033SOL    HW1 6325   2.574   0.100   3.848
 2033SOL    HW2 6326   2.445   0.105   3.748
 2034SOL     OW 6327   2.665   1.402   4.648
 2034SOL    HW1 6328   2.755   1.416   4.606
 2034SOL    HW2 6329   2.594   1.404   4.577
 2035SOL     OW 6330   2.784   0.503   4.623
 2035SOL    HW1 6331   2.759   0.494   4.527
 2035SOL    HW2 6332   2.832   0.421   4.654
 2036SOL     OW 6333   2.401   0.064   4.236
 2036SOL    HW1 6334   2.320   0.065   4.294
 2036SOL    HW2 6335   2.404   0.147   4.181
 2037SOL     OW 6336   3.296   1.188   3.765
 2037SOL    HW1 6337   3.328   1.112   3.822
 2037SOL    HW2 6338   3.204   1.215   3.795
 2038SOL     OW 6339   2.159   0.035   3.895
 2038SOL    HW1 6340   2.208   0.119   3.874
 2038SOL    HW2 6341   2.221  -0.030   3.940
 2039SOL     OW 6342   2.797   0.236   4.204
 2039SOL    HW1 6343   2.749   0.277   4.126
 2039SOL    HW2 6344   2.896   0.234   4.185
 2040SOL     OW 6345   3.089   1.570   4.517
 2040SOL    HW1 6346   3.110   1.644   4.452
 2040SOL    HW2 6347   3.157   1.570   4.590
 2041SOL     OW 6348   2.321   1.152   4.465
 2041SOL    HW1 6349   2.250   1.125   4.530
 2041SOL    HW2 6350   2.295   1.124   4.372
 2042SOL     OW 6351   3.133   1.797   4.315
 2042SOL    HW1 6352   3.177   1.861   4.251
 2042SOL    HW2 6353   3.083   1.849   4.385
 2043SOL     OW 6354   2.894   0.549   3.740
 2043SOL    HW1 6355   2.853   0.631   3.701
 2043SOL    HW2 6356   2.958   0.575   3.813
 2044SOL     OW 6357   2.728   0.454   4.366
 2044SOL    HW1 6358   2.696   0.526   4.304
 2044SOL    HW2 6359   2.752   0.373   4.313
 2045SOL     OW 6360   2.879   0.039   4.477
 2045SOL    HW1 6361   2.807   0.044   4.408
 2045SOL    HW2 6362   2.855  -0.030   4.546
 2046SOL     OW 6363   3.291   1.173   4.591
 2046SOL    HW1 6364   3.236   1.089   4.584
 2046SOL    HW2 6365   3.317   1.202   4.499
 2047SOL     OW 6366   3.328   0.590   4.716
 2047SOL    HW1 6367   3.298   0.495   4.723
 2047SOL    HW2 6368   3.401   0.606   4.782
 2048SOL     OW 6369   3.719   0.833   4.101
 2048SOL    HW1 6370   3.761   0.769   4.165
 2048SOL    HW2 6371   3.681   0.782   4.023
 2049SOL     OW 6372   2.350   1.385   3.898
 2049SOL    HW1 6373   2.263   1.370   3.945
 2049SOL    HW2 6374   2.333   1.411   3.803
 2050SOL     OW 6375   3.526   1.280   4.381
 2050SOL    HW1 6376   3.625   1.288   4.395
 2050SOL    HW2 6377   3.481   1.364   4.412
 2051SOL     OW 6378   2.389   0.256   4.052
 2051SOL    HW1 6379   2.416   0.197   3.977
 2051SOL    HW2 6380   2.389   0.351   4.021
 2052SOL     OW 6381   2.973   1.195   4.824
 2052SOL    HW1 6382   2.933   1.239   4.905
 2052SOL    HW2 6383   2.932   1.232   4.741
 2053SOL     OW 6384   3.500   1.099   4.803
 2053SOL    HW1 6385   3.505   1.180   4.862
 2053SOL    HW2 6386   3.414   1.101   4.752
 2054SOL     OW 6387   2.567   1.050   4.092
 2054SOL    HW1 6388   2.553   1.057   4.191
 2054SOL    HW2 6389   2.651   0.999   4.074
 2055SOL     OW 6390   2.272   0.813   4.975
 2055SOL    HW1 6391   2.358   0.825   5.025
 2055SOL    HW2 6392   2.230   0.726   5.002
 2056SOL     OW 6393   2.229   1.100   4.225
 2056SOL    HW1 6394   2.222   1.183   4.169
 2056SOL    HW2 6395   2.233   1.020   4.165
 2057SOL     OW 6396   2.428   0.537   4.589
 2057SOL    HW1 6397   2.440   0.603   4.515
 2057SOL    HW2 6398   2.474   0.571   4.672
 2058SOL     OW 6399   3.114   1.348   4.112
 2058SOL    HW1 6400   3.164   1.425   4.152
 2058SOL    HW2 6401   3.019   1.350   4.144
 2059SOL     OW 6402   3.134   1.445   4.866
 2059SOL    HW1 6403   3.181   1.458   4.953
 2059SOL    HW2 6404   3.068   1.371   4.875
 2060SOL     OW 6405   3.444   0.639   4.196
 2060SOL    HW1 6406   3.413   0.700   4.269
 2060SOL    HW2 6407   3.494   0.691   4.127
 2061SOL     OW 6408   2.216   1.510   5.053
 2061SOL    HW1 6409   2.195   1.466   4.966
 2061SOL    HW2 6410   2.313   1.536   5.056
 2062SOL     OW 6411   2.435   0.870   4.753
 2062SOL    HW1 6412   2.479   0.959   4.744
 2062SOL    HW2 6413   2.372   0.870   4.830
 2063SOL     OW 6414   3.222   0.862   4.769
 2063SOL    HW1 6415   3.147   0.862   4.703
 2063SOL    HW2 6416   3.259   0.770   4.778
 2064SOL     OW 6417   3.071   0.525   3.999
 2064SOL    HW1 6418   3.084   0.441   4.053
 2064SOL    HW2 6419   3.042   0.599   4.059
 2065SOL     OW 6420   2.169   0.213   4.955
 2065SOL    HW1 6421   2.146   0.250   5.045
 2065SOL    HW2 6422   2.139   0.118   4.949
 2066SOL     OW 6423   1.899   1.310   5.006
 2066SOL    HW1 6424   1.952   1.261   5.074
 2066SOL    HW2 6425   1.921   1.408   5.011
 2067SOL     OW 6426   2.594   0.634   4.788
 2067SOL    HW1 6427   2.653   0.608   4.712
 2067SOL    HW2 6428   2.566   0.730   4.777
 2068SOL     OW 6429   2.169   0.063   4.342
 2068SOL    HW1 6430   2.158   0.157   4.375
 2068SOL    HW2 6431   2.164   0.000   4.419
 2069SOL     OW 6432   3.484   0.367   4.098
 2069SOL    HW1 6433   3.486   0.291   4.162
 2069SOL    HW2 6434   3.436   0.444   4.138
 2070SOL     OW 6435   2.885   0.766   4.690
 2070SOL    HW1 6436   2.900   0.787   4.786
 2070SOL    HW2 6437   2.855   0.671   4.681
 2071SOL     OW 6438   3.402   0.274   3.849
 2071SOL    HW1 6439   3.341   0.199   3.872
 2071SOL    HW2 6440   3.424   0.326   3.932
 2072SOL     OW 6441   3.165   0.838   3.766
 2072SOL    HW1 6442   3.199   0.745   3.781
 2072SOL    HW2 6443   3.183   0.865   3.671
 2073SOL     OW 6444   2.930   1.333   4.573
 2073SOL    HW1 6445   2.937   1.249   4.518
 2073SOL    HW2 6446   2.992   1.402   4.537
 2074SOL     OW 6447   2.181   0.810   4.673
 2074SOL    HW1 6448   2.274   0.846   4.678
 2074SOL    HW2 6449   2.175   0.725   4.725
 2075SOL     OW 6450   2.201   0.509   4.730
 2075SOL    HW1 6451   2.149   0.426   4.713
 2075SOL    HW2 6452   2.278   0.514   4.666
 2076SOL     OW 6453   1.870   1.326   3.924
 2076SOL    HW1 6454   1.777   1.347   3.893
 2076SOL    HW2 6455   1.880   1.227   3.937
 2077SOL     OW 6456   1.950   1.801   4.651
 2077SOL    HW1 6457   1.908   1.715   4.624
 2077SOL    HW2 6458   2.044   1.804   4.617
 2078SOL     OW 6459   2.366   1.568   4.634
 2078SOL    HW1 6460   2.432   1.642   4.643
 2078SOL    HW2 6461   2.410   1.489   4.592
 2079SOL     OW 6462   2.864   0.796   4.962
 2079SOL    HW1 6463   2.905   0.764   5.048
 2079SOL    HW2 6464   2.768   0.769   4.959
 2080SOL     OW 6465   1.902   0.544   4.838
 2080SOL    HW1 6466   1.987   0.511   4.797
 2080SOL    HW2 6467   1.915   0.559   4.936
 2081SOL     OW 6468   2.677   0.572   4.049
 2081SOL    HW1 6469   2.684   0.483   4.003
 2081SOL    HW2 6470   2.583   0.606   4.041
 2082SOL     OW 6471   3.519   0.604   4.930
 2082SOL    HW1 6472   3.481   0.535   4.992
 2082SOL    HW2 6473   3.601   0.568   4.886
 2083SOL     OW 6474   2.792   1.678   5.189
 2083SOL    HW1 6475   2.768   1.660   5.094
 2083SOL    HW2 6476   2.822   1.772   5.199
 2084SOL     OW 6477   2.335   0.500   3.915
 2084SOL    HW1 6478   2.396   0.580   3.919
 2084SOL    HW2 6479   2.240   0.531   3.922
 2085SOL     OW 6480   3.209   1.059   4.958
 2085SOL    HW1 6481   3.233   0.996   4.884
 2085SOL    HW2 6482   3.119   1.099   4.940
 2086SOL     OW 6483   3.164   0.855   4.033
 2086SOL    HW1 6484   3.078   0.824   4.075
 2086SOL    HW2 6485   3.160   0.841   3.934
 2087SOL     OW 6486   3.621   1.747   4.878
 2087SOL    HW1 6487   3.682   1.777   4.805
 2087SOL    HW2 6488   3.583   1.658   4.856
 2088SOL     OW 6489   3.114   1.731   4.852
 2088SOL    HW1 6490   3.198   1.736   4.798
 2088SOL    HW2 6491   3.091   1.635   4.870
 2089SOL     OW 6492   1.945   1.258   4.746
 2089SOL    HW1 6493   1.940   1.257   4.846
 2089SOL    HW2 6494   1.862   1.217   4.708
 2090SOL     OW 6495   3.588   0.135   4.247
 2090SOL    HW1 6496   3.661   0.118   4.180
 2090SOL    HW2 6497   3.557   0.048   4.285
 2091SOL     OW 6498   3.250   1.573   4.201
 2091SOL    HW1 6499   3.317   1.585   4.127
 2091SOL    HW2 6500   3.210   1.662   4.224
 2092SOL     OW 6501   3.142   0.927   4.396
 2092SOL    HW1 6502   3.202   0.846   4.398
 2092SOL    HW2 6503   3.182   0.996   4.336
 2093SOL     OW 6504   2.534   1.616   3.878
 2093SOL    HW1 6505   2.543   1.626   3.779
 2093SOL    HW2 6506   2.494   1.527   3.899
 2094SOL     OW 6507   3.512   1.720   5.118
 2094SOL    HW1 6508   3.565   1.730   5.034
 2094SOL    HW2 6509   3.485   1.810   5.152
 2095SOL     OW 6510   3.703   0.175   4.687
 2095SOL    HW1 6511   3.742   0.090   4.651
 2095SOL    HW2 6512   3.605   0.177   4.668
 2096SOL     OW 6513   2.125   0.326   4.444
 2096SOL    HW1 6514   2.046   0.377   4.410
 2096SOL    HW2 6515   2.116   0.311   4.542
 2097SOL     OW 6516   3.056   1.612   3.755
 2097SOL    HW1 6517   3.062   1.519   3.792
 2097SOL    HW2 6518   2.997   1.612   3.675
 2098SOL     OW 6519   2.684   1.002   5.096
 2098SOL    HW1 6520   2.724   1.001   5.004
 2098SOL    HW2 6521   2.694   1.094   5.136
 2099SOL     OW 6522   2.778   0.910   4.015
 2099SOL    HW1 6523   2.841   0.948   3.947
 2099SOL    HW2 6524   2.818   0.827   4.054
 2100SOL     OW 6525   3.366   1.607   3.768
 2100SOL    HW1 6526   3.274   1.644   3.775
 2100SOL    HW2 6527   3.404   1.627   3.678
 2101SOL     OW 6528   2.901   1.098   4.420
 2101SOL    HW1 6529   2.831   1.051   4.474
 2101SOL    HW2 6530   2.960   1.030   4.377
 2102SOL     OW 6531   2.876   0.236   4.695
 2102SOL    HW1 6532   2.868   0.200   4.602
 2102SOL    HW2 6533   2.874   0.160   4.760
 2103SOL     OW 6534   2.452   1.487   4.215
 2103SOL    HW1 6535   2.494   1.429   4.145
 2103SOL    HW2 6536   2.408   1.566   4.171
 2104SOL     OW 6537   3.571   0.385   5.105
 2104SOL    HW1 6538   3.644   0.454   5.109
 2104SOL    HW2 6539   3.599   0.310   5.046
 2105SOL     OW 6540   2.117   1.348   4.014
 2105SOL    HW1 6541   2.021   1.349   3.987
 2105SOL    HW2 6542   2.129   1.401   4.098
 2106SOL     OW 6543   1.937   0.345   3.757
 2106SOL    HW1 6544   1.845   0.317   3.728
 2106SOL    HW2 6545   1.968   0.422   3.701
 2107SOL     OW 6546   1.934   0.166   4.042
 2107SOL    HW1 6547   1.917   0.249   3.988
 2107SOL    HW2 6548   2.024   0.129   4.020
 2108SOL     OW 6549   3.045   1.335   3.843
 2108SOL    HW1 6550   2.946   1.324   3.845
 2108SOL    HW2 6551   3.079   1.350   3.936
 2109SOL     OW 6552   3.355   1.767   4.683
 2109SOL    HW1 6553   3.388   1.831   4.614
 2109SOL    HW2 6554   3.421   1.761   4.758
 2110SOL     OW 6555   3.312   1.220   5.357
 2110SOL    HW1 6556   3.303   1.210   5.456
 2110SOL    HW2 6557   3.408   1.213   5.331
 2111SOL     OW 6558   3.536   0.883   4.978
 2111SOL    HW1 6559   3.509   0.794   4.941
 2111SOL    HW2 6560   3.537   0.951   4.905
 2112SOL     OW 6561   3.087   0.325   4.173
 2112SOL    HW1 6562   3.152   0.251   4.162
 2112SOL    HW2 6563   3.107   0.375   4.257
 2113SOL     OW 6564   2.456   0.745   4.376
 2113SOL    HW1 6565   2.506   0.830   4.357
 2113SOL    HW2 6566   2.368   0.747   4.328
 2114SOL     OW 6567   3.592   0.934   5.241
 2114SOL    HW1 6568   3.630   1.025   5.256
 2114SOL    HW2 6569   3.584   0.917   5.142
 2115SOL     OW 6570   2.721   1.374   3.740
 2115SOL    HW1 6571   2.675   1.389   3.828
 2115SOL    HW2 6572   2.765   1.459   3.710
 2116SOL     OW 6573   2.523   1.790   4.677
 2116SOL    HW1 6574   2.477   1.878   4.664
 2116SOL    HW2 6575   2.622   1.802   4.670
 2117SOL     OW 6576   2.721   0.956   4.585
 2117SOL    HW1 6577   2.775   0.887   4.633
 2117SOL    HW2 6578   2.689   1.025   4.651
 2118SOL     OW 6579   2.945   0.984   3.811
 2118SOL    HW1 6580   2.922   1.037   3.729
 2118SOL    HW2 6581   3.026   0.928   3.792
 2119SOL     OW 6582   3.723   1.569   4.575
 2119SOL    HW1 6583   3.652   1.557   4.505
 2119SOL    HW2 6584   3.724   1.490   4.635
 2120SOL     OW 6585   1.941   1.240   4.377
 2120SOL    HW1 6586   1.940   1.193   4.465
 2120SOL    HW2 6587   2.023   1.212   4.326
 2121SOL     OW 6588   3.686   0.192   4.951
 2121SOL    HW1 6589   3.682   0.102   4.995
 2121SOL    HW2 6590   3.689   0.181   4.852
 2122SOL     OW 6591   2.290   0.424   4.244
 2122SOL    HW1 6592   2.320   0.352   4.182
 2122SOL    HW2 6593   2.251   0.384   4.327
 2123SOL     OW 6594   3.567   1.487   4.828
 2123SOL    HW1 6595   3.474   1.462   4.801
 2123SOL    HW2 6596   3.593   1.437   4.910
 2124SOL     OW 6597   2.674   1.586   4.411
 2124SOL    HW1 6598   2.706   1.596   4.317
 2124SOL    HW2 6599   2.595   1.524   4.413
 2125SOL     OW 6600   2.632   1.330   4.025
 2125SOL    HW1 6601   2.586   1.243   4.042
 2125SOL    HW2 6602   2.723   1.327   4.066
 2126SOL     OW 6603   3.214   0.052   3.892
 2126SOL    HW1 6604   3.249   0.011   3.808
 2126SOL    HW2 6605   3.124   0.014   3.912
 2127SOL     OW 6606   3.162   0.453   4.415
 2127SOL    HW1 6607   3.103   0.533   4.419
 2127SOL    HW2 6608   3.177   0.418   4.508
 2128SOL     OW 6609   3.455   0.221   4.606
 2128SOL    HW1 6610   3.371   0.220   4.660
 2128SOL    HW2 6611   3.457   0.304   4.550
 2129SOL     OW 6612   1.901   1.077   4.024
 2129SOL    HW1 6613   2.000   1.066   4.015
 2129SOL    HW2 6614   1.861   0.991   4.056
 2130SOL     OW 6615   2.737   1.646   4.061
 2130SOL    HW1 6616   2.660   1.611   4.007
 2130SOL    HW2 6617   2.705   1.717   4.123
 2131SOL     OW 6618   2.092   2.490   0.113
 2131SOL    HW1 6619   1.999   2.488   0.150
 2131SOL    HW2 6620   2.093   2.451   0.021
 2132SOL     OW 6621   2.087   2.137   0.996
 2132SOL    HW1 6622   2.122   2.120   1.088
 2132SOL    HW2 6623   1.999   2.092   0.984
 2133SOL     OW 6624   1.881   2.230   0.647
 2133SOL    HW1 6625   1.799   2.273   0.686
 2133SOL    HW2 6626   1.853   2.157   0.584
 2134SOL     OW 6627   2.431   3.137   1.165
 2134SOL    HW1 6628   2.338   3.130   1.128
 2134SOL    HW2 6629   2.442   3.226   1.209
 2135SOL     OW 6630   3.417   3.373   0.703
 2135SOL    HW1 6631   3.360   3.357   0.784
 2135SOL    HW2 6632   3.358   3.383   0.623
 2136SOL     OW 6633   2.997   2.565   0.717
 2136SOL    HW1 6634   3.054   2.643   0.692
 2136SOL    HW2 6635   2.937   2.591   0.793
 2137SOL     OW 6636   3.617   2.469   0.231
 2137SOL    HW1 6637   3.605   2.456   0.132
 2137SOL    HW2 6638   3.587   2.388   0.280
 2138SOL     OW 6639   2.630   3.006   1.023
 2138SOL    HW1 6640   2.552   3.023   1.083
 2138SOL    HW2 6641   2.664   3.093   0.987
 2139SOL     OW 6642   2.712   2.660   1.823
 2139SOL    HW1 6643   2.708   2.736   1.888
 2139SOL    HW2 6644   2.734   2.696   1.732
 2140SOL     OW 6645   2.547   2.874   0.665
 2140SOL    HW1 6646   2.616   2.858   0.735
 2140SOL    HW2 6647   2.474   2.931   0.703
 2141SOL     OW 6648   2.548   3.023   1.803
 2141SOL    HW1 6649   2.608   3.102   1.817
 2141SOL    HW2 6650   2.462   3.054   1.762
 2142SOL     OW 6651   2.197   3.297   1.061
 2142SOL    HW1 6652   2.119   3.266   1.008
 2142SOL    HW2 6653   2.255   3.355   1.004
 2143SOL     OW 6654   3.322   3.367   1.339
 2143SOL    HW1 6655   3.346   3.461   1.365
 2143SOL    HW2 6656   3.306   3.313   1.421
 2144SOL     OW 6657   2.300   2.254   1.499
 2144SOL    HW1 6658   2.382   2.198   1.508
 2144SOL    HW2 6659   2.219   2.196   1.503
 2145SOL     OW 6660   3.465   2.309   0.737
 2145SOL    HW1 6661   3.391   2.355   0.687
 2145SOL    HW2 6662   3.516   2.377   0.790
 2146SOL     OW 6663   2.093   3.575   0.483
 2146SOL    HW1 6664   2.127   3.652   0.537
 2146SOL    HW2 6665   2.137   3.575   0.393
 2147SOL     OW 6666   2.989   3.203   1.690
 2147SOL    HW1 6667   3.036   3.203   1.778
 2147SOL    HW2 6668   2.941   3.116   1.679
 2148SOL     OW 6669   2.092   3.296   0.538
 2148SOL    HW1 6670   2.066   3.392   0.538
 2148SOL    HW2 6671   2.021   3.242   0.583
 2149SOL     OW 6672   2.102   2.953   0.886
 2149SOL    HW1 6673   2.116   2.869   0.938
 2149SOL    HW2 6674   2.047   3.017   0.941
 2150SOL     OW 6675   2.482   3.648   1.439
 2150SOL    HW1 6676   2.390   3.631   1.474
 2150SOL    HW2 6677   2.510   3.740   1.465
 2151SOL     OW 6678   2.468   2.826   0.123
 2151SOL    HW1 6679   2.475   2.910   0.069
 2151SOL    HW2 6680   2.514   2.839   0.211
 2152SOL     OW 6681   3.456   1.976   1.480
 2152SOL    HW1 6682   3.438   2.043   1.408
 2152SOL    HW2 6683   3.453   2.022   1.569
 2153SOL     OW 6684   1.984   2.505   0.563
 2153SOL    HW1 6685   1.939   2.417   0.580
 2153SOL    HW2 6686   1.983   2.559   0.647
 2154SOL     OW 6687   3.704   3.629   0.359
 2154SOL    HW1 6688   3.758   3.600   0.439
 2154SOL    HW2 6689   3.734   3.719   0.330
 2155SOL     OW 6690   1.889   3.458   0.117
 2155SOL    HW1 6691   1.870   3.362   0.138
 2155SOL    HW2 6692   1.856   3.516   0.192
 2156SOL     OW 6693   3.551   2.784   0.612
 2156SOL    HW1 6694   3.646   2.755   0.620
 2156SOL    HW2 6695   3.543   2.849   0.537
 2157SOL     OW 6696   3.503   2.970   0.432
 2157SOL    HW1 6697   3.589   2.972   0.380
 2157SOL    HW2 6698   3.517   3.017   0.520
 2158SOL     OW 6699   1.975   2.599   1.597
 2158SOL    HW1 6700   2.063   2.586   1.642
 2158SOL    HW2 6701   1.962   2.696   1.575
 2159SOL     OW 6702   2.475   3.227   0.726
 2159SOL    HW1 6703   2.426   3.140   0.735
 2159SOL    HW2 6704   2.452   3.270   0.639
 2160SOL     OW 6705   3.155   3.090   1.423
 2160SOL    HW1 6706   3.192   3.017   1.365
 2160SOL    HW2 6707   3.207   3.095   1.508
 2161SOL     OW 6708   2.671   1.866   0.502
 2161SOL    HW1 6709   2.711   1.957   0.493
 2161SOL    HW2 6710   2.571   1.874   0.508
 2162SOL     OW 6711   2.059   2.838   1.264
 2162SOL    HW1 6712   2.148   2.793   1.250
 2162SOL    HW2 6713   1.986   2.773   1.245
 2163SOL     OW 6714   3.387   2.861   0.190
 2163SOL    HW1 6715   3.324   2.785   0.203
 2163SOL    HW2 6716   3.435   2.879   0.276
 2164SOL     OW 6717   3.049   3.654   1.616
 2164SOL    HW1 6718   3.073   3.714   1.540
 2164SOL    HW2 6719   3.056   3.559   1.586
 2165SOL     OW 6720   2.179   2.113   1.801
 2165SOL    HW1 6721   2.250   2.184   1.807
 2165SOL    HW2 6722   2.091   2.152   1.829
 2166SOL     OW 6723   3.328   3.279   0.953
 2166SOL    HW1 6724   3.269   3.285   1.033
 2166SOL    HW2 6725   3.313   3.191   0.907
 2167SOL     OW 6726   3.529   3.576   0.572
 2167SOL    HW1 6727   3.488   3.553   0.484
 2167SOL    HW2 6728   3.511   3.502   0.637
 2168SOL     OW 6729   2.460   2.591   0.270
 2168SOL    HW1 6730   2.484   2.660   0.202
 2168SOL    HW2 6731   2.382   2.624   0.324
 2169SOL     OW 6732   3.143   2.207   0.944
 2169SOL    HW1 6733   3.057   2.157   0.931
 2169SOL    HW2 6734   3.205   2.153   1.000
 2170SOL     OW 6735   3.438   3.524   0.307
 2170SOL    HW1 6736   3.527   3.570   0.310
 2170SOL    HW2 6737   3.417   3.500   0.212
 2171SOL     OW 6738   2.669   2.467   1.465
 2171SOL    HW1 6739   2.622   2.464   1.554
 2171SOL    HW2 6740   2.618   2.412   1.399
 2172SOL     OW 6741   3.256   2.331   1.674
 2172SOL    HW1 6742   3.236   2.374   1.762
 2172SOL    HW2 6743   3.334   2.269   1.683
 2173SOL     OW 6744   2.835   2.752   1.572
 2173SOL    HW1 6745   2.881   2.668   1.543
 2173SOL    HW2 6746   2.779   2.786   1.497
 2174SOL     OW 6747   2.853   2.272   1.242
 2174SOL    HW1 6748   2.776   2.306   1.296
 2174SOL    HW2 6749   2.819   2.221   1.163
 2175SOL     OW 6750   2.903   2.563   0.429
 2175SOL    HW1 6751   2.929   2.559   0.525
 2175SOL    HW2 6752   2.818   2.512   0.415
 2176SOL     OW 6753   1.938   2.673   0.789
 2176SOL    HW1 6754   2.037   2.661   0.798
 2176SOL    HW2 6755   1.914   2.768   0.810
 2177SOL     OW 6756   1.992   3.683   1.571
 2177SOL    HW1 6757   1.982   3.668   1.670
 2177SOL    HW2 6758   1.906   3.719   1.535
 2178SOL     OW 6759   2.727   2.210   0.195
 2178SOL    HW1 6760   2.786   2.273   0.146
 2178SOL    HW2 6761   2.746   2.116   0.166
 2179SOL     OW 6762   3.581   2.447   1.831
 2179SOL    HW1 6763   3.555   2.536   1.795
 2179SOL    HW2 6764   3.579   2.379   1.758
 2180SOL     OW 6765   3.224   3.006   0.545
 2180SOL    HW1 6766   3.307   2.977   0.497
 2180SOL    HW2 6767   3.175   3.073   0.489
 2181SOL     OW 6768   2.412   2.058   0.885
 2181SOL    HW1 6769   2.407   2.053   0.985
 2181SOL    HW2 6770   2.414   2.154   0.856
 2182SOL     OW 6771   2.870   3.318   0.477
 2182SOL    HW1 6772   2.824   3.390   0.425
 2182SOL    HW2 6773   2.866   3.338   0.575
 2183SOL     OW 6774   3.657   2.928   0.873
 2183SOL    HW1 6775   3.595   2.913   0.797
 2183SOL    HW2 6776   3.605   2.939   0.958
 2184SOL     OW 6777   3.089   3.412   1.506
 2184SOL    HW1 6778   3.095   3.335   1.570
 2184SOL    HW2 6779   3.037   3.386   1.426
 2185SOL     OW 6780   2.183   2.805   0.242
 2185SOL    HW1 6781   2.265   2.844   0.200
 2185SOL    HW2 6782   2.156   2.723   0.193
 2186SOL     OW 6783   3.320   2.597   0.728
 2186SOL    HW1 6784   3.315   2.532   0.803
 2186SOL    HW2 6785   3.400   2.656   0.741
 2187SOL     OW 6786   2.323   3.128   1.727
 2187SOL    HW1 6787   2.273   3.129   1.641
 2187SOL    HW2 6788   2.260   3.110   1.803
 2188SOL     OW 6789   2.973   3.638   0.237
 2188SOL    HW1 6790   2.913   3.576   0.287
 2188SOL    HW2 6791   3.004   3.594   0.152
 2189SOL     OW 6792   2.064   2.147   1.498
 2189SOL    HW1 6793   1.984   2.207   1.485
 2189SOL    HW2 6794   2.054   2.098   1.584
 2190SOL     OW 6795   3.494   3.239   0.081
 2190SOL    HW1 6796   3.462   3.333   0.071
 2190SOL    HW2 6797   3.418   3.176   0.069
 2191SOL     OW 6798   2.326   3.605   0.323
 2191SOL    HW1 6799   2.359   3.644   0.409
 2191SOL    HW2 6800   2.402   3.598   0.258
 2192SOL     OW 6801   3.262   1.969   0.426
 2192SOL    HW1 6802   3.238   1.932   0.336
 2192SOL    HW2 6803   3.361   1.985   0.430
 2193SOL     OW 6804   2.802   3.560   0.904
 2193SOL    HW1 6805   2.882   3.503   0.925
 2193SOL    HW2 6806   2.753   3.520   0.827
 2194SOL     OW 6807   2.244   2.562   0.480
 2194SOL    HW1 6808   2.289   2.472   0.477
 2194SOL    HW2 6809   2.150   2.551   0.513
 2195SOL     OW 6810   3.409   2.084   1.729
 2195SOL    HW1 6811   3.404   2.121   1.821
 2195SOL    HW2 6812   3.337   2.015   1.717
 2196SOL     OW 6813   2.643   2.126   1.749
 2196SOL    HW1 6814   2.710   2.065   1.792
 2196SOL    HW2 6815   2.570   2.145   1.814
 2197SOL     OW 6816   2.750   3.376   1.195
 2197SOL    HW1 6817   2.727   3.351   1.101
 2197SOL    HW2 6818   2.811   3.307   1.234
 2198SOL     OW 6819   3.213   2.452   1.433
 2198SOL    HW1 6820   3.241   2.409   1.518
 2198SOL    HW2 6821   3.238   2.548   1.434
 2199SOL     OW 6822   2.665   3.264   0.924
 2199SOL    HW1 6823   2.755   3.278   0.882
 2199SOL    HW2 6824   2.594   3.266   0.853
 2200SOL     OW 6825   2.784   2.365   0.899
 2200SOL    HW1 6826   2.759   2.356   0.803
 2200SOL    HW2 6827   2.832   2.283   0.930
 2201SOL     OW 6828   2.401   1.926   0.512
 2201SOL    HW1 6829   2.320   1.927   0.570
 2201SOL    HW2 6830   2.404   2.009   0.457
 2202SOL     OW 6831   3.296   3.050   0.041
 2202SOL    HW1 6832   3.328   2.974   0.098
 2202SOL    HW2 6833   3.204   3.077   0.071
 2203SOL     OW 6834   2.159   1.897   0.171
 2203SOL    HW1 6835   2.208   1.981   0.150
 2203SOL    HW2 6836   2.221   1.832   0.216
 2204SOL     OW 6837   2.797   2.098   0.480
 2204SOL    HW1 6838   2.749   2.139   0.402
 2204SOL    HW2 6839   2.896   2.096   0.461
 2205SOL     OW 6840   2.938   2.545   1.464
 2205SOL    HW1 6841   2.858   2.484   1.467
 2205SOL    HW2 6842   3.019   2.492   1.440
 2206SOL     OW 6843   3.089   3.432   0.793
 2206SOL    HW1 6844   3.110   3.506   0.728
 2206SOL    HW2 6845   3.157   3.432   0.866
 2207SOL     OW 6846   2.321   3.014   0.741
 2207SOL    HW1 6847   2.250   2.987   0.806
 2207SOL    HW2 6848   2.295   2.986   0.648
 2208SOL     OW 6849   3.133   3.659   0.591
 2208SOL    HW1 6850   3.177   3.723   0.527
 2208SOL    HW2 6851   3.083   3.711   0.661
 2209SOL     OW 6852   2.894   2.411   0.016
 2209SOL    HW1 6853   2.853   2.493  -0.023
 2209SOL    HW2 6854   2.958   2.437   0.089
 2210SOL     OW 6855   1.940   2.418   1.386
 2210SOL    HW1 6856   2.032   2.417   1.345
 2210SOL    HW2 6857   1.934   2.492   1.453
 2211SOL     OW 6858   2.423   2.084   1.147
 2211SOL    HW1 6859   2.461   2.000   1.184
 2211SOL    HW2 6860   2.335   2.103   1.191
 2212SOL     OW 6861   2.728   2.316   0.642
 2212SOL    HW1 6862   2.696   2.388   0.580
 2212SOL    HW2 6863   2.752   2.235   0.589
 2213SOL     OW 6864   2.879   1.901   0.753
 2213SOL    HW1 6865   2.807   1.906   0.684
 2213SOL    HW2 6866   2.855   1.832   0.822
 2214SOL     OW 6867   3.291   3.035   0.867
 2214SOL    HW1 6868   3.236   2.951   0.860
 2214SOL    HW2 6869   3.317   3.064   0.775
 2215SOL     OW 6870   3.328   2.452   0.992
 2215SOL    HW1 6871   3.298   2.357   0.999
 2215SOL    HW2 6872   3.401   2.468   1.058
 2216SOL     OW 6873   3.719   2.695   0.377
 2216SOL    HW1 6874   3.761   2.631   0.441
 2216SOL    HW2 6875   3.681   2.644   0.299
 2217SOL     OW 6876   2.350   3.247   0.174
 2217SOL    HW1 6877   2.263   3.232   0.221
 2217SOL    HW2 6878   2.333   3.273   0.079
 2218SOL     OW 6879   3.526   3.142   0.657
 2218SOL    HW1 6880   3.625   3.150   0.671
 2218SOL    HW2 6881   3.481   3.226   0.688
 2219SOL     OW 6882   3.252   2.437   0.078
 2219SOL    HW1 6883   3.198   2.416   0.159
 2219SOL    HW2 6884   3.343   2.396   0.087
 2220SOL     OW 6885   2.389   2.118   0.328
 2220SOL    HW1 6886   2.416   2.059   0.253
 2220SOL    HW2 6887   2.389   2.213   0.297
 2221SOL     OW 6888   3.616   3.085   1.588
 2221SOL    HW1 6889   3.707   3.046   1.575
 2221SOL    HW2 6890   3.624   3.181   1.612
 2222SOL     OW 6891   2.926   3.209   1.340
 2222SOL    HW1 6892   2.846   3.186   1.395
 2222SOL    HW2 6893   3.009   3.183   1.389
 2223SOL     OW 6894   3.454   3.491   1.625
 2223SOL    HW1 6895   3.481   3.525   1.535
 2223SOL    HW2 6896   3.533   3.453   1.671
 2224SOL     OW 6897   2.973   3.057   1.100
 2224SOL    HW1 6898   2.933   3.101   1.181
 2224SOL    HW2 6899   2.932   3.094   1.017
 2225SOL     OW 6900   3.500   2.961   1.079
 2225SOL    HW1 6901   3.505   3.042   1.138
 2225SOL    HW2 6902   3.414   2.963   1.028
 2226SOL     OW 6903   2.777   1.951   1.402
 2226SOL    HW1 6904   2.802   1.931   1.307
 2226SOL    HW2 6905   2.849   2.007   1.444
 2227SOL     OW 6906   2.842   2.978   1.719
 2227SOL    HW1 6907   2.743   2.984   1.729
 2227SOL    HW2 6908   2.865   2.898   1.663
 2228SOL     OW 6909   2.567   2.912   0.368
 2228SOL    HW1 6910   2.553   2.919   0.467
 2228SOL    HW2 6911   2.651   2.861   0.350
 2229SOL     OW 6912   2.272   2.675   1.251
 2229SOL    HW1 6913   2.358   2.687   1.301
 2229SOL    HW2 6914   2.230   2.588   1.278
 2230SOL     OW 6915   3.136   2.248   1.262
 2230SOL    HW1 6916   3.157   2.322   1.326
 2230SOL    HW2 6917   3.047   2.265   1.219
 2231SOL     OW 6918   1.926   3.426   1.331
 2231SOL    HW1 6919   1.880   3.508   1.297
 2231SOL    HW2 6920   2.024   3.445   1.340
 2232SOL     OW 6921   2.229   2.962   0.501
 2232SOL    HW1 6922   2.222   3.045   0.445
 2232SOL    HW2 6923   2.233   2.882   0.441
 2233SOL     OW 6924   2.428   2.399   0.865
 2233SOL    HW1 6925   2.440   2.465   0.791
 2233SOL    HW2 6926   2.474   2.433   0.948
 2234SOL     OW 6927   3.114   3.210   0.388
 2234SOL    HW1 6928   3.164   3.287   0.428
 2234SOL    HW2 6929   3.019   3.212   0.420
 2235SOL     OW 6930   3.134   3.307   1.142
 2235SOL    HW1 6931   3.181   3.320   1.229
 2235SOL    HW2 6932   3.068   3.233   1.151
 2236SOL     OW 6933   3.444   2.501   0.472
 2236SOL    HW1 6934   3.413   2.562   0.545
 2236SOL    HW2 6935   3.494   2.553   0.403
 2237SOL     OW 6936   2.216   3.372   1.329
 2237SOL    HW1 6937   2.195   3.328   1.242
 2237SOL    HW2 6938   2.313   3.398   1.332
 2238SOL     OW 6939   2.264   2.613   1.598
 2238SOL    HW1 6940   2.332   2.668   1.551
 2238SOL    HW2 6941   2.304   2.525   1.625
 2239SOL     OW 6942   3.449   2.641   1.670
 2239SOL    HW1 6943   3.357   2.679   1.665
 2239SOL    HW2 6944   3.509   2.688   1.605
 2240SOL     OW 6945   2.875   1.967   1.770
 2240SOL    HW1 6946   2.881   2.052   1.718
 2240SOL    HW2 6947   2.907   1.891   1.713
 2241SOL     OW 6948   2.366   1.912   1.740
 2241SOL    HW1 6949   2.324   1.855   1.670
 2241SOL    HW2 6950   2.300   1.981   1.772
 2242SOL     OW 6951   2.435   2.732   1.029
 2242SOL    HW1 6952   2.479   2.821   1.020
 2242SOL    HW2 6953   2.372   2.732   1.106
 2243SOL     OW 6954   3.222   2.724   1.045
 2243SOL    HW1 6955   3.147   2.724   0.979
 2243SOL    HW2 6956   3.259   2.632   1.054
 2244SOL     OW 6957   3.071   2.387   0.275
 2244SOL    HW1 6958   3.084   2.303   0.329
 2244SOL    HW2 6959   3.042   2.461   0.335
 2245SOL     OW 6960   2.169   2.075   1.231
 2245SOL    HW1 6961   2.146   2.112   1.321
 2245SOL    HW2 6962   2.139   1.980   1.225
 2246SOL     OW 6963   1.899   3.172   1.282
 2246SOL    HW1 6964   1.952   3.123   1.350
 2246SOL    HW2 6965   1.921   3.270   1.287
 2247SOL     OW 6966   2.594   2.496   1.064
 2247SOL    HW1 6967   2.653   2.470   0.988
 2247SOL    HW2 6968   2.566   2.592   1.053
 2248SOL     OW 6969   3.590   2.797   1.854
 2248SOL    HW1 6970   3.544   2.790   1.765
 2248SOL    HW2 6971   3.528   2.841   1.920
 2249SOL     OW 6972   2.169   1.925   0.618
 2249SOL    HW1 6973   2.158   2.019   0.651
 2249SOL    HW2 6974   2.164   1.862   0.695
 2250SOL     OW 6975   3.484   2.229   0.374
 2250SOL    HW1 6976   3.486   2.153   0.438
 2250SOL    HW2 6977   3.436   2.306   0.414
 2251SOL     OW 6978   2.885   2.628   0.966
 2251SOL    HW1 6979   2.900   2.649   1.062
 2251SOL    HW2 6980   2.855   2.533   0.957
 2252SOL     OW 6981   2.842   3.435   1.700
 2252SOL    HW1 6982   2.822   3.479   1.612
 2252SOL    HW2 6983   2.881   3.344   1.684
 2253SOL     OW 6984   3.721   3.380   1.605
 2253SOL    HW1 6985   3.735   3.407   1.510
 2253SOL    HW2 6986   3.804   3.402   1.658
 2254SOL     OW 6987   2.212   2.760   1.804
 2254SOL    HW1 6988   2.288   2.804   1.852
 2254SOL    HW2 6989   2.247   2.713   1.722
 2255SOL     OW 6990   3.402   2.136   0.125
 2255SOL    HW1 6991   3.341   2.061   0.148
 2255SOL    HW2 6992   3.424   2.188   0.208
 2256SOL     OW 6993   3.165   2.700   0.042
 2256SOL    HW1 6994   3.199   2.607   0.057
 2256SOL    HW2 6995   3.183   2.727  -0.053
 2257SOL     OW 6996   2.930   3.195   0.849
 2257SOL    HW1 6997   2.937   3.111   0.794
 2257SOL    HW2 6998   2.992   3.264   0.813
 2258SOL     OW 6999   2.181   2.672   0.949
 2258SOL    HW1 7000   2.274   2.708   0.954
 2258SOL    HW2 7001   2.175   2.587   1.001
 2259SOL     OW 7002   2.201   2.371   1.006
 2259SOL    HW1 7003   2.149   2.288   0.989
 2259SOL    HW2 7004   2.278   2.376   0.942
 2260SOL     OW 7005   3.000   2.242   1.678
 2260SOL    HW1 7006   2.955   2.305   1.742
 2260SOL    HW2 7007   3.093   2.273   1.661
 2261SOL     OW 7008   3.022   2.069   1.477
 2261SOL    HW1 7009   3.022   2.133   1.554
 2261SOL    HW2 7010   3.050   2.117   1.394
 2262SOL     OW 7011   2.366   3.430   0.910
 2262SOL    HW1 7012   2.432   3.504   0.919
 2262SOL    HW2 7013   2.410   3.351   0.868
 2263SOL     OW 7014   2.864   2.658   1.238
 2263SOL    HW1 7015   2.905   2.626   1.324
 2263SOL    HW2 7016   2.768   2.631   1.235
 2264SOL     OW 7017   1.902   2.406   1.114
 2264SOL    HW1 7018   1.987   2.373   1.073
 2264SOL    HW2 7019   1.915   2.421   1.212
 2265SOL     OW 7020   2.051   2.382   1.722
 2265SOL    HW1 7021   2.110   2.342   1.652
 2265SOL    HW2 7022   1.993   2.453   1.681
 2266SOL     OW 7023   3.231   2.812   1.660
 2266SOL    HW1 7024   3.270   2.901   1.680
 2266SOL    HW2 7025   3.241   2.792   1.563
 2267SOL     OW 7026   2.677   2.434   0.325
 2267SOL    HW1 7027   2.684   2.345   0.279
 2267SOL    HW2 7028   2.583   2.468   0.317
 2268SOL     OW 7029   3.519   2.466   1.206
 2268SOL    HW1 7030   3.481   2.397   1.268
 2268SOL    HW2 7031   3.601   2.430   1.162
 2269SOL     OW 7032   2.114   3.426   1.744
 2269SOL    HW1 7033   2.084   3.483   1.820
 2269SOL    HW2 7034   2.107   3.329   1.770
 2270SOL     OW 7035   2.533   2.326   1.269
 2270SOL    HW1 7036   2.499   2.237   1.239
 2270SOL    HW2 7037   2.559   2.380   1.189
 2271SOL     OW 7038   2.792   3.540   1.465
 2271SOL    HW1 7039   2.768   3.522   1.370
 2271SOL    HW2 7040   2.822   3.634   1.475
 2272SOL     OW 7041   2.335   2.362   0.191
 2272SOL    HW1 7042   2.396   2.442   0.195
 2272SOL    HW2 7043   2.240   2.393   0.198
 2273SOL     OW 7044   2.021   2.999   1.466
 2273SOL    HW1 7045   2.043   2.938   1.542
 2273SOL    HW2 7046   2.031   2.950   1.380
 2274SOL     OW 7047   3.209   2.921   1.234
 2274SOL    HW1 7048   3.233   2.858   1.160
 2274SOL    HW2 7049   3.119   2.961   1.216
 2275SOL     OW 7050   3.164   2.717   0.309
 2275SOL    HW1 7051   3.078   2.686   0.351
 2275SOL    HW2 7052   3.160   2.703   0.210
 2276SOL     OW 7053   3.621   3.609   1.154
 2276SOL    HW1 7054   3.682   3.639   1.081
 2276SOL    HW2 7055   3.583   3.520   1.132
 2277SOL     OW 7056   3.114   3.593   1.128
 2277SOL    HW1 7057   3.198   3.598   1.074
 2277SOL    HW2 7058   3.091   3.497   1.146
 2278SOL     OW 7059   1.945   3.120   1.022
 2278SOL    HW1 7060   1.940   3.119   1.122
 2278SOL    HW2 7061   1.862   3.079   0.984
 2279SOL     OW 7062   2.550   3.524   1.716
 2279SOL    HW1 7063   2.494   3.605   1.725
 2279SOL    HW2 7064   2.602   3.528   1.630
 2280SOL     OW 7065   2.765   1.948   0.133
 2280SOL    HW1 7066   2.816   1.949   0.047
 2280SOL    HW2 7067   2.821   1.906   0.204
 2281SOL     OW 7068   3.588   1.997   0.523
 2281SOL    HW1 7069   3.661   1.980   0.456
 2281SOL    HW2 7070   3.557   1.910   0.561
 2282SOL     OW 7071   3.250   3.435   0.477
 2282SOL    HW1 7072   3.317   3.447   0.403
 2282SOL    HW2 7073   3.210   3.524   0.500
 2283SOL     OW 7074   1.992   3.656   1.851
 2283SOL    HW1 7075   1.951   3.582   1.904
 2283SOL    HW2 7076   2.056   3.707   1.909
 2284SOL     OW 7077   3.142   2.789   0.672
 2284SOL    HW1 7078   3.202   2.708   0.674
 2284SOL    HW2 7079   3.182   2.858   0.612
 2285SOL     OW 7080   2.692   3.135   1.422
 2285SOL    HW1 7081   2.687   3.168   1.517
 2285SOL    HW2 7082   2.606   3.154   1.376
 2286SOL     OW 7083   2.534   3.478   0.154
 2286SOL    HW1 7084   2.543   3.488   0.055
 2286SOL    HW2 7085   2.494   3.389   0.175
 2287SOL     OW 7086   3.512   3.582   1.394
 2287SOL    HW1 7087   3.565   3.592   1.310
 2287SOL    HW2 7088   3.485   3.672   1.428
 2288SOL     OW 7089   3.703   2.037   0.963
 2288SOL    HW1 7090   3.742   1.952   0.927
 2288SOL    HW2 7091   3.605   2.039   0.944
 2289SOL     OW 7092   2.125   2.188   0.720
 2289SOL    HW1 7093   2.046   2.239   0.686
 2289SOL    HW2 7094   2.116   2.173   0.818
 2290SOL     OW 7095   3.056   3.474   0.031
 2290SOL    HW1 7096   3.062   3.381   0.068
 2290SOL    HW2 7097   2.997   3.474  -0.049
 2291SOL     OW 7098   2.684   2.864   1.372
 2291SOL    HW1 7099   2.724   2.863   1.280
 2291SOL    HW2 7100   2.694   2.956   1.412
 2292SOL     OW 7101   2.778   2.772   0.291
 2292SOL    HW1 7102   2.841   2.810   0.223
 2292SOL    HW2 7103   2.818   2.689   0.330
 2293SOL     OW 7104   3.366   3.469   0.044
 2293SOL    HW1 7105   3.274   3.506   0.051
 2293SOL    HW2 7106   3.404   3.489  -0.046
 2294SOL     OW 7107   2.234   3.150   1.490
 2294SOL    HW1 7108   2.221   3.243   1.456
 2294SOL    HW2 7109   2.150   3.098   1.477
 2295SOL     OW 7110   3.476   3.154   1.289
 2295SOL    HW1 7111   3.536   3.157   1.369
 2295SOL    HW2 7112   3.401   3.218   1.302
 2296SOL     OW 7113   2.901   2.960   0.696
 2296SOL    HW1 7114   2.831   2.913   0.750
 2296SOL    HW2 7115   2.960   2.892   0.653
 2297SOL     OW 7116   2.876   2.098   0.971
 2297SOL    HW1 7117   2.868   2.062   0.878
 2297SOL    HW2 7118   2.874   2.022   1.036
 2298SOL     OW 7119   2.452   3.349   0.491
 2298SOL    HW1 7120   2.494   3.291   0.421
 2298SOL    HW2 7121   2.408   3.428   0.447
 2299SOL     OW 7122   3.571   2.247   1.381
 2299SOL    HW1 7123   3.644   2.316   1.385
 2299SOL    HW2 7124   3.599   2.172   1.322
 2300SOL     OW 7125   2.117   3.210   0.290
 2300SOL    HW1 7126   2.021   3.211   0.263
 2300SOL    HW2 7127   2.129   3.263   0.374
 2301SOL     OW 7128   1.967   2.875   1.726
 2301SOL    HW1 7129   1.890   2.842   1.780
 2301SOL    HW2 7130   2.052   2.845   1.768
 2302SOL     OW 7131   2.534   2.065   1.489
 2302SOL    HW1 7132   2.624   2.049   1.449
 2302SOL    HW2 7133   2.542   2.070   1.588
 2303SOL     OW 7134   3.302   2.718   1.398
 2303SOL    HW1 7135   3.245   2.770   1.335
 2303SOL    HW2 7136   3.398   2.730   1.374
 2304SOL     OW 7137   1.934   2.028   0.318
 2304SOL    HW1 7138   1.917   2.111   0.264
 2304SOL    HW2 7139   2.024   1.991   0.296
 2305SOL     OW 7140   3.045   3.197   0.119
 2305SOL    HW1 7141   2.946   3.186   0.121
 2305SOL    HW2 7142   3.079   3.212   0.212
 2306SOL     OW 7143   2.475   2.704   1.431
 2306SOL    HW1 7144   2.531   2.785   1.414
 2306SOL    HW2 7145   2.534   2.624   1.434
 2307SOL     OW 7146   3.355   3.629   0.959
 2307SOL    HW1 7147   3.388   3.693   0.890
 2307SOL    HW2 7148   3.421   3.623   1.034
 2308SOL     OW 7149   2.578   2.427   1.708
 2308SOL    HW1 7150   2.597   2.492   1.782
 2308SOL    HW2 7151   2.638   2.347   1.717
 2309SOL     OW 7152   3.312   3.082   1.633
 2309SOL    HW1 7153   3.303   3.072   1.732
 2309SOL    HW2 7154   3.408   3.075   1.607
 2310SOL     OW 7155   2.252   3.603   1.560
 2310SOL    HW1 7156   2.161   3.644   1.558
 2310SOL    HW2 7157   2.245   3.509   1.592
 2311SOL     OW 7158   3.536   2.745   1.254
 2311SOL    HW1 7159   3.509   2.656   1.217
 2311SOL    HW2 7160   3.537   2.813   1.181
 2312SOL     OW 7161   3.087   2.187   0.449
 2312SOL    HW1 7162   3.152   2.113   0.438
 2312SOL    HW2 7163   3.107   2.237   0.533
 2313SOL     OW 7164   2.456   2.607   0.652
 2313SOL    HW1 7165   2.506   2.692   0.633
 2313SOL    HW2 7166   2.368   2.609   0.604
 2314SOL     OW 7167   3.639   2.204   1.642
 2314SOL    HW1 7168   3.622   2.235   1.548
 2314SOL    HW2 7169   3.555   2.167   1.680
 2315SOL     OW 7170   3.592   2.796   1.517
 2315SOL    HW1 7171   3.630   2.887   1.532
 2315SOL    HW2 7172   3.584   2.779   1.418
 2316SOL     OW 7173   2.721   3.236   0.016
 2316SOL    HW1 7174   2.675   3.251   0.104
 2316SOL    HW2 7175   2.765   3.321  -0.014
 2317SOL     OW 7176   2.523   3.652   0.953
 2317SOL    HW1 7177   2.477   3.740   0.940
 2317SOL    HW2 7178   2.622   3.664   0.946
 2318SOL     OW 7179   2.721   2.818   0.861
 2318SOL    HW1 7180   2.775   2.749   0.909
 2318SOL    HW2 7181   2.689   2.887   0.927
 2319SOL     OW 7182   2.945   2.846   0.087
 2319SOL    HW1 7183   2.922   2.899   0.005
 2319SOL    HW2 7184   3.026   2.790   0.068
 2320SOL     OW 7185   3.723   3.431   0.851
 2320SOL    HW1 7186   3.652   3.419   0.781
 2320SOL    HW2 7187   3.724   3.352   0.911
 2321SOL     OW 7188   2.083   3.176   1.844
 2321SOL    HW1 7189   2.018   3.103   1.823
 2321SOL    HW2 7190   2.087   3.190   1.942
 2322SOL     OW 7191   1.941   3.102   0.653
 2322SOL    HW1 7192   1.940   3.055   0.741
 2322SOL    HW2 7193   2.023   3.074   0.602
 2323SOL     OW 7194   2.534   3.253   1.624
 2323SOL    HW1 7195   2.456   3.203   1.662
 2323SOL    HW2 7196   2.531   3.348   1.655
 2324SOL     OW 7197   3.686   2.054   1.227
 2324SOL    HW1 7198   3.682   1.964   1.271
 2324SOL    HW2 7199   3.689   2.043   1.128
 2325SOL     OW 7200   2.290   2.286   0.520
 2325SOL    HW1 7201   2.320   2.214   0.458
 2325SOL    HW2 7202   2.251   2.246   0.603
 2326SOL     OW 7203   3.567   3.349   1.104
 2326SOL    HW1 7204   3.474   3.324   1.077
 2326SOL    HW2 7205   3.593   3.299   1.186
 2327SOL     OW 7206   2.179   2.409   1.280
 2327SOL    HW1 7207   2.217   2.350   1.352
 2327SOL    HW2 7208   2.219   2.383   1.192
 2328SOL     OW 7209   2.674   3.448   0.687
 2328SOL    HW1 7210   2.706   3.458   0.593
 2328SOL    HW2 7211   2.595   3.386   0.689
 2329SOL     OW 7212   3.286   2.076   1.112
 2329SOL    HW1 7213   3.338   2.011   1.167
 2329SOL    HW2 7214   3.237   2.139   1.173
 2330SOL     OW 7215   2.863   1.896   1.154
 2330SOL    HW1 7216   2.800   1.824   1.123
 2330SOL    HW2 7217   2.956   1.860   1.154
 2331SOL     OW 7218   2.632   3.192   0.301
 2331SOL    HW1 7219   2.586   3.105   0.318
 2331SOL    HW2 7220   2.723   3.189   0.342
 2332SOL     OW 7221   2.480   3.429   1.284
 2332SOL    HW1 7222   2.475   3.511   1.341
 2332SOL    HW2 7223   2.569   3.426   1.239
 2333SOL     OW 7224   3.214   1.914   0.168
 2333SOL    HW1 7225   3.249   1.873   0.084
 2333SOL    HW2 7226   3.124   1.876   0.188
 2334SOL     OW 7227   3.162   2.315   0.691
 2334SOL    HW1 7228   3.103   2.395   0.695
 2334SOL    HW2 7229   3.177   2.280   0.784
 2335SOL     OW 7230   3.455   2.083   0.882
 2335SOL    HW1 7231   3.371   2.082   0.936
 2335SOL    HW2 7232   3.457   2.166   0.826
 2336SOL     OW 7233   1.901   2.939   0.300
 2336SOL    HW1 7234   2.000   2.928   0.291
 2336SOL    HW2 7235   1.861   2.853   0.332
 2337SOL     OW 7236   2.737   3.508   0.337
 2337SOL    HW1 7237   2.660   3.473   0.283
 2337SOL    HW2 7238   2.705   3.579   0.399
 2338SOL     OW 7239   2.092   2.490   1.975
 2338SOL    HW1 7240   1.999   2.488   2.012
 2338SOL    HW2 7241   2.093   2.451   1.883
 2339SOL     OW 7242   2.087   2.137   2.858
 2339SOL    HW1 7243   2.122   2.120   2.950
 2339SOL    HW2 7244   1.999   2.092   2.846
 2340SOL     OW 7245   1.881   2.230   2.509
 2340SOL    HW1 7246   1.799   2.273   2.548
 2340SOL    HW2 7247   1.853   2.157   2.446
 2341SOL     OW 7248   2.431   3.137   3.027
 2341SOL    HW1 7249   2.338   3.130   2.990
 2341SOL    HW2 7250   2.442   3.226   3.071
 2342SOL     OW 7251   3.417   3.373   2.565
 2342SOL    HW1 7252   3.360   3.357   2.646
 2342SOL    HW2 7253   3.358   3.383   2.485
 2343SOL     OW 7254   3.617   2.469   2.093
 2343SOL    HW1 7255   3.605   2.456   1.994
 2343SOL    HW2 7256   3.587   2.388   2.142
 2344SOL     OW 7257   2.630   3.006   2.885
 2344SOL    HW1 7258   2.552   3.023   2.945
 2344SOL    HW2 7259   2.664   3.093   2.849
 2345SOL     OW 7260   2.712   2.660   3.685
 2345SOL    HW1 7261   2.708   2.736   3.750
 2345SOL    HW2 7262   2.734   2.696   3.594
 2346SOL     OW 7263   2.548   3.023   3.665
 2346SOL    HW1 7264   2.608   3.102   3.679
 2346SOL    HW2 7265   2.462   3.054   3.624
 2347SOL     OW 7266   2.197   3.297   2.923
 2347SOL    HW1 7267   2.119   3.266   2.870
 2347SOL    HW2 7268   2.255   3.355   2.866
 2348SOL     OW 7269   3.322   3.367   3.201
 2348SOL    HW1 7270   3.346   3.461   3.227
 2348SOL    HW2 7271   3.306   3.313   3.283
 2349SOL     OW 7272   2.300   2.254   3.361
 2349SOL    HW1 7273   2.382   2.198   3.370
 2349SOL    HW2 7274   2.219   2.196   3.365
 2350SOL     OW 7275   3.465   2.309   2.599
 2350SOL    HW1 7276   3.391   2.355   2.549
 2350SOL    HW2 7277   3.516   2.377   2.652
 2351SOL     OW 7278   2.093   3.575   2.345
 2351SOL    HW1 7279   2.127   3.652   2.399
 2351SOL    HW2 7280   2.137   3.575   2.255
 2352SOL     OW 7281   2.989   3.203   3.552
 2352SOL    HW1 7282   3.036   3.203   3.640
 2352SOL    HW2 7283   2.941   3.116   3.541
 2353SOL     OW 7284   2.092   3.296   2.400
 2353SOL    HW1 7285   2.066   3.392   2.400
 2353SOL    HW2 7286   2.021   3.242   2.445
 2354SOL     OW 7287   2.102   2.953   2.748
 2354SOL    HW1 7288   2.116   2.869   2.800
 2354SOL    HW2 7289   2.047   3.017   2.803
 2355SOL     OW 7290   2.482   3.648   3.301
 2355SOL    HW1 7291   2.390   3.631   3.336
 2355SOL    HW2 7292   2.510   3.740   3.327
 2356SOL     OW 7293   2.468   2.826   1.985
 2356SOL    HW1 7294   2.475   2.910   1.931
 2356SOL    HW2 7295   2.514   2.839   2.073
 2357SOL     OW 7296   3.456   1.976   3.342
 2357SOL    HW1 7297   3.438   2.043   3.270
 2357SOL    HW2 7298   3.453   2.022   3.431
 2358SOL     OW 7299   3.704   3.629   2.221
 2358SOL    HW1 7300   3.758   3.600   2.301
 2358SOL    HW2 7301   3.734   3.719   2.192
 2359SOL     OW 7302   1.889   3.458   1.979
 2359SOL    HW1 7303   1.870   3.362   2.000
 2359SOL    HW2 7304   1.856   3.516   2.054
 2360SOL     OW 7305   3.551   2.784   2.474
 2360SOL    HW1 7306   3.646   2.755   2.482
 2360SOL    HW2 7307   3.543   2.849   2.399
 2361SOL     OW 7308   3.503   2.970   2.294
 2361SOL    HW1 7309   3.589   2.972   2.242
 2361SOL    HW2 7310   3.517   3.017   2.382
 2362SOL     OW 7311   1.975   2.599   3.459
 2362SOL    HW1 7312   2.063   2.586   3.504
 2362SOL    HW2 7313   1.962   2.696   3.437
 2363SOL     OW 7314   2.475   3.227   2.588
 2363SOL    HW1 7315   2.426   3.140   2.597
 2363SOL    HW2 7316   2.452   3.270   2.501
 2364SOL     OW 7317   3.155   3.090   3.285
 2364SOL    HW1 7318   3.192   3.017   3.227
 2364SOL    HW2 7319   3.207   3.095   3.370
 2365SOL     OW 7320   2.671   1.866   2.364
 2365SOL    HW1 7321   2.711   1.957   2.355
 2365SOL    HW2 7322   2.571   1.874   2.370
 2366SOL     OW 7323   2.059   2.838   3.126
 2366SOL    HW1 7324   2.148   2.793   3.112
 2366SOL    HW2 7325   1.986   2.773   3.107
 2367SOL     OW 7326   3.387   2.861   2.052
 2367SOL    HW1 7327   3.324   2.785   2.065
 2367SOL    HW2 7328   3.435   2.879   2.138
 2368SOL     OW 7329   3.049   3.654   3.478
 2368SOL    HW1 7330   3.073   3.714   3.402
 2368SOL    HW2 7331   3.056   3.559   3.448
 2369SOL     OW 7332   2.179   2.113   3.663
 2369SOL    HW1 7333   2.250   2.184   3.669
 2369SOL    HW2 7334   2.091   2.152   3.691
 2370SOL     OW 7335   3.328   3.279   2.815
 2370SOL    HW1 7336   3.269   3.285   2.895
 2370SOL    HW2 7337   3.313   3.191   2.769
 2371SOL     OW 7338   3.529   3.576   2.434
 2371SOL    HW1 7339   3.488   3.553   2.346
 2371SOL    HW2 7340   3.511   3.502   2.499
 2372SOL     OW 7341   2.460   2.591   2.132
 2372SOL    HW1 7342   2.484   2.660   2.064
 2372SOL    HW2 7343   2.382   2.624   2.186
 2373SOL     OW 7344   3.143   2.207   2.806
 2373SOL    HW1 7345   3.057   2.157   2.793
 2373SOL    HW2 7346   3.205   2.153   2.862
 2374SOL     OW 7347   3.438   3.524   2.169
 2374SOL    HW1 7348   3.527   3.570   2.172
 2374SOL    HW2 7349   3.417   3.500   2.074
 2375SOL     OW 7350   2.669   2.467   3.327
 2375SOL    HW1 7351   2.622   2.464   3.416
 2375SOL    HW2 7352   2.618   2.412   3.261
 2376SOL     OW 7353   3.256   2.331   3.536
 2376SOL    HW1 7354   3.236   2.374   3.624
 2376SOL    HW2 7355   3.334   2.269   3.545
 2377SOL     OW 7356   2.835   2.752   3.434
 2377SOL    HW1 7357   2.881   2.668   3.405
 2377SOL    HW2 7358   2.779   2.786   3.359
 2378SOL     OW 7359   2.853   2.272   3.104
 2378SOL    HW1 7360   2.776   2.306   3.158
 2378SOL    HW2 7361   2.819   2.221   3.025
 2379SOL     OW 7362   2.903   2.563   2.291
 2379SOL    HW1 7363   2.929   2.559   2.387
 2379SOL    HW2 7364   2.818   2.512   2.277
 2380SOL     OW 7365   1.938   2.673   2.651
 2380SOL    HW1 7366   2.037   2.661   2.660
 2380SOL    HW2 7367   1.914   2.768   2.672
 2381SOL     OW 7368   1.992   3.683   3.433
 2381SOL    HW1 7369   1.982   3.668   3.532
 2381SOL    HW2 7370   1.906   3.719   3.397
 2382SOL     OW 7371   2.727   2.210   2.057
 2382SOL    HW1 7372   2.786   2.273   2.008
 2382SOL    HW2 7373   2.746   2.116   2.028
 2383SOL     OW 7374   3.581   2.447   3.693
 2383SOL    HW1 7375   3.555   2.536   3.657
 2383SOL    HW2 7376   3.579   2.379   3.620
 2384SOL     OW 7377   3.224   3.006   2.407
 2384SOL    HW1 7378   3.307   2.977   2.359
 2384SOL    HW2 7379   3.175   3.073   2.351
 2385SOL     OW 7380   2.412   2.058   2.747
 2385SOL    HW1 7381   2.407   2.053   2.847
 2385SOL    HW2 7382   2.414   2.154   2.718
 2386SOL     OW 7383   2.870   3.318   2.339
 2386SOL    HW1 7384   2.824   3.390   2.287
 2386SOL    HW2 7385   2.866   3.338   2.437
 2387SOL     OW 7386   2.213   3.663   2.715
 2387SOL    HW1 7387   2.263   3.577   2.721
 2387SOL    HW2 7388   2.278   3.740   2.712
 2388SOL     OW 7389   3.657   2.928   2.735
 2388SOL    HW1 7390   3.595   2.913   2.659
 2388SOL    HW2 7391   3.605   2.939   2.820
 2389SOL     OW 7392   3.089   3.412   3.368
 2389SOL    HW1 7393   3.095   3.335   3.432
 2389SOL    HW2 7394   3.037   3.386   3.288
 2390SOL     OW 7395   2.183   2.805   2.104
 2390SOL    HW1 7396   2.265   2.844   2.062
 2390SOL    HW2 7397   2.156   2.723   2.055
 2391SOL     OW 7398   3.320   2.597   2.590
 2391SOL    HW1 7399   3.315   2.532   2.665
 2391SOL    HW2 7400   3.400   2.656   2.603
 2392SOL     OW 7401   2.323   3.128   3.589
 2392SOL    HW1 7402   2.273   3.129   3.503
 2392SOL    HW2 7403   2.260   3.110   3.665
 2393SOL     OW 7404   2.973   3.638   2.099
 2393SOL    HW1 7405   2.913   3.576   2.149
 2393SOL    HW2 7406   3.004   3.594   2.014
 2394SOL     OW 7407   2.064   2.147   3.360
 2394SOL    HW1 7408   1.984   2.207   3.347
 2394SOL    HW2 7409   2.054   2.098   3.446
 2395SOL     OW 7410   3.494   3.239   1.943
 2395SOL    HW1 7411   3.462   3.333   1.933
 2395SOL    HW2 7412   3.418   3.176   1.931
 2396SOL     OW 7413   2.326   3.605   2.185
 2396SOL    HW1 7414   2.359   3.644   2.271
 2396SOL    HW2 7415   2.402   3.598   2.120
 2397SOL     OW 7416   3.262   1.969   2.288
 2397SOL    HW1 7417   3.238   1.932   2.198
 2397SOL    HW2 7418   3.361   1.985   2.292
 2398SOL     OW 7419   2.111   3.647   3.103
 2398SOL    HW1 7420   2.168   3.582   3.153
 2398SOL    HW2 7421   2.095   3.614   3.010
 2399SOL     OW 7422   2.802   3.560   2.766
 2399SOL    HW1 7423   2.882   3.503   2.787
 2399SOL    HW2 7424   2.753   3.520   2.689
 2400SOL     OW 7425   2.244   2.562   2.342
 2400SOL    HW1 7426   2.289   2.472   2.339
 2400SOL    HW2 7427   2.150   2.551   2.375
 2401SOL     OW 7428   3.409   2.084   3.591
 2401SOL    HW1 7429   3.404   2.121   3.683
 2401SOL    HW2 7430   3.337   2.015   3.579
 2402SOL     OW 7431   2.476   1.984   1.979
 2402SOL    HW1 7432   2.574   1.962   1.986
 2402SOL    HW2 7433   2.445   1.967   1.886
 2403SOL     OW 7434   2.643   2.126   3.611
 2403SOL    HW1 7435   2.710   2.065   3.654
 2403SOL    HW2 7436   2.570   2.145   3.676
 2404SOL     OW 7437   2.750   3.376   3.057
 2404SOL    HW1 7438   2.727   3.351   2.963
 2404SOL    HW2 7439   2.811   3.307   3.096
 2405SOL     OW 7440   3.213   2.452   3.295
 2405SOL    HW1 7441   3.241   2.409   3.380
 2405SOL    HW2 7442   3.238   2.548   3.296
 2406SOL     OW 7443   2.665   3.264   2.786
 2406SOL    HW1 7444   2.755   3.278   2.744
 2406SOL    HW2 7445   2.594   3.266   2.715
 2407SOL     OW 7446   2.401   1.926   2.374
 2407SOL    HW1 7447   2.320   1.927   2.432
 2407SOL    HW2 7448   2.404   2.009   2.319
 2408SOL     OW 7449   3.296   3.050   1.903
 2408SOL    HW1 7450   3.328   2.974   1.960
 2408SOL    HW2 7451   3.204   3.077   1.933
 2409SOL     OW 7452   2.159   1.897   2.033
 2409SOL    HW1 7453   2.208   1.981   2.012
 2409SOL    HW2 7454   2.221   1.832   2.078
 2410SOL     OW 7455   2.797   2.098   2.342
 2410SOL    HW1 7456   2.749   2.139   2.264
 2410SOL    HW2 7457   2.896   2.096   2.323
 2411SOL     OW 7458   2.938   2.545   3.326
 2411SOL    HW1 7459   2.858   2.484   3.329
 2411SOL    HW2 7460   3.019   2.492   3.302
 2412SOL     OW 7461   3.089   3.432   2.655
 2412SOL    HW1 7462   3.110   3.506   2.590
 2412SOL    HW2 7463   3.157   3.432   2.728
 2413SOL     OW 7464   2.321   3.014   2.603
 2413SOL    HW1 7465   2.250   2.987   2.668
 2413SOL    HW2 7466   2.295   2.986   2.510
 2414SOL     OW 7467   3.133   3.659   2.453
 2414SOL    HW1 7468   3.177   3.723   2.389
 2414SOL    HW2 7469   3.083   3.711   2.523
 2415SOL     OW 7470   2.894   2.411   1.878
 2415SOL    HW1 7471   2.853   2.493   1.839
 2415SOL    HW2 7472   2.958   2.437   1.951
 2416SOL     OW 7473   1.940   2.418   3.248
 2416SOL    HW1 7474   2.032   2.417   3.207
 2416SOL    HW2 7475   1.934   2.492   3.315
 2417SOL     OW 7476   2.423   2.084   3.009
 2417SOL    HW1 7477   2.461   2.000   3.046
 2417SOL    HW2 7478   2.335   2.103   3.053
 2418SOL     OW 7479   2.879   1.901   2.615
 2418SOL    HW1 7480   2.807   1.906   2.546
 2418SOL    HW2 7481   2.855   1.832   2.684
 2419SOL     OW 7482   3.291   3.035   2.729
 2419SOL    HW1 7483   3.236   2.951   2.722
 2419SOL    HW2 7484   3.317   3.064   2.637
 2420SOL     OW 7485   3.328   2.452   2.854
 2420SOL    HW1 7486   3.298   2.357   2.861
 2420SOL    HW2 7487   3.401   2.468   2.920
 2421SOL     OW 7488   3.719   2.695   2.239
 2421SOL    HW1 7489   3.761   2.631   2.303
 2421SOL    HW2 7490   3.681   2.644   2.161
 2422SOL     OW 7491   2.350   3.247   2.036
 2422SOL    HW1 7492   2.263   3.232   2.083
 2422SOL    HW2 7493   2.333   3.273   1.941
 2423SOL     OW 7494   3.526   3.142   2.519
 2423SOL    HW1 7495   3.625   3.150   2.533
 2423SOL    HW2 7496   3.481   3.226   2.550
 2424SOL     OW 7497   3.252   2.437   1.940
 2424SOL    HW1 7498   3.198   2.416   2.021
 2424SOL    HW2 7499   3.343   2.396   1.949
 2425SOL     OW 7500   2.389   2.118   2.190
 2425SOL    HW1 7501   2.416   2.059   2.115
 2425SOL    HW2 7502   2.389   2.213   2.159
 2426SOL     OW 7503   3.616   3.085   3.450
 2426SOL    HW1 7504   3.707   3.046   3.437
 2426SOL    HW2 7505   3.624   3.181   3.474
 2427SOL     OW 7506   2.926   3.209   3.202
 2427SOL    HW1 7507   2.846   3.186   3.257
 2427SOL    HW2 7508   3.009   3.183   3.251
 2428SOL     OW 7509   3.454   3.491   3.487
 2428SOL    HW1 7510   3.481   3.525   3.397
 2428SOL    HW2 7511   3.533   3.453   3.533
 2429SOL     OW 7512   2.973   3.057   2.962
 2429SOL    HW1 7513   2.933   3.101   3.043
 2429SOL    HW2 7514   2.932   3.094   2.879
 2430SOL     OW 7515   3.500   2.961   2.941
 2430SOL    HW1 7516   3.505   3.042   3.000
 2430SOL    HW2 7517   3.414   2.963   2.890
 2431SOL     OW 7518   2.777   1.951   3.264
 2431SOL    HW1 7519   2.802   1.931   3.169
 2431SOL    HW2 7520   2.849   2.007   3.306
 2432SOL     OW 7521   2.842   2.978   3.581
 2432SOL    HW1 7522   2.743   2.984   3.591
 2432SOL    HW2 7523   2.865   2.898   3.525
 2433SOL     OW 7524   2.272   2.675   3.113
 2433SOL    HW1 7525   2.358   2.687   3.163
 2433SOL    HW2 7526   2.230   2.588   3.140
 2434SOL     OW 7527   3.136   2.248   3.124
 2434SOL    HW1 7528   3.157   2.322   3.188
 2434SOL    HW2 7529   3.047   2.265   3.081
 2435SOL     OW 7530   1.926   3.426   3.193
 2435SOL    HW1 7531   1.880   3.508   3.159
 2435SOL    HW2 7532   2.024   3.445   3.202
 2436SOL     OW 7533   2.229   2.962   2.363
 2436SOL    HW1 7534   2.222   3.045   2.307
 2436SOL    HW2 7535   2.233   2.882   2.303
 2437SOL     OW 7536   3.114   3.210   2.250
 2437SOL    HW1 7537   3.164   3.287   2.290
 2437SOL    HW2 7538   3.019   3.212   2.282
 2438SOL     OW 7539   3.134   3.307   3.004
 2438SOL    HW1 7540   3.181   3.320   3.091
 2438SOL    HW2 7541   3.068   3.233   3.013
 2439SOL     OW 7542   3.444   2.501   2.334
 2439SOL    HW1 7543   3.413   2.562   2.407
 2439SOL    HW2 7544   3.494   2.553   2.265
 2440SOL     OW 7545   2.216   3.372   3.191
 2440SOL    HW1 7546   2.195   3.328   3.104
 2440SOL    HW2 7547   2.313   3.398   3.194
 2441SOL     OW 7548   2.264   2.613   3.460
 2441SOL    HW1 7549   2.332   2.668   3.413
 2441SOL    HW2 7550   2.304   2.525   3.487
 2442SOL     OW 7551   3.449   2.641   3.532
 2442SOL    HW1 7552   3.357   2.679   3.527
 2442SOL    HW2 7553   3.509   2.688   3.467
 2443SOL     OW 7554   2.875   1.967   3.632
 2443SOL    HW1 7555   2.881   2.052   3.580
 2443SOL    HW2 7556   2.907   1.891   3.575
 2444SOL     OW 7557   2.366   1.912   3.602
 2444SOL    HW1 7558   2.324   1.855   3.532
 2444SOL    HW2 7559   2.300   1.981   3.634
 2445SOL     OW 7560   2.435   2.732   2.891
 2445SOL    HW1 7561   2.479   2.821   2.882
 2445SOL    HW2 7562   2.372   2.732   2.968
 2446SOL     OW 7563   3.222   2.724   2.907
 2446SOL    HW1 7564   3.147   2.724   2.841
 2446SOL    HW2 7565   3.259   2.632   2.916
 2447SOL     OW 7566   3.071   2.387   2.137
 2447SOL    HW1 7567   3.084   2.303   2.191
 2447SOL    HW2 7568   3.042   2.461   2.197
 2448SOL     OW 7569   2.169   2.075   3.093
 2448SOL    HW1 7570   2.146   2.112   3.183
 2448SOL    HW2 7571   2.139   1.980   3.087
 2449SOL     OW 7572   1.899   3.172   3.144
 2449SOL    HW1 7573   1.952   3.123   3.212
 2449SOL    HW2 7574   1.921   3.270   3.149
 2450SOL     OW 7575   3.590   2.797   3.716
 2450SOL    HW1 7576   3.544   2.790   3.627
 2450SOL    HW2 7577   3.528   2.841   3.782
 2451SOL     OW 7578   2.169   1.925   2.480
 2451SOL    HW1 7579   2.158   2.019   2.513
 2451SOL    HW2 7580   2.164   1.862   2.557
 2452SOL     OW 7581   3.484   2.229   2.236
 2452SOL    HW1 7582   3.486   2.153   2.300
 2452SOL    HW2 7583   3.436   2.306   2.276
 2453SOL     OW 7584   2.885   2.628   2.828
 2453SOL    HW1 7585   2.900   2.649   2.924
 2453SOL    HW2 7586   2.855   2.533   2.819
 2454SOL     OW 7587   2.842   3.435   3.562
 2454SOL    HW1 7588   2.822   3.479   3.474
 2454SOL    HW2 7589   2.881   3.344   3.546
 2455SOL     OW 7590   3.721   3.380   3.467
 2455SOL    HW1 7591   3.735   3.407   3.372
 2455SOL    HW2 7592   3.804   3.402   3.520
 2456SOL     OW 7593   2.212   2.760   3.666
 2456SOL    HW1 7594   2.288   2.804   3.714
 2456SOL    HW2 7595   2.247   2.713   3.584
 2457SOL     OW 7596   3.402   2.136   1.987
 2457SOL    HW1 7597   3.341   2.061   2.010
 2457SOL    HW2 7598   3.424   2.188   2.070
 2458SOL     OW 7599   3.165   2.700   1.904
 2458SOL    HW1 7600   3.199   2.607   1.919
 2458SOL    HW2 7601   3.183   2.727   1.809
 2459SOL     OW 7602   2.930   3.195   2.711
 2459SOL    HW1 7603   2.937   3.111   2.656
 2459SOL    HW2 7604   2.992   3.264   2.675
 2460SOL     OW 7605   2.181   2.672   2.811
 2460SOL    HW1 7606   2.274   2.708   2.816
 2460SOL    HW2 7607   2.175   2.587   2.863
 2461SOL     OW 7608   2.201   2.371   2.868
 2461SOL    HW1 7609   2.149   2.288   2.851
 2461SOL    HW2 7610   2.278   2.376   2.804
 2462SOL     OW 7611   3.000   2.242   3.540
 2462SOL    HW1 7612   2.955   2.305   3.604
 2462SOL    HW2 7613   3.093   2.273   3.523
 2463SOL     OW 7614   3.022   2.069   3.339
 2463SOL    HW1 7615   3.022   2.133   3.416
 2463SOL    HW2 7616   3.050   2.117   3.256
 2464SOL     OW 7617   1.870   3.188   2.062
 2464SOL    HW1 7618   1.777   3.209   2.031
 2464SOL    HW2 7619   1.880   3.089   2.075
 2465SOL     OW 7620   1.950   3.663   2.789
 2465SOL    HW1 7621   1.908   3.577   2.762
 2465SOL    HW2 7622   2.044   3.666   2.755
 2466SOL     OW 7623   2.366   3.430   2.772
 2466SOL    HW1 7624   2.432   3.504   2.781
 2466SOL    HW2 7625   2.410   3.351   2.730
 2467SOL     OW 7626   2.864   2.658   3.100
 2467SOL    HW1 7627   2.905   2.626   3.186
 2467SOL    HW2 7628   2.768   2.631   3.097
 2468SOL     OW 7629   1.902   2.406   2.976
 2468SOL    HW1 7630   1.987   2.373   2.935
 2468SOL    HW2 7631   1.915   2.421   3.074
 2469SOL     OW 7632   2.051   2.382   3.584
 2469SOL    HW1 7633   2.110   2.342   3.514
 2469SOL    HW2 7634   1.993   2.453   3.543
 2470SOL     OW 7635   3.231   2.812   3.522
 2470SOL    HW1 7636   3.270   2.901   3.542
 2470SOL    HW2 7637   3.241   2.792   3.425
 2471SOL     OW 7638   2.677   2.434   2.187
 2471SOL    HW1 7639   2.684   2.345   2.141
 2471SOL    HW2 7640   2.583   2.468   2.179
 2472SOL     OW 7641   3.519   2.466   3.068
 2472SOL    HW1 7642   3.481   2.397   3.130
 2472SOL    HW2 7643   3.601   2.430   3.024
 2473SOL     OW 7644   2.114   3.426   3.606
 2473SOL    HW1 7645   2.084   3.483   3.682
 2473SOL    HW2 7646   2.107   3.329   3.632
 2474SOL     OW 7647   2.533   2.326   3.131
 2474SOL    HW1 7648   2.499   2.237   3.101
 2474SOL    HW2 7649   2.559   2.380   3.051
 2475SOL     OW 7650   2.792   3.540   3.327
 2475SOL    HW1 7651   2.768   3.522   3.232
 2475SOL    HW2 7652   2.822   3.634   3.337
 2476SOL     OW 7653   2.335   2.362   2.053
 2476SOL    HW1 7654   2.396   2.442   2.057
 2476SOL    HW2 7655   2.240   2.393   2.060
 2477SOL     OW 7656   2.021   2.999   3.328
 2477SOL    HW1 7657   2.043   2.938   3.404
 2477SOL    HW2 7658   2.031   2.950   3.242
 2478SOL     OW 7659   3.209   2.921   3.096
 2478SOL    HW1 7660   3.233   2.858   3.022
 2478SOL    HW2 7661   3.119   2.961   3.078
 2479SOL     OW 7662   3.164   2.717   2.171
 2479SOL    HW1 7663   3.078   2.686   2.213
 2479SOL    HW2 7664   3.160   2.703   2.072
 2480SOL     OW 7665   3.621   3.609   3.016
 2480SOL    HW1 7666   3.682   3.639   2.943
 2480SOL    HW2 7667   3.583   3.520   2.994
 2481SOL     OW 7668   3.114   3.593   2.990
 2481SOL    HW1 7669   3.198   3.598   2.936
 2481SOL    HW2 7670   3.091   3.497   3.008
 2482SOL     OW 7671   1.945   3.120   2.884
 2482SOL    HW1 7672   1.940   3.119   2.984
 2482SOL    HW2 7673   1.862   3.079   2.846
 2483SOL     OW 7674   2.550   3.524   3.578
 2483SOL    HW1 7675   2.494   3.605   3.587
 2483SOL    HW2 7676   2.602   3.528   3.492
 2484SOL     OW 7677   3.588   1.997   2.385
 2484SOL    HW1 7678   3.661   1.980   2.318
 2484SOL    HW2 7679   3.557   1.910   2.423
 2485SOL     OW 7680   3.250   3.435   2.339
 2485SOL    HW1 7681   3.317   3.447   2.265
 2485SOL    HW2 7682   3.210   3.524   2.362
 2486SOL     OW 7683   1.992   3.656   3.713
 2486SOL    HW1 7684   1.951   3.582   3.766
 2486SOL    HW2 7685   2.056   3.707   3.771
 2487SOL     OW 7686   3.142   2.789   2.534
 2487SOL    HW1 7687   3.202   2.708   2.536
 2487SOL    HW2 7688   3.182   2.858   2.474
 2488SOL     OW 7689   2.692   3.135   3.284
 2488SOL    HW1 7690   2.687   3.168   3.379
 2488SOL    HW2 7691   2.606   3.154   3.238
 2489SOL     OW 7692   2.534   3.478   2.016
 2489SOL    HW1 7693   2.543   3.488   1.917
 2489SOL    HW2 7694   2.494   3.389   2.037
 2490SOL     OW 7695   3.512   3.582   3.256
 2490SOL    HW1 7696   3.565   3.592   3.172
 2490SOL    HW2 7697   3.485   3.672   3.290
 2491SOL     OW 7698   3.703   2.037   2.825
 2491SOL    HW1 7699   3.742   1.952   2.789
 2491SOL    HW2 7700   3.605   2.039   2.806
 2492SOL     OW 7701   3.056   3.474   1.893
 2492SOL    HW1 7702   3.062   3.381   1.930
 2492SOL    HW2 7703   2.997   3.474   1.813
 2493SOL     OW 7704   2.684   2.864   3.234
 2493SOL    HW1 7705   2.724   2.863   3.142
 2493SOL    HW2 7706   2.694   2.956   3.274
 2494SOL     OW 7707   2.778   2.772   2.153
 2494SOL    HW1 7708   2.841   2.810   2.085
 2494SOL    HW2 7709   2.818   2.689   2.192
 2495SOL     OW 7710   3.366   3.469   1.906
 2495SOL    HW1 7711   3.274   3.506   1.913
 2495SOL    HW2 7712   3.404   3.489   1.816
 2496SOL     OW 7713   2.234   3.150   3.352
 2496SOL    HW1 7714   2.221   3.243   3.318
 2496SOL    HW2 7715   2.150   3.098   3.339
 2497SOL     OW 7716   3.476   3.154   3.151
 2497SOL    HW1 7717   3.536   3.157   3.231
 2497SOL    HW2 7718   3.401   3.218   3.164
 2498SOL     OW 7719   2.901   2.960   2.558
 2498SOL    HW1 7720   2.831   2.913   2.612
 2498SOL    HW2 7721   2.960   2.892   2.515
 2499SOL     OW 7722   2.876   2.098   2.833
 2499SOL    HW1 7723   2.868   2.062   2.740
 2499SOL    HW2 7724   2.874   2.022   2.898
 2500SOL     OW 7725   2.452   3.349   2.353
 2500SOL    HW1 7726   2.494   3.291   2.283
 2500SOL    HW2 7727   2.408   3.428   2.309
 2501SOL     OW 7728   3.571   2.247   3.243
 2501SOL    HW1 7729   3.644   2.316   3.247
 2501SOL    HW2 7730   3.599   2.172   3.184
 2502SOL     OW 7731   2.117   3.210   2.152
 2502SOL    HW1 7732   2.021   3.211   2.125
 2502SOL    HW2 7733   2.129   3.263   2.236
 2503SOL     OW 7734   1.967   2.875   3.588
 2503SOL    HW1 7735   1.890   2.842   3.642
 2503SOL    HW2 7736   2.052   2.845   3.630
 2504SOL     OW 7737   2.534   2.065   3.351
 2504SOL    HW1 7738   2.624   2.049   3.311
 2504SOL    HW2 7739   2.542   2.070   3.450
 2505SOL     OW 7740   1.937   2.207   1.895
 2505SOL    HW1 7741   1.845   2.179   1.866
 2505SOL    HW2 7742   1.968   2.284   1.839
 2506SOL     OW 7743   3.302   2.718   3.260
 2506SOL    HW1 7744   3.245   2.770   3.197
 2506SOL    HW2 7745   3.398   2.730   3.236
 2507SOL     OW 7746   1.934   2.028   2.180
 2507SOL    HW1 7747   1.917   2.111   2.126
 2507SOL    HW2 7748   2.024   1.991   2.158
 2508SOL     OW 7749   3.045   3.197   1.981
 2508SOL    HW1 7750   2.946   3.186   1.983
 2508SOL    HW2 7751   3.079   3.212   2.074
 2509SOL     OW 7752   2.475   2.704   3.293
 2509SOL    HW1 7753   2.531   2.785   3.276
 2509SOL    HW2 7754   2.534   2.624   3.296
 2510SOL     OW 7755   3.355   3.629   2.821
 2510SOL    HW1 7756   3.388   3.693   2.752
 2510SOL    HW2 7757   3.421   3.623   2.896
 2511SOL     OW 7758   2.578   2.427   3.570
 2511SOL    HW1 7759   2.597   2.492   3.644
 2511SOL    HW2 7760   2.638   2.347   3.579
 2512SOL     OW 7761   3.312   3.082   3.495
 2512SOL    HW1 7762   3.303   3.072   3.594
 2512SOL    HW2 7763   3.408   3.075   3.469
 2513SOL     OW 7764   2.252   3.603   3.422
 2513SOL    HW1 7765   2.161   3.644   3.420
 2513SOL    HW2 7766   2.245   3.509   3.454
 2514SOL     OW 7767   3.536   2.745   3.116
 2514SOL    HW1 7768   3.509   2.656   3.079
 2514SOL    HW2 7769   3.537   2.813   3.043
 2515SOL     OW 7770   3.087   2.187   2.311
 2515SOL    HW1 7771   3.152   2.113   2.300
 2515SOL    HW2 7772   3.107   2.237   2.395
 2516SOL     OW 7773   3.639   2.204   3.504
 2516SOL    HW1 7774   3.622   2.235   3.410
 2516SOL    HW2 7775   3.555   2.167   3.542
 2517SOL     OW 7776   3.592   2.796   3.379
 2517SOL    HW1 7777   3.630   2.887   3.394
 2517SOL    HW2 7778   3.584   2.779   3.280
 2518SOL     OW 7779   2.721   3.236   1.878
 2518SOL    HW1 7780   2.675   3.251   1.966
 2518SOL    HW2 7781   2.765   3.321   1.848
 2519SOL     OW 7782   2.523   3.652   2.815
 2519SOL    HW1 7783   2.477   3.740   2.802
 2519SOL    HW2 7784   2.622   3.664   2.808
 2520SOL     OW 7785   2.945   2.846   1.949
 2520SOL    HW1 7786   2.922   2.899   1.867
 2520SOL    HW2 7787   3.026   2.790   1.930
 2521SOL     OW 7788   3.723   3.431   2.713
 2521SOL    HW1 7789   3.652   3.419   2.643
 2521SOL    HW2 7790   3.724   3.352   2.773
 2522SOL     OW 7791   2.083   3.176   3.706
 2522SOL    HW1 7792   2.018   3.103   3.685
 2522SOL    HW2 7793   2.087   3.190   3.804
 2523SOL     OW 7794   1.941   3.102   2.515
 2523SOL    HW1 7795   1.940   3.055   2.603
 2523SOL    HW2 7796   2.023   3.074   2.464
 2524SOL     OW 7797   2.534   3.253   3.486
 2524SOL    HW1 7798   2.456   3.203   3.524
 2524SOL    HW2 7799   2.531   3.348   3.517
 2525SOL     OW 7800   3.686   2.054   3.089
 2525SOL    HW1 7801   3.682   1.964   3.133
 2525SOL    HW2 7802   3.689   2.043   2.990
 2526SOL     OW 7803   3.567   3.349   2.966
 2526SOL    HW1 7804   3.474   3.324   2.939
 2526SOL    HW2 7805   3.593   3.299   3.048
 2527SOL     OW 7806   2.179   2.409   3.142
 2527SOL    HW1 7807   2.217   2.350   3.214
 2527SOL    HW2 7808   2.219   2.383   3.054
 2528SOL     OW 7809   2.674   3.448   2.549
 2528SOL    HW1 7810   2.706   3.458   2.455
 2528SOL    HW2 7811   2.595   3.386   2.551
 2529SOL     OW 7812   3.286   2.076   2.974
 2529SOL    HW1 7813   3.338   2.011   3.029
 2529SOL    HW2 7814   3.237   2.139   3.035
 2530SOL     OW 7815   2.863   1.896   3.016
 2530SOL    HW1 7816   2.800   1.824   2.985
 2530SOL    HW2 7817   2.956   1.860   3.016
 2531SOL     OW 7818   2.632   3.192   2.163
 2531SOL    HW1 7819   2.586   3.105   2.180
 2531SOL    HW2 7820   2.723   3.189   2.204
 2532SOL     OW 7821   2.480   3.429   3.146
 2532SOL    HW1 7822   2.475   3.511   3.203
 2532SOL    HW2 7823   2.569   3.426   3.101
 2533SOL     OW 7824   3.214   1.914   2.030
 2533SOL    HW1 7825   3.249   1.873   1.946
 2533SOL    HW2 7826   3.124   1.876   2.050
 2534SOL     OW 7827   3.455   2.083   2.744
 2534SOL    HW1 7828   3.371   2.082   2.798
 2534SOL    HW2 7829   3.457   2.166   2.688
 2535SOL     OW 7830   1.901   2.939   2.162
 2535SOL    HW1 7831   2.000   2.928   2.153
 2535SOL    HW2 7832   1.861   2.853   2.194
 2536SOL     OW 7833   2.737   3.508   2.199
 2536SOL    HW1 7834   2.660   3.473   2.145
 2536SOL    HW2 7835   2.705   3.579   2.261
 2537SOL     OW 7836   2.092   2.490   3.837
 2537SOL    HW1 7837   1.999   2.488   3.874
 2537SOL    HW2 7838   2.093   2.451   3.745
 2538SOL     OW 7839   2.087   2.137   4.720
 2538SOL    HW1 7840   2.122   2.120   4.812
 2538SOL    HW2 7841   1.999   2.092   4.708
 2539SOL     OW 7842   1.881   2.230   4.371
 2539SOL    HW1 7843   1.799   2.273   4.410
 2539SOL    HW2 7844   1.853   2.157   4.308
 2540SOL     OW 7845   2.431   3.137   4.889
 2540SOL    HW1 7846   2.338   3.130   4.852
 2540SOL    HW2 7847   2.442   3.226   4.933
 2541SOL     OW 7848   3.417   3.373   4.427
 2541SOL    HW1 7849   3.360   3.357   4.508
 2541SOL    HW2 7850   3.358   3.383   4.347
 2542SOL     OW 7851   2.997   2.565   4.441
 2542SOL    HW1 7852   3.054   2.643   4.416
 2542SOL    HW2 7853   2.937   2.591   4.517
 2543SOL     OW 7854   3.617   2.469   3.955
 2543SOL    HW1 7855   3.605   2.456   3.856
 2543SOL    HW2 7856   3.587   2.388   4.004
 2544SOL     OW 7857   2.630   3.006   4.747
 2544SOL    HW1 7858   2.552   3.023   4.807
 2544SOL    HW2 7859   2.664   3.093   4.711
 2545SOL     OW 7860   2.547   2.874   4.389
 2545SOL    HW1 7861   2.616   2.858   4.459
 2545SOL    HW2 7862   2.474   2.931   4.427
 2546SOL     OW 7863   2.197   3.297   4.785
 2546SOL    HW1 7864   2.119   3.266   4.732
 2546SOL    HW2 7865   2.255   3.355   4.728
 2547SOL     OW 7866   3.465   2.309   4.461
 2547SOL    HW1 7867   3.391   2.355   4.411
 2547SOL    HW2 7868   3.516   2.377   4.514
 2548SOL     OW 7869   2.093   3.575   4.207
 2548SOL    HW1 7870   2.127   3.652   4.261
 2548SOL    HW2 7871   2.137   3.575   4.117
 2549SOL     OW 7872   2.092   3.296   4.262
 2549SOL    HW1 7873   2.066   3.392   4.262
 2549SOL    HW2 7874   2.021   3.242   4.307
 2550SOL     OW 7875   2.102   2.953   4.610
 2550SOL    HW1 7876   2.116   2.869   4.662
 2550SOL    HW2 7877   2.047   3.017   4.665
 2551SOL     OW 7878   2.482   3.648   5.163
 2551SOL    HW1 7879   2.390   3.631   5.198
 2551SOL    HW2 7880   2.510   3.740   5.189
 2552SOL     OW 7881   2.468   2.826   3.847
 2552SOL    HW1 7882   2.475   2.910   3.793
 2552SOL    HW2 7883   2.514   2.839   3.935
 2553SOL     OW 7884   1.984   2.505   4.287
 2553SOL    HW1 7885   1.939   2.417   4.304
 2553SOL    HW2 7886   1.983   2.559   4.371
 2554SOL     OW 7887   3.704   3.629   4.083
 2554SOL    HW1 7888   3.758   3.600   4.163
 2554SOL    HW2 7889   3.734   3.719   4.054
 2555SOL     OW 7890   1.889   3.458   3.841
 2555SOL    HW1 7891   1.870   3.362   3.862
 2555SOL    HW2 7892   1.856   3.516   3.916
 2556SOL     OW 7893   3.551   2.784   4.336
 2556SOL    HW1 7894   3.646   2.755   4.344
 2556SOL    HW2 7895   3.543   2.849   4.261
 2557SOL     OW 7896   3.503   2.970   4.156
 2557SOL    HW1 7897   3.589   2.972   4.104
 2557SOL    HW2 7898   3.517   3.017   4.244
 2558SOL     OW 7899   2.475   3.227   4.450
 2558SOL    HW1 7900   2.426   3.140   4.459
 2558SOL    HW2 7901   2.452   3.270   4.363
 2559SOL     OW 7902   2.671   1.866   4.226
 2559SOL    HW1 7903   2.711   1.957   4.217
 2559SOL    HW2 7904   2.571   1.874   4.232
 2560SOL     OW 7905   2.059   2.838   4.988
 2560SOL    HW1 7906   2.148   2.793   4.974
 2560SOL    HW2 7907   1.986   2.773   4.969
 2561SOL     OW 7908   3.387   2.861   3.914
 2561SOL    HW1 7909   3.324   2.785   3.927
 2561SOL    HW2 7910   3.435   2.879   4.000
 2562SOL     OW 7911   3.328   3.279   4.677
 2562SOL    HW1 7912   3.269   3.285   4.757
 2562SOL    HW2 7913   3.313   3.191   4.631
 2563SOL     OW 7914   3.529   3.576   4.296
 2563SOL    HW1 7915   3.488   3.553   4.208
 2563SOL    HW2 7916   3.511   3.502   4.361
 2564SOL     OW 7917   2.460   2.591   3.994
 2564SOL    HW1 7918   2.484   2.660   3.926
 2564SOL    HW2 7919   2.382   2.624   4.048
 2565SOL     OW 7920   3.143   2.207   4.668
 2565SOL    HW1 7921   3.057   2.157   4.655
 2565SOL    HW2 7922   3.205   2.153   4.724
 2566SOL     OW 7923   3.438   3.524   4.031
 2566SOL    HW1 7924   3.527   3.570   4.034
 2566SOL    HW2 7925   3.417   3.500   3.936
 2567SOL     OW 7926   2.853   2.272   4.966
 2567SOL    HW1 7927   2.776   2.306   5.020
 2567SOL    HW2 7928   2.819   2.221   4.887
 2568SOL     OW 7929   2.903   2.563   4.153
 2568SOL    HW1 7930   2.929   2.559   4.249
 2568SOL    HW2 7931   2.818   2.512   4.139
 2569SOL     OW 7932   1.938   2.673   4.513
 2569SOL    HW1 7933   2.037   2.661   4.522
 2569SOL    HW2 7934   1.914   2.768   4.534
 2570SOL     OW 7935   2.727   2.210   3.919
 2570SOL    HW1 7936   2.786   2.273   3.870
 2570SOL    HW2 7937   2.746   2.116   3.890
 2571SOL     OW 7938   3.224   3.006   4.269
 2571SOL    HW1 7939   3.307   2.977   4.221
 2571SOL    HW2 7940   3.175   3.073   4.213
 2572SOL     OW 7941   2.412   2.058   4.609
 2572SOL    HW1 7942   2.407   2.053   4.709
 2572SOL    HW2 7943   2.414   2.154   4.580
 2573SOL     OW 7944   2.870   3.318   4.201
 2573SOL    HW1 7945   2.824   3.390   4.149
 2573SOL    HW2 7946   2.866   3.338   4.299
 2574SOL     OW 7947   2.213   3.663   4.577
 2574SOL    HW1 7948   2.263   3.577   4.583
 2574SOL    HW2 7949   2.278   3.740   4.574
 2575SOL     OW 7950   3.657   2.928   4.597
 2575SOL    HW1 7951   3.595   2.913   4.521
 2575SOL    HW2 7952   3.605   2.939   4.682
 2576SOL     OW 7953   2.183   2.805   3.966
 2576SOL    HW1 7954   2.265   2.844   3.924
 2576SOL    HW2 7955   2.156   2.723   3.917
 2577SOL     OW 7956   3.320   2.597   4.452
 2577SOL    HW1 7957   3.315   2.532   4.527
 2577SOL    HW2 7958   3.400   2.656   4.465
 2578SOL     OW 7959   2.973   3.638   3.961
 2578SOL    HW1 7960   2.913   3.576   4.011
 2578SOL    HW2 7961   3.004   3.594   3.876
 2579SOL     OW 7962   3.494   3.239   3.805
 2579SOL    HW1 7963   3.462   3.333   3.795
 2579SOL    HW2 7964   3.418   3.176   3.793
 2580SOL     OW 7965   2.326   3.605   4.047
 2580SOL    HW1 7966   2.359   3.644   4.133
 2580SOL    HW2 7967   2.402   3.598   3.982
 2581SOL     OW 7968   3.262   1.969   4.150
 2581SOL    HW1 7969   3.238   1.932   4.060
 2581SOL    HW2 7970   3.361   1.985   4.154
 2582SOL     OW 7971   2.111   3.647   4.965
 2582SOL    HW1 7972   2.168   3.582   5.015
 2582SOL    HW2 7973   2.095   3.614   4.872
 2583SOL     OW 7974   2.802   3.560   4.628
 2583SOL    HW1 7975   2.882   3.503   4.649
 2583SOL    HW2 7976   2.753   3.520   4.551
 2584SOL     OW 7977   2.244   2.562   4.204
 2584SOL    HW1 7978   2.289   2.472   4.201
 2584SOL    HW2 7979   2.150   2.551   4.237
 2585SOL     OW 7980   2.476   1.984   3.841
 2585SOL    HW1 7981   2.574   1.962   3.848
 2585SOL    HW2 7982   2.445   1.967   3.748
 2586SOL     OW 7983   2.665   3.264   4.648
 2586SOL    HW1 7984   2.755   3.278   4.606
 2586SOL    HW2 7985   2.594   3.266   4.577
 2587SOL     OW 7986   2.784   2.365   4.623
 2587SOL    HW1 7987   2.759   2.356   4.527
 2587SOL    HW2 7988   2.832   2.283   4.654
 2588SOL     OW 7989   2.401   1.926   4.236
 2588SOL    HW1 7990   2.320   1.927   4.294
 2588SOL    HW2 7991   2.404   2.009   4.181
 2589SOL     OW 7992   3.296   3.050   3.765
 2589SOL    HW1 7993   3.328   2.974   3.822
 2589SOL    HW2 7994   3.204   3.077   3.795
 2590SOL     OW 7995   2.159   1.897   3.895
 2590SOL    HW1 7996   2.208   1.981   3.874
 2590SOL    HW2 7997   2.221   1.832   3.940
 2591SOL     OW 7998   2.797   2.098   4.204
 2591SOL    HW1 7999   2.749   2.139   4.126
 2591SOL    HW2 8000   2.896   2.096   4.185
 2592SOL     OW 8001   3.089   3.432   4.517
 2592SOL    HW1 8002   3.110   3.506   4.452
 2592SOL    HW2 8003   3.157   3.432   4.590
 2593SOL     OW 8004   2.321   3.014   4.465
 2593SOL    HW1 8005   2.250   2.987   4.530
 2593SOL    HW2 8006   2.295   2.986   4.372
 2594SOL     OW 8007   3.133   3.659   4.315
 2594SOL    HW1 8008   3.177   3.723   4.251
 2594SOL    HW2 8009   3.083   3.711   4.385
 2595SOL     OW 8010   2.894   2.411   3.740
 2595SOL    HW1 8011   2.853   2.493   3.701
 2595SOL    HW2 8012   2.958   2.437   3.813
 2596SOL     OW 8013   2.423   2.084   4.871
 2596SOL    HW1 8014   2.461   2.000   4.908
 2596SOL    HW2 8015   2.335   2.103   4.915
 2597SOL     OW 8016   2.728   2.316   4.366
 2597SOL    HW1 8017   2.696   2.388   4.304
 2597SOL    HW2 8018   2.752   2.235   4.313
 2598SOL     OW 8019   2.879   1.901   4.477
 2598SOL    HW1 8020   2.807   1.906   4.408
 2598SOL    HW2 8021   2.855   1.832   4.546
 2599SOL     OW 8022   3.291   3.035   4.591
 2599SOL    HW1 8023   3.236   2.951   4.584
 2599SOL    HW2 8024   3.317   3.064   4.499
 2600SOL     OW 8025   3.328   2.452   4.716
 2600SOL    HW1 8026   3.298   2.357   4.723
 2600SOL    HW2 8027   3.401   2.468   4.782
 2601SOL     OW 8028   3.719   2.695   4.101
 2601SOL    HW1 8029   3.761   2.631   4.165
 2601SOL    HW2 8030   3.681   2.644   4.023
 2602SOL     OW 8031   2.350   3.247   3.898
 2602SOL    HW1 8032   2.263   3.232   3.945
 2602SOL    HW2 8033   2.333   3.273   3.803
 2603SOL     OW 8034   3.526   3.142   4.381
 2603SOL    HW1 8035   3.625   3.150   4.395
 2603SOL    HW2 8036   3.481   3.226   4.412
 2604SOL     OW 8037   3.252   2.437   3.802
 2604SOL    HW1 8038   3.198   2.416   3.883
 2604SOL    HW2 8039   3.343   2.396   3.811
 2605SOL     OW 8040   2.389   2.118   4.052
 2605SOL    HW1 8041   2.416   2.059   3.977
 2605SOL    HW2 8042   2.389   2.213   4.021
 2606SOL     OW 8043   2.973   3.057   4.824
 2606SOL    HW1 8044   2.933   3.101   4.905
 2606SOL    HW2 8045   2.932   3.094   4.741
 2607SOL     OW 8046   3.500   2.961   4.803
 2607SOL    HW1 8047   3.505   3.042   4.862
 2607SOL    HW2 8048   3.414   2.963   4.752
 2608SOL     OW 8049   2.567   2.912   4.092
 2608SOL    HW1 8050   2.553   2.919   4.191
 2608SOL    HW2 8051   2.651   2.861   4.074
 2609SOL     OW 8052   2.272   2.675   4.975
 2609SOL    HW1 8053   2.358   2.687   5.025
 2609SOL    HW2 8054   2.230   2.588   5.002
 2610SOL     OW 8055   3.136   2.248   4.986
 2610SOL    HW1 8056   3.157   2.322   5.050
 2610SOL    HW2 8057   3.047   2.265   4.943
 2611SOL     OW 8058   2.229   2.962   4.225
 2611SOL    HW1 8059   2.222   3.045   4.169
 2611SOL    HW2 8060   2.233   2.882   4.165
 2612SOL     OW 8061   2.428   2.399   4.589
 2612SOL    HW1 8062   2.440   2.465   4.515
 2612SOL    HW2 8063   2.474   2.433   4.672
 2613SOL     OW 8064   3.114   3.210   4.112
 2613SOL    HW1 8065   3.164   3.287   4.152
 2613SOL    HW2 8066   3.019   3.212   4.144
 2614SOL     OW 8067   3.134   3.307   4.866
 2614SOL    HW1 8068   3.181   3.320   4.953
 2614SOL    HW2 8069   3.068   3.233   4.875
 2615SOL     OW 8070   3.444   2.501   4.196
 2615SOL    HW1 8071   3.413   2.562   4.269
 2615SOL    HW2 8072   3.494   2.553   4.127
 2616SOL     OW 8073   2.216   3.372   5.053
 2616SOL    HW1 8074   2.195   3.328   4.966
 2616SOL    HW2 8075   2.313   3.398   5.056
 2617SOL     OW 8076   2.435   2.732   4.753
 2617SOL    HW1 8077   2.479   2.821   4.744
 2617SOL    HW2 8078   2.372   2.732   4.830
 2618SOL     OW 8079   3.222   2.724   4.769
 2618SOL    HW1 8080   3.147   2.724   4.703
 2618SOL    HW2 8081   3.259   2.632   4.778
 2619SOL     OW 8082   3.071   2.387   3.999
 2619SOL    HW1 8083   3.084   2.303   4.053
 2619SOL    HW2 8084   3.042   2.461   4.059
 2620SOL     OW 8085   2.169   2.075   4.955
 2620SOL    HW1 8086   2.146   2.112   5.045
 2620SOL    HW2 8087   2.139   1.980   4.949
 2621SOL     OW 8088   1.899   3.172   5.006
 2621SOL    HW1 8089   1.952   3.123   5.074
 2621SOL    HW2 8090   1.921   3.270   5.011
 2622SOL     OW 8091   2.594   2.496   4.788
 2622SOL    HW1 8092   2.653   2.470   4.712
 2622SOL    HW2 8093   2.566   2.592   4.777
 2623SOL     OW 8094   2.169   1.925   4.342
 2623SOL    HW1 8095   2.158   2.019   4.375
 2623SOL    HW2 8096   2.164   1.862   4.419
 2624SOL     OW 8097   3.484   2.229   4.098
 2624SOL    HW1 8098   3.486   2.153   4.162
 2624SOL    HW2 8099   3.436   2.306   4.138
 2625SOL     OW 8100   2.885   2.628   4.690
 2625SOL    HW1 8101   2.900   2.649   4.786
 2625SOL    HW2 8102   2.855   2.533   4.681
 2626SOL     OW 8103   3.402   2.136   3.849
 2626SOL    HW1 8104   3.341   2.061   3.872
 2626SOL    HW2 8105   3.424   2.188   3.932
 2627SOL     OW 8106   3.165   2.700   3.766
 2627SOL    HW1 8107   3.199   2.607   3.781
 2627SOL    HW2 8108   3.183   2.727   3.671
 2628SOL     OW 8109   2.930   3.195   4.573
 2628SOL    HW1 8110   2.937   3.111   4.518
 2628SOL    HW2 8111   2.992   3.264   4.537
 2629SOL     OW 8112   2.181   2.672   4.673
 2629SOL    HW1 8113   2.274   2.708   4.678
 2629SOL    HW2 8114   2.175   2.587   4.725
 2630SOL     OW 8115   2.201   2.371   4.730
 2630SOL    HW1 8116   2.149   2.288   4.713
 2630SOL    HW2 8117   2.278   2.376   4.666
 2631SOL     OW 8118   3.022   2.069   5.201
 2631SOL    HW1 8119   3.022   2.133   5.278
 2631SOL    HW2 8120   3.050   2.117   5.118
 2632SOL     OW 8121   1.870   3.188   3.924
 2632SOL    HW1 8122   1.777   3.209   3.893
 2632SOL    HW2 8123   1.880   3.089   3.937
 2633SOL     OW 8124   1.950   3.663   4.651
 2633SOL    HW1 8125   1.908   3.577   4.624
 2633SOL    HW2 8126   2.044   3.666   4.617
 2634SOL     OW 8127   2.366   3.430   4.634
 2634SOL    HW1 8128   2.432   3.504   4.643
 2634SOL    HW2 8129   2.410   3.351   4.592
 2635SOL     OW 8130   2.864   2.658   4.962
 2635SOL    HW1 8131   2.905   2.626   5.048
 2635SOL    HW2 8132   2.768   2.631   4.959
 2636SOL     OW 8133   1.902   2.406   4.838
 2636SOL    HW1 8134   1.987   2.373   4.797
 2636SOL    HW2 8135   1.915   2.421   4.936
 2637SOL     OW 8136   2.677   2.434   4.049
 2637SOL    HW1 8137   2.684   2.345   4.003
 2637SOL    HW2 8138   2.583   2.468   4.041
 2638SOL     OW 8139   3.519   2.466   4.930
 2638SOL    HW1 8140   3.481   2.397   4.992
 2638SOL    HW2 8141   3.601   2.430   4.886
 2639SOL     OW 8142   2.533   2.326   4.993
 2639SOL    HW1 8143   2.499   2.237   4.963
 2639SOL    HW2 8144   2.559   2.380   4.913
 2640SOL     OW 8145   2.792   3.540   5.189
 2640SOL    HW1 8146   2.768   3.522   5.094
 2640SOL    HW2 8147   2.822   3.634   5.199
 2641SOL     OW 8148   2.335   2.362   3.915
 2641SOL    HW1 8149   2.396   2.442   3.919
 2641SOL    HW2 8150   2.240   2.393   3.922
 2642SOL     OW 8151   3.209   2.921   4.958
 2642SOL    HW1 8152   3.233   2.858   4.884
 2642SOL    HW2 8153   3.119   2.961   4.940
 2643SOL     OW 8154   3.164   2.717   4.033
 2643SOL    HW1 8155   3.078   2.686   4.075
 2643SOL    HW2 8156   3.160   2.703   3.934
 2644SOL     OW 8157   3.621   3.609   4.878
 2644SOL    HW1 8158   3.682   3.639   4.805
 2644SOL    HW2 8159   3.583   3.520   4.856
 2645SOL     OW 8160   3.114   3.593   4.852
 2645SOL    HW1 8161   3.198   3.598   4.798
 2645SOL    HW2 8162   3.091   3.497   4.870
 2646SOL     OW 8163   1.945   3.120   4.746
 2646SOL    HW1 8164   1.940   3.119   4.846
 2646SOL    HW2 8165   1.862   3.079   4.708
 2647SOL     OW 8166   3.588   1.997   4.247
 2647SOL    HW1 8167   3.661   1.980   4.180
 2647SOL    HW2 8168   3.557   1.910   4.285
 2648SOL     OW 8169   3.250   3.435   4.201
 2648SOL    HW1 8170   3.317   3.447   4.127
 2648SOL    HW2 8171   3.210   3.524   4.224
 2649SOL     OW 8172   3.142   2.789   4.396
 2649SOL    HW1 8173   3.202   2.708   4.398
 2649SOL    HW2 8174   3.182   2.858   4.336
 2650SOL     OW 8175   2.534   3.478   3.878
 2650SOL    HW1 8176   2.543   3.488   3.779
 2650SOL    HW2 8177   2.494   3.389   3.899
 2651SOL     OW 8178   3.512   3.582   5.118
 2651SOL    HW1 8179   3.565   3.592   5.034
 2651SOL    HW2 8180   3.485   3.672   5.152
 2652SOL     OW 8181   3.703   2.037   4.687
 2652SOL    HW1 8182   3.742   1.952   4.651
 2652SOL    HW2 8183   3.605   2.039   4.668
 2653SOL     OW 8184   2.125   2.188   4.444
 2653SOL    HW1 8185   2.046   2.239   4.410
 2653SOL    HW2 8186   2.116   2.173   4.542
 2654SOL     OW 8187   3.056   3.474   3.755
 2654SOL    HW1 8188   3.062   3.381   3.792
 2654SOL    HW2 8189   2.997   3.474   3.675
 2655SOL     OW 8190   2.684   2.864   5.096
 2655SOL    HW1 8191   2.724   2.863   5.004
 2655SOL    HW2 8192   2.694   2.956   5.136
 2656SOL     OW 8193   2.778   2.772   4.015
 2656SOL    HW1 8194   2.841   2.810   3.947
 2656SOL    HW2 8195   2.818   2.689   4.054
 2657SOL     OW 8196   3.366   3.469   3.768
 2657SOL    HW1 8197   3.274   3.506   3.775
 2657SOL    HW2 8198   3.404   3.489   3.678
 2658SOL     OW 8199   2.901   2.960   4.420
 2658SOL    HW1 8200   2.831   2.913   4.474
 2658SOL    HW2 8201   2.960   2.892   4.377
 2659SOL     OW 8202   2.876   2.098   4.695
 2659SOL    HW1 8203   2.868   2.062   4.602
 2659SOL    HW2 8204   2.874   2.022   4.760
 2660SOL     OW 8205   2.452   3.349   4.215
 2660SOL    HW1 8206   2.494   3.291   4.145
 2660SOL    HW2 8207   2.408   3.428   4.171
 2661SOL     OW 8208   3.571   2.247   5.105
 2661SOL    HW1 8209   3.644   2.316   5.109
 2661SOL    HW2 8210   3.599   2.172   5.046
 2662SOL     OW 8211   2.117   3.210   4.014
 2662SOL    HW1 8212   2.021   3.211   3.987
 2662SOL    HW2 8213   2.129   3.263   4.098
 2663SOL     OW 8214   1.937   2.207   3.757
 2663SOL    HW1 8215   1.845   2.179   3.728
 2663SOL    HW2 8216   1.968   2.284   3.701
 2664SOL     OW 8217   1.934   2.028   4.042
 2664SOL    HW1 8218   1.917   2.111   3.988
 2664SOL    HW2 8219   2.024   1.991   4.020
 2665SOL     OW 8220   3.045   3.197   3.843
 2665SOL    HW1 8221   2.946   3.186   3.845
 2665SOL    HW2 8222   3.079   3.212   3.936
 2666SOL     OW 8223   3.355   3.629   4.683
 2666SOL    HW1 8224   3.388   3.693   4.614
 2666SOL    HW2 8225   3.421   3.623   4.758
 2667SOL     OW 8226   3.312   3.082   5.357
 2667SOL    HW1 8227   3.303   3.072   5.456
 2667SOL    HW2 8228   3.408   3.075   5.331
 2668SOL     OW 8229   3.536   2.745   4.978
 2668SOL    HW1 8230   3.509   2.656   4.941
 2668SOL    HW2 8231   3.537   2.813   4.905
 2669SOL     OW 8232   3.087   2.187   4.173
 2669SOL    HW1 8233   3.152   2.113   4.162
 2669SOL    HW2 8234   3.107   2.237   4.257
 2670SOL     OW 8235   2.456   2.607   4.376
 2670SOL    HW1 8236   2.506   2.692   4.357
 2670SOL    HW2 8237   2.368   2.609   4.328
 2671SOL     OW 8238   3.592   2.796   5.241
 2671SOL    HW1 8239   3.630   2.887   5.256
 2671SOL    HW2 8240   3.584   2.779   5.142
 2672SOL     OW 8241   2.721   3.236   3.740
 2672SOL    HW1 8242   2.675   3.251   3.828
 2672SOL    HW2 8243   2.765   3.321   3.710
 2673SOL     OW 8244   2.523   3.652   4.677
 2673SOL    HW1 8245   2.477   3.740   4.664
 2673SOL    HW2 8246   2.622   3.664   4.670
 2674SOL     OW 8247   2.721   2.818   4.585
 2674SOL    HW1 8248   2.775   2.749   4.633
 2674SOL    HW2 8249   2.689   2.887   4.651
 2675SOL     OW 8250   2.945   2.846   3.811
 2675SOL    HW1 8251   2.922   2.899   3.729
 2675SOL    HW2 8252   3.026   2.790   3.792
 2676SOL     OW 8253   3.723   3.431   4.575
 2676SOL    HW1 8254   3.652   3.419   4.505
 2676SOL    HW2 8255   3.724   3.352   4.635
 2677SOL     OW 8256   1.941   3.102   4.377
 2677SOL    HW1 8257   1.940   3.055   4.465
 2677SOL    HW2 8258   2.023   3.074   4.326
 2678SOL     OW 8259   3.686   2.054   4.951
 2678SOL    HW1 8260   3.682   1.964   4.995
 2678SOL    HW2 8261   3.689   2.043   4.852
 2679SOL     OW 8262   2.290   2.286   4.244
 2679SOL    HW1 8263   2.320   2.214   4.182
 2679SOL    HW2 8264   2.251   2.246   4.327
 2680SOL     OW 8265   3.567   3.349   4.828
 2680SOL    HW1 8266   3.474   3.324   4.801
 2680SOL    HW2 8267   3.593   3.299   4.910
 2681SOL     OW 8268   2.674   3.448   4.411
 2681SOL    HW1 8269   2.706   3.458   4.317
 2681SOL    HW2 8270   2.595   3.386   4.413
 2682SOL     OW 8271   3.286   2.076   4.836
 2682SOL    HW1 8272   3.338   2.011   4.891
 2682SOL    HW2 8273   3.237   2.139   4.897
 2683SOL     OW 8274   2.863   1.896   4.878
 2683SOL    HW1 8275   2.800   1.824   4.847
 2683SOL    HW2 8276   2.956   1.860   4.878
 2684SOL     OW 8277   2.632   3.192   4.025
 2684SOL    HW1 8278   2.586   3.105   4.042
 2684SOL    HW2 8279   2.723   3.189   4.066
 2685SOL     OW 8280   3.214   1.914   3.892
 2685SOL    HW1 8281   3.249   1.873   3.808
 2685SOL    HW2 8282   3.124   1.876   3.912
 2686SOL     OW 8283   3.162   2.315   4.415
 2686SOL    HW1 8284   3.103   2.395   4.419
 2686SOL    HW2 8285   3.177   2.280   4.508
 2687SOL     OW 8286   3.455   2.083   4.606
 2687SOL    HW1 8287   3.371   2.082   4.660
 2687SOL    HW2 8288   3.457   2.166   4.550
 2688SOL     OW 8289   1.901   2.939   4.024
 2688SOL    HW1 8290   2.000   2.928   4.015
 2688SOL    HW2 8291   1.861   2.853   4.056
 2689SOL     OW 8292   2.737   3.508   4.061
 2689SOL    HW1 8293   2.660   3.473   4.007
 2689SOL    HW2 8294   2.705   3.579   4.123
 2690SOL     OW 8295   2.092   4.352   0.113
 2690SOL    HW1 8296   1.999   4.350   0.150
 2690SOL    HW2 8297   2.093   4.313   0.021
 2691SOL     OW 8298   1.881   4.092   0.647
 2691SOL    HW1 8299   1.799   4.135   0.686
 2691SOL    HW2 8300   1.853   4.019   0.584
 2692SOL     OW 8301   2.431   4.999   1.165
 2692SOL    HW1 8302   2.338   4.992   1.128
 2692SOL    HW2 8303   2.442   5.088   1.209
 2693SOL     OW 8304   3.417   5.235   0.703
 2693SOL    HW1 8305   3.360   5.219   0.784
 2693SOL    HW2 8306   3.358   5.245   0.623
 2694SOL     OW 8307   2.997   4.427   0.717
 2694SOL    HW1 8308   3.054   4.505   0.692
 2694SOL    HW2 8309   2.937   4.453   0.793
 2695SOL     OW 8310   3.617   4.331   0.231
 2695SOL    HW1 8311   3.605   4.318   0.132
 2695SOL    HW2 8312   3.587   4.250   0.280
 2696SOL     OW 8313   2.630   4.868   1.023
 2696SOL    HW1 8314   2.552   4.885   1.083
 2696SOL    HW2 8315   2.664   4.955   0.987
 2697SOL     OW 8316   2.547   4.736   0.665
 2697SOL    HW1 8317   2.616   4.720   0.735
 2697SOL    HW2 8318   2.474   4.793   0.703
 2698SOL     OW 8319   2.548   4.885   1.803
 2698SOL    HW1 8320   2.608   4.964   1.817
 2698SOL    HW2 8321   2.462   4.916   1.762
 2699SOL     OW 8322   2.197   5.159   1.061
 2699SOL    HW1 8323   2.119   5.128   1.008
 2699SOL    HW2 8324   2.255   5.217   1.004
 2700SOL     OW 8325   2.300   4.116   1.499
 2700SOL    HW1 8326   2.382   4.060   1.508
 2700SOL    HW2 8327   2.219   4.058   1.503
 2701SOL     OW 8328   3.465   4.171   0.737
 2701SOL    HW1 8329   3.391   4.217   0.687
 2701SOL    HW2 8330   3.516   4.239   0.790
 2702SOL     OW 8331   2.102   4.815   0.886
 2702SOL    HW1 8332   2.116   4.731   0.938
 2702SOL    HW2 8333   2.047   4.879   0.941
 2703SOL     OW 8334   2.468   4.688   0.123
 2703SOL    HW1 8335   2.475   4.772   0.069
 2703SOL    HW2 8336   2.514   4.701   0.211
 2704SOL     OW 8337   3.456   3.838   1.480
 2704SOL    HW1 8338   3.438   3.905   1.408
 2704SOL    HW2 8339   3.453   3.884   1.569
 2705SOL     OW 8340   1.984   4.367   0.563
 2705SOL    HW1 8341   1.939   4.279   0.580
 2705SOL    HW2 8342   1.983   4.421   0.647
 2706SOL     OW 8343   3.551   4.646   0.612
 2706SOL    HW1 8344   3.646   4.617   0.620
 2706SOL    HW2 8345   3.543   4.711   0.537
 2707SOL     OW 8346   3.503   4.832   0.432
 2707SOL    HW1 8347   3.589   4.834   0.380
 2707SOL    HW2 8348   3.517   4.879   0.520
 2708SOL     OW 8349   1.975   4.461   1.597
 2708SOL    HW1 8350   2.063   4.448   1.642
 2708SOL    HW2 8351   1.962   4.558   1.575
 2709SOL     OW 8352   3.155   4.952   1.423
 2709SOL    HW1 8353   3.192   4.879   1.365
 2709SOL    HW2 8354   3.207   4.957   1.508
 2710SOL     OW 8355   2.671   3.728   0.502
 2710SOL    HW1 8356   2.711   3.819   0.493
 2710SOL    HW2 8357   2.571   3.736   0.508
 2711SOL     OW 8358   2.059   4.700   1.264
 2711SOL    HW1 8359   2.148   4.655   1.250
 2711SOL    HW2 8360   1.986   4.635   1.245
 2712SOL     OW 8361   3.387   4.723   0.190
 2712SOL    HW1 8362   3.324   4.647   0.203
 2712SOL    HW2 8363   3.435   4.741   0.276
 2713SOL     OW 8364   2.179   3.975   1.801
 2713SOL    HW1 8365   2.250   4.046   1.807
 2713SOL    HW2 8366   2.091   4.014   1.829
 2714SOL     OW 8367   3.328   5.141   0.953
 2714SOL    HW1 8368   3.269   5.147   1.033
 2714SOL    HW2 8369   3.313   5.053   0.907
 2715SOL     OW 8370   2.460   4.453   0.270
 2715SOL    HW1 8371   2.484   4.522   0.202
 2715SOL    HW2 8372   2.382   4.486   0.324
 2716SOL     OW 8373   3.143   4.069   0.944
 2716SOL    HW1 8374   3.057   4.019   0.931
 2716SOL    HW2 8375   3.205   4.015   1.000
 2717SOL     OW 8376   2.669   4.329   1.465
 2717SOL    HW1 8377   2.622   4.326   1.554
 2717SOL    HW2 8378   2.618   4.274   1.399
 2718SOL     OW 8379   3.256   4.193   1.674
 2718SOL    HW1 8380   3.236   4.236   1.762
 2718SOL    HW2 8381   3.334   4.131   1.683
 2719SOL     OW 8382   2.835   4.614   1.572
 2719SOL    HW1 8383   2.881   4.530   1.543
 2719SOL    HW2 8384   2.779   4.648   1.497
 2720SOL     OW 8385   2.853   4.134   1.242
 2720SOL    HW1 8386   2.776   4.168   1.296
 2720SOL    HW2 8387   2.819   4.083   1.163
 2721SOL     OW 8388   2.903   4.425   0.429
 2721SOL    HW1 8389   2.929   4.421   0.525
 2721SOL    HW2 8390   2.818   4.374   0.415
 2722SOL     OW 8391   1.938   4.535   0.789
 2722SOL    HW1 8392   2.037   4.523   0.798
 2722SOL    HW2 8393   1.914   4.630   0.810
 2723SOL     OW 8394   2.727   4.072   0.195
 2723SOL    HW1 8395   2.786   4.135   0.146
 2723SOL    HW2 8396   2.746   3.978   0.166
 2724SOL     OW 8397   3.581   4.309   1.831
 2724SOL    HW1 8398   3.555   4.398   1.795
 2724SOL    HW2 8399   3.579   4.241   1.758
 2725SOL     OW 8400   3.224   4.868   0.545
 2725SOL    HW1 8401   3.307   4.839   0.497
 2725SOL    HW2 8402   3.175   4.935   0.489
 2726SOL     OW 8403   3.657   4.790   0.873
 2726SOL    HW1 8404   3.595   4.775   0.797
 2726SOL    HW2 8405   3.605   4.801   0.958
 2727SOL     OW 8406   2.183   4.667   0.242
 2727SOL    HW1 8407   2.265   4.706   0.200
 2727SOL    HW2 8408   2.156   4.585   0.193
 2728SOL     OW 8409   3.320   4.459   0.728
 2728SOL    HW1 8410   3.315   4.394   0.803
 2728SOL    HW2 8411   3.400   4.518   0.741
 2729SOL     OW 8412   2.064   4.009   1.498
 2729SOL    HW1 8413   1.984   4.069   1.485
 2729SOL    HW2 8414   2.054   3.960   1.584
 2730SOL     OW 8415   3.494   5.101   0.081
 2730SOL    HW1 8416   3.462   5.195   0.071
 2730SOL    HW2 8417   3.418   5.038   0.069
 2731SOL     OW 8418   3.262   3.831   0.426
 2731SOL    HW1 8419   3.238   3.794   0.336
 2731SOL    HW2 8420   3.361   3.847   0.430
 2732SOL     OW 8421   2.244   4.424   0.480
 2732SOL    HW1 8422   2.289   4.334   0.477
 2732SOL    HW2 8423   2.150   4.413   0.513
 2733SOL     OW 8424   3.409   3.946   1.729
 2733SOL    HW1 8425   3.404   3.983   1.821
 2733SOL    HW2 8426   3.337   3.877   1.717
 2734SOL     OW 8427   2.643   3.988   1.749
 2734SOL    HW1 8428   2.710   3.927   1.792
 2734SOL    HW2 8429   2.570   4.007   1.814
 2735SOL     OW 8430   3.213   4.314   1.433
 2735SOL    HW1 8431   3.241   4.271   1.518
 2735SOL    HW2 8432   3.238   4.410   1.434
 2736SOL     OW 8433   2.665   5.126   0.924
 2736SOL    HW1 8434   2.755   5.140   0.882
 2736SOL    HW2 8435   2.594   5.128   0.853
 2737SOL     OW 8436   2.784   4.227   0.899
 2737SOL    HW1 8437   2.759   4.218   0.803
 2737SOL    HW2 8438   2.832   4.145   0.930
 2738SOL     OW 8439   2.401   3.788   0.512
 2738SOL    HW1 8440   2.320   3.789   0.570
 2738SOL    HW2 8441   2.404   3.871   0.457
 2739SOL     OW 8442   3.296   4.912   0.041
 2739SOL    HW1 8443   3.328   4.836   0.098
 2739SOL    HW2 8444   3.204   4.939   0.071
 2740SOL     OW 8445   2.159   3.759   0.171
 2740SOL    HW1 8446   2.208   3.843   0.150
 2740SOL    HW2 8447   2.221   3.694   0.216
 2741SOL     OW 8448   2.797   3.960   0.480
 2741SOL    HW1 8449   2.749   4.001   0.402
 2741SOL    HW2 8450   2.896   3.958   0.461
 2742SOL     OW 8451   2.938   4.407   1.464
 2742SOL    HW1 8452   2.858   4.346   1.467
 2742SOL    HW2 8453   3.019   4.354   1.440
 2743SOL     OW 8454   3.089   5.294   0.793
 2743SOL    HW1 8455   3.110   5.368   0.728
 2743SOL    HW2 8456   3.157   5.294   0.866
 2744SOL     OW 8457   2.321   4.876   0.741
 2744SOL    HW1 8458   2.250   4.849   0.806
 2744SOL    HW2 8459   2.295   4.848   0.648
 2745SOL     OW 8460   2.894   4.273   0.016
 2745SOL    HW1 8461   2.853   4.355  -0.023
 2745SOL    HW2 8462   2.958   4.299   0.089
 2746SOL     OW 8463   1.940   4.280   1.386
 2746SOL    HW1 8464   2.032   4.279   1.345
 2746SOL    HW2 8465   1.934   4.354   1.453
 2747SOL     OW 8466   2.879   3.763   0.753
 2747SOL    HW1 8467   2.807   3.768   0.684
 2747SOL    HW2 8468   2.855   3.694   0.822
 2748SOL     OW 8469   3.291   4.897   0.867
 2748SOL    HW1 8470   3.236   4.813   0.860
 2748SOL    HW2 8471   3.317   4.926   0.775
 2749SOL     OW 8472   3.328   4.314   0.992
 2749SOL    HW1 8473   3.298   4.219   0.999
 2749SOL    HW2 8474   3.401   4.330   1.058
 2750SOL     OW 8475   3.719   4.557   0.377
 2750SOL    HW1 8476   3.761   4.493   0.441
 2750SOL    HW2 8477   3.681   4.506   0.299
 2751SOL     OW 8478   3.526   5.004   0.657
 2751SOL    HW1 8479   3.625   5.012   0.671
 2751SOL    HW2 8480   3.481   5.088   0.688
 2752SOL     OW 8481   3.252   4.299   0.078
 2752SOL    HW1 8482   3.198   4.278   0.159
 2752SOL    HW2 8483   3.343   4.258   0.087
 2753SOL     OW 8484   2.389   3.980   0.328
 2753SOL    HW1 8485   2.416   3.921   0.253
 2753SOL    HW2 8486   2.389   4.075   0.297
 2754SOL     OW 8487   3.616   4.947   1.588
 2754SOL    HW1 8488   3.707   4.908   1.575
 2754SOL    HW2 8489   3.624   5.043   1.612
 2755SOL     OW 8490   3.500   4.823   1.079
 2755SOL    HW1 8491   3.505   4.904   1.138
 2755SOL    HW2 8492   3.414   4.825   1.028
 2756SOL     OW 8493   2.777   3.813   1.402
 2756SOL    HW1 8494   2.802   3.793   1.307
 2756SOL    HW2 8495   2.849   3.869   1.444
 2757SOL     OW 8496   2.842   4.840   1.719
 2757SOL    HW1 8497   2.743   4.846   1.729
 2757SOL    HW2 8498   2.865   4.760   1.663
 2758SOL     OW 8499   2.567   4.774   0.368
 2758SOL    HW1 8500   2.553   4.781   0.467
 2758SOL    HW2 8501   2.651   4.723   0.350
 2759SOL     OW 8502   2.272   4.537   1.251
 2759SOL    HW1 8503   2.358   4.549   1.301
 2759SOL    HW2 8504   2.230   4.450   1.278
 2760SOL     OW 8505   3.136   4.110   1.262
 2760SOL    HW1 8506   3.157   4.184   1.326
 2760SOL    HW2 8507   3.047   4.127   1.219
 2761SOL     OW 8508   2.229   4.824   0.501
 2761SOL    HW1 8509   2.222   4.907   0.445
 2761SOL    HW2 8510   2.233   4.744   0.441
 2762SOL     OW 8511   3.444   4.363   0.472
 2762SOL    HW1 8512   3.413   4.424   0.545
 2762SOL    HW2 8513   3.494   4.415   0.403
 2763SOL     OW 8514   2.264   4.475   1.598
 2763SOL    HW1 8515   2.332   4.530   1.551
 2763SOL    HW2 8516   2.304   4.387   1.625
 2764SOL     OW 8517   3.449   4.503   1.670
 2764SOL    HW1 8518   3.357   4.541   1.665
 2764SOL    HW2 8519   3.509   4.550   1.605
 2765SOL     OW 8520   2.875   3.829   1.770
 2765SOL    HW1 8521   2.881   3.914   1.718
 2765SOL    HW2 8522   2.907   3.753   1.713
 2766SOL     OW 8523   2.366   3.774   1.740
 2766SOL    HW1 8524   2.324   3.717   1.670
 2766SOL    HW2 8525   2.300   3.843   1.772
 2767SOL     OW 8526   3.222   4.586   1.045
 2767SOL    HW1 8527   3.147   4.586   0.979
 2767SOL    HW2 8528   3.259   4.494   1.054
 2768SOL     OW 8529   3.071   4.249   0.275
 2768SOL    HW1 8530   3.084   4.165   0.329
 2768SOL    HW2 8531   3.042   4.323   0.335
 2769SOL     OW 8532   3.590   4.659   1.854
 2769SOL    HW1 8533   3.544   4.652   1.765
 2769SOL    HW2 8534   3.528   4.703   1.920
 2770SOL     OW 8535   2.169   3.787   0.618
 2770SOL    HW1 8536   2.158   3.881   0.651
 2770SOL    HW2 8537   2.164   3.724   0.695
 2771SOL     OW 8538   3.484   4.091   0.374
 2771SOL    HW1 8539   3.486   4.015   0.438
 2771SOL    HW2 8540   3.436   4.168   0.414
 2772SOL     OW 8541   2.885   4.490   0.966
 2772SOL    HW1 8542   2.900   4.511   1.062
 2772SOL    HW2 8543   2.855   4.395   0.957
 2773SOL     OW 8544   3.721   5.242   1.605
 2773SOL    HW1 8545   3.735   5.269   1.510
 2773SOL    HW2 8546   3.804   5.264   1.658
 2774SOL     OW 8547   2.212   4.622   1.804
 2774SOL    HW1 8548   2.288   4.666   1.852
 2774SOL    HW2 8549   2.247   4.575   1.722
 2775SOL     OW 8550   3.402   3.998   0.125
 2775SOL    HW1 8551   3.341   3.923   0.148
 2775SOL    HW2 8552   3.424   4.050   0.208
 2776SOL     OW 8553   3.165   4.562   0.042
 2776SOL    HW1 8554   3.199   4.469   0.057
 2776SOL    HW2 8555   3.183   4.589  -0.053
 2777SOL     OW 8556   3.000   4.104   1.678
 2777SOL    HW1 8557   2.955   4.167   1.742
 2777SOL    HW2 8558   3.093   4.135   1.661
 2778SOL     OW 8559   3.022   3.931   1.477
 2778SOL    HW1 8560   3.022   3.995   1.554
 2778SOL    HW2 8561   3.050   3.979   1.394
 2779SOL     OW 8562   2.864   4.520   1.238
 2779SOL    HW1 8563   2.905   4.488   1.324
 2779SOL    HW2 8564   2.768   4.493   1.235
 2780SOL     OW 8565   1.902   4.268   1.114
 2780SOL    HW1 8566   1.987   4.235   1.073
 2780SOL    HW2 8567   1.915   4.283   1.212
 2781SOL     OW 8568   2.051   4.244   1.722
 2781SOL    HW1 8569   2.110   4.204   1.652
 2781SOL    HW2 8570   1.993   4.315   1.681
 2782SOL     OW 8571   3.231   4.674   1.660
 2782SOL    HW1 8572   3.270   4.763   1.680
 2782SOL    HW2 8573   3.241   4.654   1.563
 2783SOL     OW 8574   2.677   4.296   0.325
 2783SOL    HW1 8575   2.684   4.207   0.279
 2783SOL    HW2 8576   2.583   4.330   0.317
 2784SOL     OW 8577   3.519   4.328   1.206
 2784SOL    HW1 8578   3.481   4.259   1.268
 2784SOL    HW2 8579   3.601   4.292   1.162
 2785SOL     OW 8580   2.533   4.188   1.269
 2785SOL    HW1 8581   2.499   4.099   1.239
 2785SOL    HW2 8582   2.559   4.242   1.189
 2786SOL     OW 8583   2.335   4.224   0.191
 2786SOL    HW1 8584   2.396   4.304   0.195
 2786SOL    HW2 8585   2.240   4.255   0.198
 2787SOL     OW 8586   2.021   4.861   1.466
 2787SOL    HW1 8587   2.043   4.800   1.542
 2787SOL    HW2 8588   2.031   4.812   1.380
 2788SOL     OW 8589   3.209   4.783   1.234
 2788SOL    HW1 8590   3.233   4.720   1.160
 2788SOL    HW2 8591   3.119   4.823   1.216
 2789SOL     OW 8592   3.164   4.579   0.309
 2789SOL    HW1 8593   3.078   4.548   0.351
 2789SOL    HW2 8594   3.160   4.565   0.210
 2790SOL     OW 8595   1.945   4.982   1.022
 2790SOL    HW1 8596   1.940   4.981   1.122
 2790SOL    HW2 8597   1.862   4.941   0.984
 2791SOL     OW 8598   2.765   3.810   0.133
 2791SOL    HW1 8599   2.816   3.811   0.047
 2791SOL    HW2 8600   2.821   3.768   0.204
 2792SOL     OW 8601   3.588   3.859   0.523
 2792SOL    HW1 8602   3.661   3.842   0.456
 2792SOL    HW2 8603   3.557   3.772   0.561
 2793SOL     OW 8604   3.142   4.651   0.672
 2793SOL    HW1 8605   3.202   4.570   0.674
 2793SOL    HW2 8606   3.182   4.720   0.612
 2794SOL     OW 8607   2.692   4.997   1.422
 2794SOL    HW1 8608   2.687   5.030   1.517
 2794SOL    HW2 8609   2.606   5.016   1.376
 2795SOL     OW 8610   3.703   3.899   0.963
 2795SOL    HW1 8611   3.742   3.814   0.927
 2795SOL    HW2 8612   3.605   3.901   0.944
 2796SOL     OW 8613   2.125   4.050   0.720
 2796SOL    HW1 8614   2.046   4.101   0.686
 2796SOL    HW2 8615   2.116   4.035   0.818
 2797SOL     OW 8616   2.684   4.726   1.372
 2797SOL    HW1 8617   2.724   4.725   1.280
 2797SOL    HW2 8618   2.694   4.818   1.412
 2798SOL     OW 8619   2.778   4.634   0.291
 2798SOL    HW1 8620   2.841   4.672   0.223
 2798SOL    HW2 8621   2.818   4.551   0.330
 2799SOL     OW 8622   2.234   5.012   1.490
 2799SOL    HW1 8623   2.221   5.105   1.456
 2799SOL    HW2 8624   2.150   4.960   1.477
 2800SOL     OW 8625   3.476   5.016   1.289
 2800SOL    HW1 8626   3.536   5.019   1.369
 2800SOL    HW2 8627   3.401   5.080   1.302
 2801SOL     OW 8628   2.901   4.822   0.696
 2801SOL    HW1 8629   2.831   4.775   0.750
 2801SOL    HW2 8630   2.960   4.754   0.653
 2802SOL     OW 8631   2.876   3.960   0.971
 2802SOL    HW1 8632   2.868   3.924   0.878
 2802SOL    HW2 8633   2.874   3.884   1.036
 2803SOL     OW 8634   3.571   4.109   1.381
 2803SOL    HW1 8635   3.644   4.178   1.385
 2803SOL    HW2 8636   3.599   4.034   1.322
 2804SOL     OW 8637   1.967   4.737   1.726
 2804SOL    HW1 8638   1.890   4.704   1.780
 2804SOL    HW2 8639   2.052   4.707   1.768
 2805SOL     OW 8640   2.534   3.927   1.489
 2805SOL    HW1 8641   2.624   3.911   1.449
 2805SOL    HW2 8642   2.542   3.932   1.588
 2806SOL     OW 8643   3.302   4.580   1.398
 2806SOL    HW1 8644   3.245   4.632   1.335
 2806SOL    HW2 8645   3.398   4.592   1.374
 2807SOL     OW 8646   1.934   3.890   0.318
 2807SOL    HW1 8647   1.917   3.973   0.264
 2807SOL    HW2 8648   2.024   3.853   0.296
 2808SOL     OW 8649   2.475   4.566   1.431
 2808SOL    HW1 8650   2.531   4.647   1.414
 2808SOL    HW2 8651   2.534   4.486   1.434
 2809SOL     OW 8652   2.578   4.289   1.708
 2809SOL    HW1 8653   2.597   4.354   1.782
 2809SOL    HW2 8654   2.638   4.209   1.717
 2810SOL     OW 8655   3.312   4.944   1.633
 2810SOL    HW1 8656   3.303   4.934   1.732
 2810SOL    HW2 8657   3.408   4.937   1.607
 2811SOL     OW 8658   3.536   4.607   1.254
 2811SOL    HW1 8659   3.509   4.518   1.217
 2811SOL    HW2 8660   3.537   4.675   1.181
 2812SOL     OW 8661   3.087   4.049   0.449
 2812SOL    HW1 8662   3.152   3.975   0.438
 2812SOL    HW2 8663   3.107   4.099   0.533
 2813SOL     OW 8664   2.456   4.469   0.652
 2813SOL    HW1 8665   2.506   4.554   0.633
 2813SOL    HW2 8666   2.368   4.471   0.604
 2814SOL     OW 8667   3.639   4.066   1.642
 2814SOL    HW1 8668   3.622   4.097   1.548
 2814SOL    HW2 8669   3.555   4.029   1.680
 2815SOL     OW 8670   3.592   4.658   1.517
 2815SOL    HW1 8671   3.630   4.749   1.532
 2815SOL    HW2 8672   3.584   4.641   1.418
 2816SOL     OW 8673   2.721   4.680   0.861
 2816SOL    HW1 8674   2.775   4.611   0.909
 2816SOL    HW2 8675   2.689   4.749   0.927
 2817SOL     OW 8676   2.945   4.708   0.087
 2817SOL    HW1 8677   2.922   4.761   0.005
 2817SOL    HW2 8678   3.026   4.652   0.068
 2818SOL     OW 8679   1.941   4.964   0.653
 2818SOL    HW1 8680   1.940   4.917   0.741
 2818SOL    HW2 8681   2.023   4.936   0.602
 2819SOL     OW 8682   3.686   3.916   1.227
 2819SOL    HW1 8683   3.682   3.826   1.271
 2819SOL    HW2 8684   3.689   3.905   1.128
 2820SOL     OW 8685   2.290   4.148   0.520
 2820SOL    HW1 8686   2.320   4.076   0.458
 2820SOL    HW2 8687   2.251   4.108   0.603
 2821SOL     OW 8688   3.286   3.938   1.112
 2821SOL    HW1 8689   3.338   3.873   1.167
 2821SOL    HW2 8690   3.237   4.001   1.173
 2822SOL     OW 8691   2.863   3.758   1.154
 2822SOL    HW1 8692   2.800   3.686   1.123
 2822SOL    HW2 8693   2.956   3.722   1.154
 2823SOL     OW 8694   2.632   5.054   0.301
 2823SOL    HW1 8695   2.586   4.967   0.318
 2823SOL    HW2 8696   2.723   5.051   0.342
 2824SOL     OW 8697   3.214   3.776   0.168
 2824SOL    HW1 8698   3.249   3.735   0.084
 2824SOL    HW2 8699   3.124   3.738   0.188
 2825SOL     OW 8700   3.162   4.177   0.691
 2825SOL    HW1 8701   3.103   4.257   0.695
 2825SOL    HW2 8702   3.177   4.142   0.784
 2826SOL     OW 8703   3.455   3.945   0.882
 2826SOL    HW1 8704   3.371   3.944   0.936
 2826SOL    HW2 8705   3.457   4.028   0.826
 2827SOL     OW 8706   1.901   4.801   0.300
 2827SOL    HW1 8707   2.000   4.790   0.291
 2827SOL    HW2 8708   1.861   4.715   0.332
 2828SOL     OW 8709   2.092   4.352   1.975
 2828SOL    HW1 8710   1.999   4.350   2.012
 2828SOL    HW2 8711   2.093   4.313   1.883
 2829SOL     OW 8712   2.087   3.999   2.858
 2829SOL    HW1 8713   2.122   3.982   2.950
 2829SOL    HW2 8714   1.999   3.954   2.846
 2830SOL     OW 8715   1.881   4.092   2.509
 2830SOL    HW1 8716   1.799   4.135   2.548
 2830SOL    HW2 8717   1.853   4.019   2.446
 2831SOL     OW 8718   2.431   4.999   3.027
 2831SOL    HW1 8719   2.338   4.992   2.990
 2831SOL    HW2 8720   2.442   5.088   3.071
 2832SOL     OW 8721   3.417   5.235   2.565
 2832SOL    HW1 8722   3.360   5.219   2.646
 2832SOL    HW2 8723   3.358   5.245   2.485
 2833SOL     OW 8724   2.997   4.427   2.579
 2833SOL    HW1 8725   3.054   4.505   2.554
 2833SOL    HW2 8726   2.937   4.453   2.655
 2834SOL     OW 8727   3.617   4.331   2.093
 2834SOL    HW1 8728   3.605   4.318   1.994
 2834SOL    HW2 8729   3.587   4.250   2.142
 2835SOL     OW 8730   2.630   4.868   2.885
 2835SOL    HW1 8731   2.552   4.885   2.945
 2835SOL    HW2 8732   2.664   4.955   2.849
 2836SOL     OW 8733   2.712   4.522   3.685
 2836SOL    HW1 8734   2.708   4.598   3.750
 2836SOL    HW2 8735   2.734   4.558   3.594
 2837SOL     OW 8736   2.548   4.885   3.665
 2837SOL    HW1 8737   2.608   4.964   3.679
 2837SOL    HW2 8738   2.462   4.916   3.624
 2838SOL     OW 8739   2.197   5.159   2.923
 2838SOL    HW1 8740   2.119   5.128   2.870
 2838SOL    HW2 8741   2.255   5.217   2.866
 2839SOL     OW 8742   2.300   4.116   3.361
 2839SOL    HW1 8743   2.382   4.060   3.370
 2839SOL    HW2 8744   2.219   4.058   3.365
 2840SOL     OW 8745   3.465   4.171   2.599
 2840SOL    HW1 8746   3.391   4.217   2.549
 2840SOL    HW2 8747   3.516   4.239   2.652
 2841SOL     OW 8748   2.102   4.815   2.748
 2841SOL    HW1 8749   2.116   4.731   2.800
 2841SOL    HW2 8750   2.047   4.879   2.803
 2842SOL     OW 8751   3.456   3.838   3.342
 2842SOL    HW1 8752   3.438   3.905   3.270
 2842SOL    HW2 8753   3.453   3.884   3.431
 2843SOL     OW 8754   1.984   4.367   2.425
 2843SOL    HW1 8755   1.939   4.279   2.442
 2843SOL    HW2 8756   1.983   4.421   2.509
 2844SOL     OW 8757   3.551   4.646   2.474
 2844SOL    HW1 8758   3.646   4.617   2.482
 2844SOL    HW2 8759   3.543   4.711   2.399
 2845SOL     OW 8760   3.503   4.832   2.294
 2845SOL    HW1 8761   3.589   4.834   2.242
 2845SOL    HW2 8762   3.517   4.879   2.382
 2846SOL     OW 8763   1.975   4.461   3.459
 2846SOL    HW1 8764   2.063   4.448   3.504
 2846SOL    HW2 8765   1.962   4.558   3.437
 2847SOL     OW 8766   3.155   4.952   3.285
 2847SOL    HW1 8767   3.192   4.879   3.227
 2847SOL    HW2 8768   3.207   4.957   3.370
 2848SOL     OW 8769   2.671   3.728   2.364
 2848SOL    HW1 8770   2.711   3.819   2.355
 2848SOL    HW2 8771   2.571   3.736   2.370
 2849SOL     OW 8772   2.059   4.700   3.126
 2849SOL    HW1 8773   2.148   4.655   3.112
 2849SOL    HW2 8774   1.986   4.635   3.107
 2850SOL     OW 8775   3.387   4.723   2.052
 2850SOL    HW1 8776   3.324   4.647   2.065
 2850SOL    HW2 8777   3.435   4.741   2.138
 2851SOL     OW 8778   2.179   3.975   3.663
 2851SOL    HW1 8779   2.250   4.046   3.669
 2851SOL    HW2 8780   2.091   4.014   3.691
 2852SOL     OW 8781   3.328   5.141   2.815
 2852SOL    HW1 8782   3.269   5.147   2.895
 2852SOL    HW2 8783   3.313   5.053   2.769
 2853SOL     OW 8784   3.143   4.069   2.806
 2853SOL    HW1 8785   3.057   4.019   2.793
 2853SOL    HW2 8786   3.205   4.015   2.862
 2854SOL     OW 8787   2.669   4.329   3.327
 2854SOL    HW1 8788   2.622   4.326   3.416
 2854SOL    HW2 8789   2.618   4.274   3.261
 2855SOL     OW 8790   3.256   4.193   3.536
 2855SOL    HW1 8791   3.236   4.236   3.624
 2855SOL    HW2 8792   3.334   4.131   3.545
 2856SOL     OW 8793   2.835   4.614   3.434
 2856SOL    HW1 8794   2.881   4.530   3.405
 2856SOL    HW2 8795   2.779   4.648   3.359
 2857SOL     OW 8796   2.853   4.134   3.104
 2857SOL    HW1 8797   2.776   4.168   3.158
 2857SOL    HW2 8798   2.819   4.083   3.025
 2858SOL     OW 8799   1.938   4.535   2.651
 2858SOL    HW1 8800   2.037   4.523   2.660
 2858SOL    HW2 8801   1.914   4.630   2.672
 2859SOL     OW 8802   2.727   4.072   2.057
 2859SOL    HW1 8803   2.786   4.135   2.008
 2859SOL    HW2 8804   2.746   3.978   2.028
 2860SOL     OW 8805   3.581   4.309   3.693
 2860SOL    HW1 8806   3.555   4.398   3.657
 2860SOL    HW2 8807   3.579   4.241   3.620
 2861SOL     OW 8808   3.224   4.868   2.407
 2861SOL    HW1 8809   3.307   4.839   2.359
 2861SOL    HW2 8810   3.175   4.935   2.351
 2862SOL     OW 8811   2.412   3.920   2.747
 2862SOL    HW1 8812   2.407   3.915   2.847
 2862SOL    HW2 8813   2.414   4.016   2.718
 2863SOL     OW 8814   3.657   4.790   2.735
 2863SOL    HW1 8815   3.595   4.775   2.659
 2863SOL    HW2 8816   3.605   4.801   2.820
 2864SOL     OW 8817   3.320   4.459   2.590
 2864SOL    HW1 8818   3.315   4.394   2.665
 2864SOL    HW2 8819   3.400   4.518   2.603
 2865SOL     OW 8820   2.064   4.009   3.360
 2865SOL    HW1 8821   1.984   4.069   3.347
 2865SOL    HW2 8822   2.054   3.960   3.446
 2866SOL     OW 8823   3.494   5.101   1.943
 2866SOL    HW1 8824   3.462   5.195   1.933
 2866SOL    HW2 8825   3.418   5.038   1.931
 2867SOL     OW 8826   3.262   3.831   2.288
 2867SOL    HW1 8827   3.238   3.794   2.198
 2867SOL    HW2 8828   3.361   3.847   2.292
 2868SOL     OW 8829   2.244   4.424   2.342
 2868SOL    HW1 8830   2.289   4.334   2.339
 2868SOL    HW2 8831   2.150   4.413   2.375
 2869SOL     OW 8832   3.409   3.946   3.591
 2869SOL    HW1 8833   3.404   3.983   3.683
 2869SOL    HW2 8834   3.337   3.877   3.579
 2870SOL     OW 8835   2.476   3.846   1.979
 2870SOL    HW1 8836   2.574   3.824   1.986
 2870SOL    HW2 8837   2.445   3.829   1.886
 2871SOL     OW 8838   2.643   3.988   3.611
 2871SOL    HW1 8839   2.710   3.927   3.654
 2871SOL    HW2 8840   2.570   4.007   3.676
 2872SOL     OW 8841   3.213   4.314   3.295
 2872SOL    HW1 8842   3.241   4.271   3.380
 2872SOL    HW2 8843   3.238   4.410   3.296
 2873SOL     OW 8844   2.665   5.126   2.786
 2873SOL    HW1 8845   2.755   5.140   2.744
 2873SOL    HW2 8846   2.594   5.128   2.715
 2874SOL     OW 8847   2.401   3.788   2.374
 2874SOL    HW1 8848   2.320   3.789   2.432
 2874SOL    HW2 8849   2.404   3.871   2.319
 2875SOL     OW 8850   3.296   4.912   1.903
 2875SOL    HW1 8851   3.328   4.836   1.960
 2875SOL    HW2 8852   3.204   4.939   1.933
 2876SOL     OW 8853   2.159   3.759   2.033
 2876SOL    HW1 8854   2.208   3.843   2.012
 2876SOL    HW2 8855   2.221   3.694   2.078
 2877SOL     OW 8856   2.797   3.960   2.342
 2877SOL    HW1 8857   2.749   4.001   2.264
 2877SOL    HW2 8858   2.896   3.958   2.323
 2878SOL     OW 8859   2.938   4.407   3.326
 2878SOL    HW1 8860   2.858   4.346   3.329
 2878SOL    HW2 8861   3.019   4.354   3.302
 2879SOL     OW 8862   3.089   5.294   2.655
 2879SOL    HW1 8863   3.110   5.368   2.590
 2879SOL    HW2 8864   3.157   5.294   2.728
 2880SOL     OW 8865   2.894   4.273   1.878
 2880SOL    HW1 8866   2.853   4.355   1.839
 2880SOL    HW2 8867   2.958   4.299   1.951
 2881SOL     OW 8868   1.940   4.280   3.248
 2881SOL    HW1 8869   2.032   4.279   3.207
 2881SOL    HW2 8870   1.934   4.354   3.315
 2882SOL     OW 8871   2.423   3.946   3.009
 2882SOL    HW1 8872   2.461   3.862   3.046
 2882SOL    HW2 8873   2.335   3.965   3.053
 2883SOL     OW 8874   2.879   3.763   2.615
 2883SOL    HW1 8875   2.807   3.768   2.546
 2883SOL    HW2 8876   2.855   3.694   2.684
 2884SOL     OW 8877   3.291   4.897   2.729
 2884SOL    HW1 8878   3.236   4.813   2.722
 2884SOL    HW2 8879   3.317   4.926   2.637
 2885SOL     OW 8880   3.328   4.314   2.854
 2885SOL    HW1 8881   3.298   4.219   2.861
 2885SOL    HW2 8882   3.401   4.330   2.920
 2886SOL     OW 8883   3.719   4.557   2.239
 2886SOL    HW1 8884   3.761   4.493   2.303
 2886SOL    HW2 8885   3.681   4.506   2.161
 2887SOL     OW 8886   3.526   5.004   2.519
 2887SOL    HW1 8887   3.625   5.012   2.533
 2887SOL    HW2 8888   3.481   5.088   2.550
 2888SOL     OW 8889   3.252   4.299   1.940
 2888SOL    HW1 8890   3.198   4.278   2.021
 2888SOL    HW2 8891   3.343   4.258   1.949
 2889SOL     OW 8892   2.389   3.980   2.190
 2889SOL    HW1 8893   2.416   3.921   2.115
 2889SOL    HW2 8894   2.389   4.075   2.159
 2890SOL     OW 8895   3.616   4.947   3.450
 2890SOL    HW1 8896   3.707   4.908   3.437
 2890SOL    HW2 8897   3.624   5.043   3.474
 2891SOL     OW 8898   3.500   4.823   2.941
 2891SOL    HW1 8899   3.505   4.904   3.000
 2891SOL    HW2 8900   3.414   4.825   2.890
 2892SOL     OW 8901   2.777   3.813   3.264
 2892SOL    HW1 8902   2.802   3.793   3.169
 2892SOL    HW2 8903   2.849   3.869   3.306
 2893SOL     OW 8904   2.842   4.840   3.581
 2893SOL    HW1 8905   2.743   4.846   3.591
 2893SOL    HW2 8906   2.865   4.760   3.525
 2894SOL     OW 8907   2.272   4.537   3.113
 2894SOL    HW1 8908   2.358   4.549   3.163
 2894SOL    HW2 8909   2.230   4.450   3.140
 2895SOL     OW 8910   3.136   4.110   3.124
 2895SOL    HW1 8911   3.157   4.184   3.188
 2895SOL    HW2 8912   3.047   4.127   3.081
 2896SOL     OW 8913   3.444   4.363   2.334
 2896SOL    HW1 8914   3.413   4.424   2.407
 2896SOL    HW2 8915   3.494   4.415   2.265
 2897SOL     OW 8916   2.264   4.475   3.460
 2897SOL    HW1 8917   2.332   4.530   3.413
 2897SOL    HW2 8918   2.304   4.387   3.487
 2898SOL     OW 8919   3.449   4.503   3.532
 2898SOL    HW1 8920   3.357   4.541   3.527
 2898SOL    HW2 8921   3.509   4.550   3.467
 2899SOL     OW 8922   2.875   3.829   3.632
 2899SOL    HW1 8923   2.881   3.914   3.580
 2899SOL    HW2 8924   2.907   3.753   3.575
 2900SOL     OW 8925   2.366   3.774   3.602
 2900SOL    HW1 8926   2.324   3.717   3.532
 2900SOL    HW2 8927   2.300   3.843   3.634
 2901SOL     OW 8928   2.435   4.594   2.891
 2901SOL    HW1 8929   2.479   4.683   2.882
 2901SOL    HW2 8930   2.372   4.594   2.968
 2902SOL     OW 8931   3.222   4.586   2.907
 2902SOL    HW1 8932   3.147   4.586   2.841
 2902SOL    HW2 8933   3.259   4.494   2.916
 2903SOL     OW 8934   3.071   4.249   2.137
 2903SOL    HW1 8935   3.084   4.165   2.191
 2903SOL    HW2 8936   3.042   4.323   2.197
 2904SOL     OW 8937   2.169   3.937   3.093
 2904SOL    HW1 8938   2.146   3.974   3.183
 2904SOL    HW2 8939   2.139   3.842   3.087
 2905SOL     OW 8940   2.594   4.358   2.926
 2905SOL    HW1 8941   2.653   4.332   2.850
 2905SOL    HW2 8942   2.566   4.454   2.915
 2906SOL     OW 8943   3.590   4.659   3.716
 2906SOL    HW1 8944   3.544   4.652   3.627
 2906SOL    HW2 8945   3.528   4.703   3.782
 2907SOL     OW 8946   2.169   3.787   2.480
 2907SOL    HW1 8947   2.158   3.881   2.513
 2907SOL    HW2 8948   2.164   3.724   2.557
 2908SOL     OW 8949   3.484   4.091   2.236
 2908SOL    HW1 8950   3.486   4.015   2.300
 2908SOL    HW2 8951   3.436   4.168   2.276
 2909SOL     OW 8952   2.885   4.490   2.828
 2909SOL    HW1 8953   2.900   4.511   2.924
 2909SOL    HW2 8954   2.855   4.395   2.819
 2910SOL     OW 8955   3.721   5.242   3.467
 2910SOL    HW1 8956   3.735   5.269   3.372
 2910SOL    HW2 8957   3.804   5.264   3.520
 2911SOL     OW 8958   2.212   4.622   3.666
 2911SOL    HW1 8959   2.288   4.666   3.714
 2911SOL    HW2 8960   2.247   4.575   3.584
 2912SOL     OW 8961   3.402   3.998   1.987
 2912SOL    HW1 8962   3.341   3.923   2.010
 2912SOL    HW2 8963   3.424   4.050   2.070
 2913SOL     OW 8964   3.165   4.562   1.904
 2913SOL    HW1 8965   3.199   4.469   1.919
 2913SOL    HW2 8966   3.183   4.589   1.809
 2914SOL     OW 8967   2.181   4.534   2.811
 2914SOL    HW1 8968   2.274   4.570   2.816
 2914SOL    HW2 8969   2.175   4.449   2.863
 2915SOL     OW 8970   2.201   4.233   2.868
 2915SOL    HW1 8971   2.149   4.150   2.851
 2915SOL    HW2 8972   2.278   4.238   2.804
 2916SOL     OW 8973   3.000   4.104   3.540
 2916SOL    HW1 8974   2.955   4.167   3.604
 2916SOL    HW2 8975   3.093   4.135   3.523
 2917SOL     OW 8976   3.022   3.931   3.339
 2917SOL    HW1 8977   3.022   3.995   3.416
 2917SOL    HW2 8978   3.050   3.979   3.256
 2918SOL     OW 8979   1.870   5.050   2.062
 2918SOL    HW1 8980   1.777   5.071   2.031
 2918SOL    HW2 8981   1.880   4.951   2.075
 2919SOL     OW 8982   2.864   4.520   3.100
 2919SOL    HW1 8983   2.905   4.488   3.186
 2919SOL    HW2 8984   2.768   4.493   3.097
 2920SOL     OW 8985   1.902   4.268   2.976
 2920SOL    HW1 8986   1.987   4.235   2.935
 2920SOL    HW2 8987   1.915   4.283   3.074
 2921SOL     OW 8988   2.051   4.244   3.584
 2921SOL    HW1 8989   2.110   4.204   3.514
 2921SOL    HW2 8990   1.993   4.315   3.543
 2922SOL     OW 8991   3.231   4.674   3.522
 2922SOL    HW1 8992   3.270   4.763   3.542
 2922SOL    HW2 8993   3.241   4.654   3.425
 2923SOL     OW 8994   3.519   4.328   3.068
 2923SOL    HW1 8995   3.481   4.259   3.130
 2923SOL    HW2 8996   3.601   4.292   3.024
 2924SOL     OW 8997   2.533   4.188   3.131
 2924SOL    HW1 8998   2.499   4.099   3.101
 2924SOL    HW2 8999   2.559   4.242   3.051
 2925SOL     OW 9000   2.335   4.224   2.053
 2925SOL    HW1 9001   2.396   4.304   2.057
 2925SOL    HW2 9002   2.240   4.255   2.060
 2926SOL     OW 9003   2.021   4.861   3.328
 2926SOL    HW1 9004   2.043   4.800   3.404
 2926SOL    HW2 9005   2.031   4.812   3.242
 2927SOL     OW 9006   3.209   4.783   3.096
 2927SOL    HW1 9007   3.233   4.720   3.022
 2927SOL    HW2 9008   3.119   4.823   3.078
 2928SOL     OW 9009   3.164   4.579   2.171
 2928SOL    HW1 9010   3.078   4.548   2.213
 2928SOL    HW2 9011   3.160   4.565   2.072
 2929SOL     OW 9012   1.945   4.982   2.884
 2929SOL    HW1 9013   1.940   4.981   2.984
 2929SOL    HW2 9014   1.862   4.941   2.846
 2930SOL     OW 9015   3.588   3.859   2.385
 2930SOL    HW1 9016   3.661   3.842   2.318
 2930SOL    HW2 9017   3.557   3.772   2.423
 2931SOL     OW 9018   3.142   4.651   2.534
 2931SOL    HW1 9019   3.202   4.570   2.536
 2931SOL    HW2 9020   3.182   4.720   2.474
 2932SOL     OW 9021   2.692   4.997   3.284
 2932SOL    HW1 9022   2.687   5.030   3.379
 2932SOL    HW2 9023   2.606   5.016   3.238
 2933SOL     OW 9024   3.703   3.899   2.825
 2933SOL    HW1 9025   3.742   3.814   2.789
 2933SOL    HW2 9026   3.605   3.901   2.806
 2934SOL     OW 9027   2.125   4.050   2.582
 2934SOL    HW1 9028   2.046   4.101   2.548
 2934SOL    HW2 9029   2.116   4.035   2.680
 2935SOL     OW 9030   3.056   5.336   1.893
 2935SOL    HW1 9031   3.062   5.243   1.930
 2935SOL    HW2 9032   2.997   5.336   1.813
 2936SOL     OW 9033   2.684   4.726   3.234
 2936SOL    HW1 9034   2.724   4.725   3.142
 2936SOL    HW2 9035   2.694   4.818   3.274
 2937SOL     OW 9036   2.778   4.634   2.153
 2937SOL    HW1 9037   2.841   4.672   2.085
 2937SOL    HW2 9038   2.818   4.551   2.192
 2938SOL     OW 9039   2.234   5.012   3.352
 2938SOL    HW1 9040   2.221   5.105   3.318
 2938SOL    HW2 9041   2.150   4.960   3.339
 2939SOL     OW 9042   3.476   5.016   3.151
 2939SOL    HW1 9043   3.536   5.019   3.231
 2939SOL    HW2 9044   3.401   5.080   3.164
 2940SOL     OW 9045   2.901   4.822   2.558
 2940SOL    HW1 9046   2.831   4.775   2.612
 2940SOL    HW2 9047   2.960   4.754   2.515
 2941SOL     OW 9048   2.876   3.960   2.833
 2941SOL    HW1 9049   2.868   3.924   2.740
 2941SOL    HW2 9050   2.874   3.884   2.898
 2942SOL     OW 9051   3.571   4.109   3.243
 2942SOL    HW1 9052   3.644   4.178   3.247
 2942SOL    HW2 9053   3.599   4.034   3.184
 2943SOL     OW 9054   1.967   4.737   3.588
 2943SOL    HW1 9055   1.890   4.704   3.642
 2943SOL    HW2 9056   2.052   4.707   3.630
 2944SOL     OW 9057   2.534   3.927   3.351
 2944SOL    HW1 9058   2.624   3.911   3.311
 2944SOL    HW2 9059   2.542   3.932   3.450
 2945SOL     OW 9060   1.937   4.069   1.895
 2945SOL    HW1 9061   1.845   4.041   1.866
 2945SOL    HW2 9062   1.968   4.146   1.839
 2946SOL     OW 9063   3.302   4.580   3.260
 2946SOL    HW1 9064   3.245   4.632   3.197
 2946SOL    HW2 9065   3.398   4.592   3.236
 2947SOL     OW 9066   1.934   3.890   2.180
 2947SOL    HW1 9067   1.917   3.973   2.126
 2947SOL    HW2 9068   2.024   3.853   2.158
 2948SOL     OW 9069   2.475   4.566   3.293
 2948SOL    HW1 9070   2.531   4.647   3.276
 2948SOL    HW2 9071   2.534   4.486   3.296
 2949SOL     OW 9072   2.578   4.289   3.570
 2949SOL    HW1 9073   2.597   4.354   3.644
 2949SOL    HW2 9074   2.638   4.209   3.579
 2950SOL     OW 9075   3.312   4.944   3.495
 2950SOL    HW1 9076   3.303   4.934   3.594
 2950SOL    HW2 9077   3.408   4.937   3.469
 2951SOL     OW 9078   3.536   4.607   3.116
 2951SOL    HW1 9079   3.509   4.518   3.079
 2951SOL    HW2 9080   3.537   4.675   3.043
 2952SOL     OW 9081   3.087   4.049   2.311
 2952SOL    HW1 9082   3.152   3.975   2.300
 2952SOL    HW2 9083   3.107   4.099   2.395
 2953SOL     OW 9084   3.639   4.066   3.504
 2953SOL    HW1 9085   3.622   4.097   3.410
 2953SOL    HW2 9086   3.555   4.029   3.542
 2954SOL     OW 9087   3.592   4.658   3.379
 2954SOL    HW1 9088   3.630   4.749   3.394
 2954SOL    HW2 9089   3.584   4.641   3.280
 2955SOL     OW 9090   2.721   4.680   2.723
 2955SOL    HW1 9091   2.775   4.611   2.771
 2955SOL    HW2 9092   2.689   4.749   2.789
 2956SOL     OW 9093   2.945   4.708   1.949
 2956SOL    HW1 9094   2.922   4.761   1.867
 2956SOL    HW2 9095   3.026   4.652   1.930
 2957SOL     OW 9096   1.941   4.964   2.515
 2957SOL    HW1 9097   1.940   4.917   2.603
 2957SOL    HW2 9098   2.023   4.936   2.464
 2958SOL     OW 9099   3.686   3.916   3.089
 2958SOL    HW1 9100   3.682   3.826   3.133
 2958SOL    HW2 9101   3.689   3.905   2.990
 2959SOL     OW 9102   2.290   4.148   2.382
 2959SOL    HW1 9103   2.320   4.076   2.320
 2959SOL    HW2 9104   2.251   4.108   2.465
 2960SOL     OW 9105   2.179   4.271   3.142
 2960SOL    HW1 9106   2.217   4.212   3.214
 2960SOL    HW2 9107   2.219   4.245   3.054
 2961SOL     OW 9108   3.286   3.938   2.974
 2961SOL    HW1 9109   3.338   3.873   3.029
 2961SOL    HW2 9110   3.237   4.001   3.035
 2962SOL     OW 9111   2.863   3.758   3.016
 2962SOL    HW1 9112   2.800   3.686   2.985
 2962SOL    HW2 9113   2.956   3.722   3.016
 2963SOL     OW 9114   3.214   3.776   2.030
 2963SOL    HW1 9115   3.249   3.735   1.946
 2963SOL    HW2 9116   3.124   3.738   2.050
 2964SOL     OW 9117   3.162   4.177   2.553
 2964SOL    HW1 9118   3.103   4.257   2.557
 2964SOL    HW2 9119   3.177   4.142   2.646
 2965SOL     OW 9120   3.455   3.945   2.744
 2965SOL    HW1 9121   3.371   3.944   2.798
 2965SOL    HW2 9122   3.457   4.028   2.688
 2966SOL     OW 9123   1.901   4.801   2.162
 2966SOL    HW1 9124   2.000   4.790   2.153
 2966SOL    HW2 9125   1.861   4.715   2.194
 2967SOL     OW 9126   2.092   4.352   3.837
 2967SOL    HW1 9127   1.999   4.350   3.874
 2967SOL    HW2 9128   2.093   4.313   3.745
 2968SOL     OW 9129   2.087   3.999   4.720
 2968SOL    HW1 9130   2.122   3.982   4.812
 2968SOL    HW2 9131   1.999   3.954   4.708
 2969SOL     OW 9132   1.881   4.092   4.371
 2969SOL    HW1 9133   1.799   4.135   4.410
 2969SOL    HW2 9134   1.853   4.019   4.308
 2970SOL     OW 9135   2.431   4.999   4.889
 2970SOL    HW1 9136   2.338   4.992   4.852
 2970SOL    HW2 9137   2.442   5.088   4.933
 2971SOL     OW 9138   3.417   5.235   4.427
 2971SOL    HW1 9139   3.360   5.219   4.508
 2971SOL    HW2 9140   3.358   5.245   4.347
 2972SOL     OW 9141   2.997   4.427   4.441
 2972SOL    HW1 9142   3.054   4.505   4.416
 2972SOL    HW2 9143   2.937   4.453   4.517
 2973SOL     OW 9144   3.617   4.331   3.955
 2973SOL    HW1 9145   3.605   4.318   3.856
 2973SOL    HW2 9146   3.587   4.250   4.004
 2974SOL     OW 9147   2.547   4.736   4.389
 2974SOL    HW1 9148   2.616   4.720   4.459
 2974SOL    HW2 9149   2.474   4.793   4.427
 2975SOL     OW 9150   2.197   5.159   4.785
 2975SOL    HW1 9151   2.119   5.128   4.732
 2975SOL    HW2 9152   2.255   5.217   4.728
 2976SOL     OW 9153   3.465   4.171   4.461
 2976SOL    HW1 9154   3.391   4.217   4.411
 2976SOL    HW2 9155   3.516   4.239   4.514
 2977SOL     OW 9156   2.102   4.815   4.610
 2977SOL    HW1 9157   2.116   4.731   4.662
 2977SOL    HW2 9158   2.047   4.879   4.665
 2978SOL     OW 9159   2.468   4.688   3.847
 2978SOL    HW1 9160   2.475   4.772   3.793
 2978SOL    HW2 9161   2.514   4.701   3.935
 2979SOL     OW 9162   1.984   4.367   4.287
 2979SOL    HW1 9163   1.939   4.279   4.304
 2979SOL    HW2 9164   1.983   4.421   4.371
 2980SOL     OW 9165   3.551   4.646   4.336
 2980SOL    HW1 9166   3.646   4.617   4.344
 2980SOL    HW2 9167   3.543   4.711   4.261
 2981SOL     OW 9168   3.503   4.832   4.156
 2981SOL    HW1 9169   3.589   4.834   4.104
 2981SOL    HW2 9170   3.517   4.879   4.244
 2982SOL     OW 9171   2.671   3.728   4.226
 2982SOL    HW1 9172   2.711   3.819   4.217
 2982SOL    HW2 9173   2.571   3.736   4.232
 2983SOL     OW 9174   2.059   4.700   4.988
 2983SOL    HW1 9175   2.148   4.655   4.974
 2983SOL    HW2 9176   1.986   4.635   4.969
 2984SOL     OW 9177   3.387   4.723   3.914
 2984SOL    HW1 9178   3.324   4.647   3.927
 2984SOL    HW2 9179   3.435   4.741   4.000
 2985SOL     OW 9180   3.328   5.141   4.677
 2985SOL    HW1 9181   3.269   5.147   4.757
 2985SOL    HW2 9182   3.313   5.053   4.631
 2986SOL     OW 9183   2.460   4.453   3.994
 2986SOL    HW1 9184   2.484   4.522   3.926
 2986SOL    HW2 9185   2.382   4.486   4.048
 2987SOL     OW 9186   3.143   4.069   4.668
 2987SOL    HW1 9187   3.057   4.019   4.655
 2987SOL    HW2 9188   3.205   4.015   4.724
 2988SOL     OW 9189   2.853   4.134   4.966
 2988SOL    HW1 9190   2.776   4.168   5.020
 2988SOL    HW2 9191   2.819   4.083   4.887
 2989SOL     OW 9192   2.903   4.425   4.153
 2989SOL    HW1 9193   2.929   4.421   4.249
 2989SOL    HW2 9194   2.818   4.374   4.139
 2990SOL     OW 9195   1.938   4.535   4.513
 2990SOL    HW1 9196   2.037   4.523   4.522
 2990SOL    HW2 9197   1.914   4.630   4.534
 2991SOL     OW 9198   2.727   4.072   3.919
 2991SOL    HW1 9199   2.786   4.135   3.870
 2991SOL    HW2 9200   2.746   3.978   3.890
 2992SOL     OW 9201   3.224   4.868   4.269
 2992SOL    HW1 9202   3.307   4.839   4.221
 2992SOL    HW2 9203   3.175   4.935   4.213
 2993SOL     OW 9204   2.412   3.920   4.609
 2993SOL    HW1 9205   2.407   3.915   4.709
 2993SOL    HW2 9206   2.414   4.016   4.580
 2994SOL     OW 9207   3.657   4.790   4.597
 2994SOL    HW1 9208   3.595   4.775   4.521
 2994SOL    HW2 9209   3.605   4.801   4.682
 2995SOL     OW 9210   2.183   4.667   3.966
 2995SOL    HW1 9211   2.265   4.706   3.924
 2995SOL    HW2 9212   2.156   4.585   3.917
 2996SOL     OW 9213   3.320   4.459   4.452
 2996SOL    HW1 9214   3.315   4.394   4.527
 2996SOL    HW2 9215   3.400   4.518   4.465
 2997SOL     OW 9216   3.494   5.101   3.805
 2997SOL    HW1 9217   3.462   5.195   3.795
 2997SOL    HW2 9218   3.418   5.038   3.793
 2998SOL     OW 9219   3.262   3.831   4.150
 2998SOL    HW1 9220   3.238   3.794   4.060
 2998SOL    HW2 9221   3.361   3.847   4.154
 2999SOL     OW 9222   2.244   4.424   4.204
 2999SOL    HW1 9223   2.289   4.334   4.201
 2999SOL    HW2 9224   2.150   4.413   4.237
 3000SOL     OW 9225   2.476   3.846   3.841
 3000SOL    HW1 9226   2.574   3.824   3.848
 3000SOL    HW2 9227   2.445   3.829   3.748
 3001SOL     OW 9228   2.784   4.227   4.623
 3001SOL    HW1 9229   2.759   4.218   4.527
 3001SOL    HW2 9230   2.832   4.145   4.654
 3002SOL     OW 9231   2.401   3.788   4.236
 3002SOL    HW1 9232   2.320   3.789   4.294
 3002SOL    HW2 9233   2.404   3.871   4.181
 3003SOL     OW 9234   3.296   4.912   3.765
 3003SOL    HW1 9235   3.328   4.836   3.822
 3003SOL    HW2 9236   3.204   4.939   3.795
 3004SOL     OW 9237   2.159   3.759   3.895
 3004SOL    HW1 9238   2.208   3.843   3.874
 3004SOL    HW2 9239   2.221   3.694   3.940
 3005SOL     OW 9240   2.797   3.960   4.204
 3005SOL    HW1 9241   2.749   4.001   4.126
 3005SOL    HW2 9242   2.896   3.958   4.185
 3006SOL     OW 9243   3.089   5.294   4.517
 3006SOL    HW1 9244   3.110   5.368   4.452
 3006SOL    HW2 9245   3.157   5.294   4.590
 3007SOL     OW 9246   2.321   4.876   4.465
 3007SOL    HW1 9247   2.250   4.849   4.530
 3007SOL    HW2 9248   2.295   4.848   4.372
 3008SOL     OW 9249   2.894   4.273   3.740
 3008SOL    HW1 9250   2.853   4.355   3.701
 3008SOL    HW2 9251   2.958   4.299   3.813
 3009SOL     OW 9252   2.423   3.946   4.871
 3009SOL    HW1 9253   2.461   3.862   4.908
 3009SOL    HW2 9254   2.335   3.965   4.915
 3010SOL     OW 9255   2.728   4.178   4.366
 3010SOL    HW1 9256   2.696   4.250   4.304
 3010SOL    HW2 9257   2.752   4.097   4.313
 3011SOL     OW 9258   2.879   3.763   4.477
 3011SOL    HW1 9259   2.807   3.768   4.408
 3011SOL    HW2 9260   2.855   3.694   4.546
 3012SOL     OW 9261   3.291   4.897   4.591
 3012SOL    HW1 9262   3.236   4.813   4.584
 3012SOL    HW2 9263   3.317   4.926   4.499
 3013SOL     OW 9264   3.328   4.314   4.716
 3013SOL    HW1 9265   3.298   4.219   4.723
 3013SOL    HW2 9266   3.401   4.330   4.782
 3014SOL     OW 9267   3.719   4.557   4.101
 3014SOL    HW1 9268   3.761   4.493   4.165
 3014SOL    HW2 9269   3.681   4.506   4.023
 3015SOL     OW 9270   3.526   5.004   4.381
 3015SOL    HW1 9271   3.625   5.012   4.395
 3015SOL    HW2 9272   3.481   5.088   4.412
 3016SOL     OW 9273   3.252   4.299   3.802
 3016SOL    HW1 9274   3.198   4.278   3.883
 3016SOL    HW2 9275   3.343   4.258   3.811
 3017SOL     OW 9276   2.389   3.980   4.052
 3017SOL    HW1 9277   2.416   3.921   3.977
 3017SOL    HW2 9278   2.389   4.075   4.021
 3018SOL     OW 9279   3.500   4.823   4.803
 3018SOL    HW1 9280   3.505   4.904   4.862
 3018SOL    HW2 9281   3.414   4.825   4.752
 3019SOL     OW 9282   2.567   4.774   4.092
 3019SOL    HW1 9283   2.553   4.781   4.191
 3019SOL    HW2 9284   2.651   4.723   4.074
 3020SOL     OW 9285   2.272   4.537   4.975
 3020SOL    HW1 9286   2.358   4.549   5.025
 3020SOL    HW2 9287   2.230   4.450   5.002
 3021SOL     OW 9288   3.136   4.110   4.986
 3021SOL    HW1 9289   3.157   4.184   5.050
 3021SOL    HW2 9290   3.047   4.127   4.943
 3022SOL     OW 9291   2.229   4.824   4.225
 3022SOL    HW1 9292   2.222   4.907   4.169
 3022SOL    HW2 9293   2.233   4.744   4.165
 3023SOL     OW 9294   2.428   4.261   4.589
 3023SOL    HW1 9295   2.440   4.327   4.515
 3023SOL    HW2 9296   2.474   4.295   4.672
 3024SOL     OW 9297   3.444   4.363   4.196
 3024SOL    HW1 9298   3.413   4.424   4.269
 3024SOL    HW2 9299   3.494   4.415   4.127
 3025SOL     OW 9300   2.435   4.594   4.753
 3025SOL    HW1 9301   2.479   4.683   4.744
 3025SOL    HW2 9302   2.372   4.594   4.830
 3026SOL     OW 9303   3.222   4.586   4.769
 3026SOL    HW1 9304   3.147   4.586   4.703
 3026SOL    HW2 9305   3.259   4.494   4.778
 3027SOL     OW 9306   3.071   4.249   3.999
 3027SOL    HW1 9307   3.084   4.165   4.053
 3027SOL    HW2 9308   3.042   4.323   4.059
 3028SOL     OW 9309   2.169   3.937   4.955
 3028SOL    HW1 9310   2.146   3.974   5.045
 3028SOL    HW2 9311   2.139   3.842   4.949
 3029SOL     OW 9312   2.594   4.358   4.788
 3029SOL    HW1 9313   2.653   4.332   4.712
 3029SOL    HW2 9314   2.566   4.454   4.777
 3030SOL     OW 9315   2.169   3.787   4.342
 3030SOL    HW1 9316   2.158   3.881   4.375
 3030SOL    HW2 9317   2.164   3.724   4.419
 3031SOL     OW 9318   3.484   4.091   4.098
 3031SOL    HW1 9319   3.486   4.015   4.162
 3031SOL    HW2 9320   3.436   4.168   4.138
 3032SOL     OW 9321   2.885   4.490   4.690
 3032SOL    HW1 9322   2.900   4.511   4.786
 3032SOL    HW2 9323   2.855   4.395   4.681
 3033SOL     OW 9324   3.402   3.998   3.849
 3033SOL    HW1 9325   3.341   3.923   3.872
 3033SOL    HW2 9326   3.424   4.050   3.932
 3034SOL     OW 9327   3.165   4.562   3.766
 3034SOL    HW1 9328   3.199   4.469   3.781
 3034SOL    HW2 9329   3.183   4.589   3.671
 3035SOL     OW 9330   2.181   4.534   4.673
 3035SOL    HW1 9331   2.274   4.570   4.678
 3035SOL    HW2 9332   2.175   4.449   4.725
 3036SOL     OW 9333   2.201   4.233   4.730
 3036SOL    HW1 9334   2.149   4.150   4.713
 3036SOL    HW2 9335   2.278   4.238   4.666
 3037SOL     OW 9336   3.022   3.931   5.201
 3037SOL    HW1 9337   3.022   3.995   5.278
 3037SOL    HW2 9338   3.050   3.979   5.118
 3038SOL     OW 9339   1.870   5.050   3.924
 3038SOL    HW1 9340   1.777   5.071   3.893
 3038SOL    HW2 9341   1.880   4.951   3.937
 3039SOL     OW 9342   2.864   4.520   4.962
 3039SOL    HW1 9343   2.905   4.488   5.048
 3039SOL    HW2 9344   2.768   4.493   4.959
 3040SOL     OW 9345   1.902   4.268   4.838
 3040SOL    HW1 9346   1.987   4.235   4.797
 3040SOL    HW2 9347   1.915   4.283   4.936
 3041SOL     OW 9348   2.677   4.296   4.049
 3041SOL    HW1 9349   2.684   4.207   4.003
 3041SOL    HW2 9350   2.583   4.330   4.041
 3042SOL     OW 9351   3.519   4.328   4.930
 3042SOL    HW1 9352   3.481   4.259   4.992
 3042SOL    HW2 9353   3.601   4.292   4.886
 3043SOL     OW 9354   2.533   4.188   4.993
 3043SOL    HW1 9355   2.499   4.099   4.963
 3043SOL    HW2 9356   2.559   4.242   4.913
 3044SOL     OW 9357   2.335   4.224   3.915
 3044SOL    HW1 9358   2.396   4.304   3.919
 3044SOL    HW2 9359   2.240   4.255   3.922
 3045SOL     OW 9360   3.209   4.783   4.958
 3045SOL    HW1 9361   3.233   4.720   4.884
 3045SOL    HW2 9362   3.119   4.823   4.940
 3046SOL     OW 9363   3.164   4.579   4.033
 3046SOL    HW1 9364   3.078   4.548   4.075
 3046SOL    HW2 9365   3.160   4.565   3.934
 3047SOL     OW 9366   1.945   4.982   4.746
 3047SOL    HW1 9367   1.940   4.981   4.846
 3047SOL    HW2 9368   1.862   4.941   4.708
 3048SOL     OW 9369   3.588   3.859   4.247
 3048SOL    HW1 9370   3.661   3.842   4.180
 3048SOL    HW2 9371   3.557   3.772   4.285
 3049SOL     OW 9372   3.142   4.651   4.396
 3049SOL    HW1 9373   3.202   4.570   4.398
 3049SOL    HW2 9374   3.182   4.720   4.336
 3050SOL     OW 9375   3.703   3.899   4.687
 3050SOL    HW1 9376   3.742   3.814   4.651
 3050SOL    HW2 9377   3.605   3.901   4.668
 3051SOL     OW 9378   2.125   4.050   4.444
 3051SOL    HW1 9379   2.046   4.101   4.410
 3051SOL    HW2 9380   2.116   4.035   4.542
 3052SOL     OW 9381   3.056   5.336   3.755
 3052SOL    HW1 9382   3.062   5.243   3.792
 3052SOL    HW2 9383   2.997   5.336   3.675
 3053SOL     OW 9384   2.684   4.726   5.096
 3053SOL    HW1 9385   2.724   4.725   5.004
 3053SOL    HW2 9386   2.694   4.818   5.136
 3054SOL     OW 9387   2.778   4.634   4.015
 3054SOL    HW1 9388   2.841   4.672   3.947
 3054SOL    HW2 9389   2.818   4.551   4.054
 3055SOL     OW 9390   2.901   4.822   4.420
 3055SOL    HW1 9391   2.831   4.775   4.474
 3055SOL    HW2 9392   2.960   4.754   4.377
 3056SOL     OW 9393   2.876   3.960   4.695
 3056SOL    HW1 9394   2.868   3.924   4.602
 3056SOL    HW2 9395   2.874   3.884   4.760
 3057SOL     OW 9396   3.571   4.109   5.105
 3057SOL    HW1 9397   3.644   4.178   5.109
 3057SOL    HW2 9398   3.599   4.034   5.046
 3058SOL     OW 9399   1.937   4.069   3.757
 3058SOL    HW1 9400   1.845   4.041   3.728
 3058SOL    HW2 9401   1.968   4.146   3.701
 3059SOL     OW 9402   1.934   3.890   4.042
 3059SOL    HW1 9403   1.917   3.973   3.988
 3059SOL    HW2 9404   2.024   3.853   4.020
 3060SOL     OW 9405   3.312   4.944   5.357
 3060SOL    HW1 9406   3.303   4.934   5.456
 3060SOL    HW2 9407   3.408   4.937   5.331
 3061SOL     OW 9408   3.536   4.607   4.978
 3061SOL    HW1 9409   3.509   4.518   4.941
 3061SOL    HW2 9410   3.537   4.675   4.905
 3062SOL     OW 9411   3.087   4.049   4.173
 3062SOL    HW1 9412   3.152   3.975   4.162
 3062SOL    HW2 9413   3.107   4.099   4.257
 3063SOL     OW 9414   2.456   4.469   4.376
 3063SOL    HW1 9415   2.506   4.554   4.357
 3063SOL    HW2 9416   2.368   4.471   4.328
 3064SOL     OW 9417   3.592   4.658   5.241
 3064SOL    HW1 9418   3.630   4.749   5.256
 3064SOL    HW2 9419   3.584   4.641   5.142
 3065SOL     OW 9420   2.721   4.680   4.585
 3065SOL    HW1 9421   2.775   4.611   4.633
 3065SOL    HW2 9422   2.689   4.749   4.651
 3066SOL     OW 9423   2.945   4.708   3.811
 3066SOL    HW1 9424   2.922   4.761   3.729
 3066SOL    HW2 9425   3.026   4.652   3.792
 3067SOL     OW 9426   1.941   4.964   4.377
 3067SOL    HW1 9427   1.940   4.917   4.465
 3067SOL    HW2 9428   2.023   4.936   4.326
 3068SOL     OW 9429   3.686   3.916   4.951
 3068SOL    HW1 9430   3.682   3.826   4.995
 3068SOL    HW2 9431   3.689   3.905   4.852
 3069SOL     OW 9432   2.290   4.148   4.244
 3069SOL    HW1 9433   2.320   4.076   4.182
 3069SOL    HW2 9434   2.251   4.108   4.327
 3070SOL     OW 9435   3.286   3.938   4.836
 3070SOL    HW1 9436   3.338   3.873   4.891
 3070SOL    HW2 9437   3.237   4.001   4.897
 3071SOL     OW 9438   2.863   3.758   4.878
 3071SOL    HW1 9439   2.800   3.686   4.847
 3071SOL    HW2 9440   2.956   3.722   4.878
 3072SOL     OW 9441   2.632   5.054   4.025
 3072SOL    HW1 9442   2.586   4.967   4.042
 3072SOL    HW2 9443   2.723   5.051   4.066
 3073SOL     OW 9444   3.214   3.776   3.892
 3073SOL    HW1 9445   3.249   3.735   3.808
 3073SOL    HW2 9446   3.124   3.738   3.912
 3074SOL     OW 9447   3.162   4.177   4.415
 3074SOL    HW1 9448   3.103   4.257   4.419
 3074SOL    HW2 9449   3.177   4.142   4.508
 3075SOL     OW 9450   3.455   3.945   4.606
 3075SOL    HW1 9451   3.371   3.944   4.660
 3075SOL    HW2 9452   3.457   4.028   4.550
 3076SOL     OW 9453   1.901   4.801   4.024
 3076SOL    HW1 9454   2.000   4.790   4.015
 3076SOL    HW2 9455   1.861   4.715   4.056
 3077SOL     OW 9456   3.954   0.628   0.113
 3077SOL    HW1 9457   3.861   0.626   0.150
 3077SOL    HW2 9458   3.955   0.589   0.021
 3078SOL     OW 9459   3.949   0.275   0.996
 3078SOL    HW1 9460   3.984   0.258   1.088
 3078SOL    HW2 9461   3.861   0.230   0.984
 3079SOL     OW 9462   3.743   0.368   0.647
 3079SOL    HW1 9463   3.661   0.411   0.686
 3079SOL    HW2 9464   3.715   0.295   0.584
 3080SOL     OW 9465   4.293   1.275   1.165
 3080SOL    HW1 9466   4.200   1.268   1.128
 3080SOL    HW2 9467   4.304   1.364   1.209
 3081SOL     OW 9468   4.859   0.703   0.717
 3081SOL    HW1 9469   4.916   0.781   0.692
 3081SOL    HW2 9470   4.799   0.729   0.793
 3082SOL     OW 9471   4.492   1.144   1.023
 3082SOL    HW1 9472   4.414   1.161   1.083
 3082SOL    HW2 9473   4.526   1.231   0.987
 3083SOL     OW 9474   4.574   0.798   1.823
 3083SOL    HW1 9475   4.570   0.874   1.888
 3083SOL    HW2 9476   4.596   0.834   1.732
 3084SOL     OW 9477   4.409   1.012   0.665
 3084SOL    HW1 9478   4.478   0.996   0.735
 3084SOL    HW2 9479   4.336   1.069   0.703
 3085SOL     OW 9480   4.410   1.161   1.803
 3085SOL    HW1 9481   4.470   1.240   1.817
 3085SOL    HW2 9482   4.324   1.192   1.762
 3086SOL     OW 9483   4.059   1.435   1.061
 3086SOL    HW1 9484   3.981   1.404   1.008
 3086SOL    HW2 9485   4.117   1.493   1.004
 3087SOL     OW 9486   4.162   0.392   1.499
 3087SOL    HW1 9487   4.244   0.336   1.508
 3087SOL    HW2 9488   4.081   0.334   1.503
 3088SOL     OW 9489   3.955   1.713   0.483
 3088SOL    HW1 9490   3.989   1.790   0.537
 3088SOL    HW2 9491   3.999   1.713   0.393
 3089SOL     OW 9492   4.851   1.341   1.690
 3089SOL    HW1 9493   4.898   1.341   1.778
 3089SOL    HW2 9494   4.803   1.254   1.679
 3090SOL     OW 9495   3.954   1.434   0.538
 3090SOL    HW1 9496   3.928   1.530   0.538
 3090SOL    HW2 9497   3.883   1.380   0.583
 3091SOL     OW 9498   3.964   1.091   0.886
 3091SOL    HW1 9499   3.978   1.007   0.938
 3091SOL    HW2 9500   3.909   1.155   0.941
 3092SOL     OW 9501   4.344   1.786   1.439
 3092SOL    HW1 9502   4.252   1.769   1.474
 3092SOL    HW2 9503   4.372   1.878   1.465
 3093SOL     OW 9504   4.330   0.964   0.123
 3093SOL    HW1 9505   4.337   1.048   0.069
 3093SOL    HW2 9506   4.376   0.977   0.211
 3094SOL     OW 9507   3.846   0.643   0.563
 3094SOL    HW1 9508   3.801   0.555   0.580
 3094SOL    HW2 9509   3.845   0.697   0.647
 3095SOL     OW 9510   3.751   1.596   0.117
 3095SOL    HW1 9511   3.732   1.500   0.138
 3095SOL    HW2 9512   3.718   1.654   0.192
 3096SOL     OW 9513   3.837   0.737   1.597
 3096SOL    HW1 9514   3.925   0.724   1.642
 3096SOL    HW2 9515   3.824   0.834   1.575
 3097SOL     OW 9516   4.337   1.365   0.726
 3097SOL    HW1 9517   4.288   1.278   0.735
 3097SOL    HW2 9518   4.314   1.408   0.639
 3098SOL     OW 9519   5.017   1.228   1.423
 3098SOL    HW1 9520   5.054   1.155   1.365
 3098SOL    HW2 9521   5.069   1.233   1.508
 3099SOL     OW 9522   4.533   0.004   0.502
 3099SOL    HW1 9523   4.573   0.095   0.493
 3099SOL    HW2 9524   4.433   0.012   0.508
 3100SOL     OW 9525   3.921   0.976   1.264
 3100SOL    HW1 9526   4.010   0.931   1.250
 3100SOL    HW2 9527   3.848   0.911   1.245
 3101SOL     OW 9528   4.911   1.792   1.616
 3101SOL    HW1 9529   4.935   1.852   1.540
 3101SOL    HW2 9530   4.918   1.697   1.586
 3102SOL     OW 9531   4.041   0.251   1.801
 3102SOL    HW1 9532   4.112   0.322   1.807
 3102SOL    HW2 9533   3.953   0.290   1.829
 3103SOL     OW 9534   4.322   0.729   0.270
 3103SOL    HW1 9535   4.346   0.798   0.202
 3103SOL    HW2 9536   4.244   0.762   0.324
 3104SOL     OW 9537   5.005   0.345   0.944
 3104SOL    HW1 9538   4.919   0.295   0.931
 3104SOL    HW2 9539   5.067   0.291   1.000
 3105SOL     OW 9540   4.531   0.605   1.465
 3105SOL    HW1 9541   4.484   0.602   1.554
 3105SOL    HW2 9542   4.480   0.550   1.399
 3106SOL     OW 9543   4.697   0.890   1.572
 3106SOL    HW1 9544   4.743   0.806   1.543
 3106SOL    HW2 9545   4.641   0.924   1.497
 3107SOL     OW 9546   4.715   0.410   1.242
 3107SOL    HW1 9547   4.638   0.444   1.296
 3107SOL    HW2 9548   4.681   0.359   1.163
 3108SOL     OW 9549   4.765   0.701   0.429
 3108SOL    HW1 9550   4.791   0.697   0.525
 3108SOL    HW2 9551   4.680   0.650   0.415
 3109SOL     OW 9552   3.800   0.811   0.789
 3109SOL    HW1 9553   3.899   0.799   0.798
 3109SOL    HW2 9554   3.776   0.906   0.810
 3110SOL     OW 9555   3.854   1.821   1.571
 3110SOL    HW1 9556   3.844   1.806   1.670
 3110SOL    HW2 9557   3.768   1.857   1.535
 3111SOL     OW 9558   4.589   0.348   0.195
 3111SOL    HW1 9559   4.648   0.411   0.146
 3111SOL    HW2 9560   4.608   0.254   0.166
 3112SOL     OW 9561   4.274   0.196   0.885
 3112SOL    HW1 9562   4.269   0.191   0.985
 3112SOL    HW2 9563   4.276   0.292   0.856
 3113SOL     OW 9564   4.732   1.456   0.477
 3113SOL    HW1 9565   4.686   1.528   0.425
 3113SOL    HW2 9566   4.728   1.476   0.575
 3114SOL     OW 9567   4.075   1.801   0.853
 3114SOL    HW1 9568   4.125   1.715   0.859
 3114SOL    HW2 9569   4.140   1.878   0.850
 3115SOL     OW 9570   4.951   1.550   1.506
 3115SOL    HW1 9571   4.957   1.473   1.570
 3115SOL    HW2 9572   4.899   1.524   1.426
 3116SOL     OW 9573   4.045   0.943   0.242
 3116SOL    HW1 9574   4.127   0.982   0.200
 3116SOL    HW2 9575   4.018   0.861   0.193
 3117SOL     OW 9576   4.185   1.266   1.727
 3117SOL    HW1 9577   4.135   1.267   1.641
 3117SOL    HW2 9578   4.122   1.248   1.803
 3118SOL     OW 9579   4.835   1.776   0.237
 3118SOL    HW1 9580   4.775   1.714   0.287
 3118SOL    HW2 9581   4.866   1.732   0.152
 3119SOL     OW 9582   3.926   0.285   1.498
 3119SOL    HW1 9583   3.846   0.345   1.485
 3119SOL    HW2 9584   3.916   0.236   1.584
 3120SOL     OW 9585   5.356   1.377   0.081
 3120SOL    HW1 9586   5.324   1.471   0.071
 3120SOL    HW2 9587   5.280   1.314   0.069
 3121SOL     OW 9588   4.188   1.743   0.323
 3121SOL    HW1 9589   4.221   1.782   0.409
 3121SOL    HW2 9590   4.264   1.736   0.258
 3122SOL     OW 9591   3.973   1.785   1.241
 3122SOL    HW1 9592   4.030   1.720   1.291
 3122SOL    HW2 9593   3.957   1.752   1.148
 3123SOL     OW 9594   4.664   1.698   0.904
 3123SOL    HW1 9595   4.744   1.641   0.925
 3123SOL    HW2 9596   4.615   1.658   0.827
 3124SOL     OW 9597   4.106   0.700   0.480
 3124SOL    HW1 9598   4.151   0.610   0.477
 3124SOL    HW2 9599   4.012   0.689   0.513
 3125SOL     OW 9600   4.505   0.264   1.749
 3125SOL    HW1 9601   4.572   0.203   1.792
 3125SOL    HW2 9602   4.432   0.283   1.814
 3126SOL     OW 9603   4.612   1.514   1.195
 3126SOL    HW1 9604   4.589   1.489   1.101
 3126SOL    HW2 9605   4.673   1.445   1.234
 3127SOL     OW 9606   4.527   1.402   0.924
 3127SOL    HW1 9607   4.617   1.416   0.882
 3127SOL    HW2 9608   4.456   1.404   0.853
 3128SOL     OW 9609   4.646   0.503   0.899
 3128SOL    HW1 9610   4.621   0.494   0.803
 3128SOL    HW2 9611   4.694   0.421   0.930
 3129SOL     OW 9612   4.263   0.064   0.512
 3129SOL    HW1 9613   4.182   0.065   0.570
 3129SOL    HW2 9614   4.266   0.147   0.457
 3130SOL     OW 9615   4.021   0.035   0.171
 3130SOL    HW1 9616   4.070   0.119   0.150
 3130SOL    HW2 9617   4.083  -0.030   0.216
 3131SOL     OW 9618   4.659   0.236   0.480
 3131SOL    HW1 9619   4.611   0.277   0.402
 3131SOL    HW2 9620   4.758   0.234   0.461
 3132SOL     OW 9621   4.800   0.683   1.464
 3132SOL    HW1 9622   4.720   0.622   1.467
 3132SOL    HW2 9623   4.881   0.630   1.440
 3133SOL     OW 9624   4.951   1.570   0.793
 3133SOL    HW1 9625   4.972   1.644   0.728
 3133SOL    HW2 9626   5.019   1.570   0.866
 3134SOL     OW 9627   4.183   1.152   0.741
 3134SOL    HW1 9628   4.112   1.125   0.806
 3134SOL    HW2 9629   4.157   1.124   0.648
 3135SOL     OW 9630   4.995   1.797   0.591
 3135SOL    HW1 9631   5.039   1.861   0.527
 3135SOL    HW2 9632   4.945   1.849   0.661
 3136SOL     OW 9633   4.756   0.549   0.016
 3136SOL    HW1 9634   4.715   0.631  -0.023
 3136SOL    HW2 9635   4.820   0.575   0.089
 3137SOL     OW 9636   3.802   0.556   1.386
 3137SOL    HW1 9637   3.894   0.555   1.345
 3137SOL    HW2 9638   3.796   0.630   1.453
 3138SOL     OW 9639   4.285   0.222   1.147
 3138SOL    HW1 9640   4.323   0.138   1.184
 3138SOL    HW2 9641   4.197   0.241   1.191
 3139SOL     OW 9642   4.590   0.454   0.642
 3139SOL    HW1 9643   4.558   0.526   0.580
 3139SOL    HW2 9644   4.614   0.373   0.589
 3140SOL     OW 9645   4.741   0.039   0.753
 3140SOL    HW1 9646   4.669   0.044   0.684
 3140SOL    HW2 9647   4.717  -0.030   0.822
 3141SOL     OW 9648   4.212   1.385   0.174
 3141SOL    HW1 9649   4.125   1.370   0.221
 3141SOL    HW2 9650   4.195   1.411   0.079
 3142SOL     OW 9651   5.388   1.280   0.657
 3142SOL    HW1 9652   5.487   1.288   0.671
 3142SOL    HW2 9653   5.343   1.364   0.688
 3143SOL     OW 9654   4.251   0.256   0.328
 3143SOL    HW1 9655   4.278   0.197   0.253
 3143SOL    HW2 9656   4.251   0.351   0.297
 3144SOL     OW 9657   4.788   1.347   1.340
 3144SOL    HW1 9658   4.708   1.324   1.395
 3144SOL    HW2 9659   4.871   1.321   1.389
 3145SOL     OW 9660   4.835   1.195   1.100
 3145SOL    HW1 9661   4.795   1.239   1.181
 3145SOL    HW2 9662   4.794   1.232   1.017
 3146SOL     OW 9663   4.639   0.089   1.402
 3146SOL    HW1 9664   4.664   0.069   1.307
 3146SOL    HW2 9665   4.711   0.145   1.444
 3147SOL     OW 9666   4.704   1.116   1.719
 3147SOL    HW1 9667   4.605   1.122   1.729
 3147SOL    HW2 9668   4.727   1.036   1.663
 3148SOL     OW 9669   4.429   1.050   0.368
 3148SOL    HW1 9670   4.415   1.057   0.467
 3148SOL    HW2 9671   4.513   0.999   0.350
 3149SOL     OW 9672   4.134   0.813   1.251
 3149SOL    HW1 9673   4.220   0.825   1.301
 3149SOL    HW2 9674   4.092   0.726   1.278
 3150SOL     OW 9675   4.998   0.386   1.262
 3150SOL    HW1 9676   5.019   0.460   1.326
 3150SOL    HW2 9677   4.909   0.403   1.219
 3151SOL     OW 9678   3.788   1.564   1.331
 3151SOL    HW1 9679   3.742   1.646   1.297
 3151SOL    HW2 9680   3.886   1.583   1.340
 3152SOL     OW 9681   4.091   1.100   0.501
 3152SOL    HW1 9682   4.084   1.183   0.445
 3152SOL    HW2 9683   4.095   1.020   0.441
 3153SOL     OW 9684   4.290   0.537   0.865
 3153SOL    HW1 9685   4.302   0.603   0.791
 3153SOL    HW2 9686   4.336   0.571   0.948
 3154SOL     OW 9687   4.976   1.348   0.388
 3154SOL    HW1 9688   5.026   1.425   0.428
 3154SOL    HW2 9689   4.881   1.350   0.420
 3155SOL     OW 9690   4.078   1.510   1.329
 3155SOL    HW1 9691   4.057   1.466   1.242
 3155SOL    HW2 9692   4.175   1.536   1.332
 3156SOL     OW 9693   4.126   0.751   1.598
 3156SOL    HW1 9694   4.194   0.806   1.551
 3156SOL    HW2 9695   4.166   0.663   1.625
 3157SOL     OW 9696   4.737   0.105   1.770
 3157SOL    HW1 9697   4.743   0.190   1.718
 3157SOL    HW2 9698   4.769   0.029   1.713
 3158SOL     OW 9699   4.228   0.050   1.740
 3158SOL    HW1 9700   4.186  -0.007   1.670
 3158SOL    HW2 9701   4.162   0.119   1.772
 3159SOL     OW 9702   4.297   0.870   1.029
 3159SOL    HW1 9703   4.341   0.959   1.020
 3159SOL    HW2 9704   4.234   0.870   1.106
 3160SOL     OW 9705   5.084   0.862   1.045
 3160SOL    HW1 9706   5.009   0.862   0.979
 3160SOL    HW2 9707   5.121   0.770   1.054
 3161SOL     OW 9708   4.933   0.525   0.275
 3161SOL    HW1 9709   4.946   0.441   0.329
 3161SOL    HW2 9710   4.904   0.599   0.335
 3162SOL     OW 9711   4.031   0.213   1.231
 3162SOL    HW1 9712   4.008   0.250   1.321
 3162SOL    HW2 9713   4.001   0.118   1.225
 3163SOL     OW 9714   3.761   1.310   1.282
 3163SOL    HW1 9715   3.814   1.261   1.350
 3163SOL    HW2 9716   3.783   1.408   1.287
 3164SOL     OW 9717   4.456   0.634   1.064
 3164SOL    HW1 9718   4.515   0.608   0.988
 3164SOL    HW2 9719   4.428   0.730   1.053
 3165SOL     OW 9720   4.031   0.063   0.618
 3165SOL    HW1 9721   4.020   0.157   0.651
 3165SOL    HW2 9722   4.026   0.000   0.695
 3166SOL     OW 9723   5.346   0.367   0.374
 3166SOL    HW1 9724   5.348   0.291   0.438
 3166SOL    HW2 9725   5.298   0.444   0.414
 3167SOL     OW 9726   4.747   0.766   0.966
 3167SOL    HW1 9727   4.762   0.787   1.062
 3167SOL    HW2 9728   4.717   0.671   0.957
 3168SOL     OW 9729   4.704   1.573   1.700
 3168SOL    HW1 9730   4.684   1.617   1.612
 3168SOL    HW2 9731   4.743   1.482   1.684
 3169SOL     OW 9732   4.074   0.898   1.804
 3169SOL    HW1 9733   4.150   0.942   1.852
 3169SOL    HW2 9734   4.109   0.851   1.722
 3170SOL     OW 9735   5.027   0.838   0.042
 3170SOL    HW1 9736   5.061   0.745   0.057
 3170SOL    HW2 9737   5.045   0.865  -0.053
 3171SOL     OW 9738   4.792   1.333   0.849
 3171SOL    HW1 9739   4.799   1.249   0.794
 3171SOL    HW2 9740   4.854   1.402   0.813
 3172SOL     OW 9741   4.043   0.810   0.949
 3172SOL    HW1 9742   4.136   0.846   0.954
 3172SOL    HW2 9743   4.037   0.725   1.001
 3173SOL     OW 9744   4.063   0.509   1.006
 3173SOL    HW1 9745   4.011   0.426   0.989
 3173SOL    HW2 9746   4.140   0.514   0.942
 3174SOL     OW 9747   4.862   0.380   1.678
 3174SOL    HW1 9748   4.817   0.443   1.742
 3174SOL    HW2 9749   4.955   0.411   1.661
 3175SOL     OW 9750   4.884   0.207   1.477
 3175SOL    HW1 9751   4.884   0.271   1.554
 3175SOL    HW2 9752   4.912   0.255   1.394
 3176SOL     OW 9753   3.812   1.801   0.927
 3176SOL    HW1 9754   3.770   1.715   0.900
 3176SOL    HW2 9755   3.906   1.804   0.893
 3177SOL     OW 9756   4.228   1.568   0.910
 3177SOL    HW1 9757   4.294   1.642   0.919
 3177SOL    HW2 9758   4.272   1.489   0.868
 3178SOL     OW 9759   4.726   0.796   1.238
 3178SOL    HW1 9760   4.767   0.764   1.324
 3178SOL    HW2 9761   4.630   0.769   1.235
 3179SOL     OW 9762   3.764   0.544   1.114
 3179SOL    HW1 9763   3.849   0.511   1.073
 3179SOL    HW2 9764   3.777   0.559   1.212
 3180SOL     OW 9765   3.913   0.520   1.722
 3180SOL    HW1 9766   3.972   0.480   1.652
 3180SOL    HW2 9767   3.855   0.591   1.681
 3181SOL     OW 9768   4.539   0.572   0.325
 3181SOL    HW1 9769   4.546   0.483   0.279
 3181SOL    HW2 9770   4.445   0.606   0.317
 3182SOL     OW 9771   3.976   1.564   1.744
 3182SOL    HW1 9772   3.946   1.621   1.820
 3182SOL    HW2 9773   3.969   1.467   1.770
 3183SOL     OW 9774   4.395   0.464   1.269
 3183SOL    HW1 9775   4.361   0.375   1.239
 3183SOL    HW2 9776   4.421   0.518   1.189
 3184SOL     OW 9777   4.654   1.678   1.465
 3184SOL    HW1 9778   4.630   1.660   1.370
 3184SOL    HW2 9779   4.684   1.772   1.475
 3185SOL     OW 9780   4.197   0.500   0.191
 3185SOL    HW1 9781   4.258   0.580   0.195
 3185SOL    HW2 9782   4.102   0.531   0.198
 3186SOL     OW 9783   3.883   1.137   1.466
 3186SOL    HW1 9784   3.905   1.076   1.542
 3186SOL    HW2 9785   3.893   1.088   1.380
 3187SOL     OW 9786   5.071   1.059   1.234
 3187SOL    HW1 9787   5.095   0.996   1.160
 3187SOL    HW2 9788   4.981   1.099   1.216
 3188SOL     OW 9789   4.976   1.731   1.128
 3188SOL    HW1 9790   5.060   1.736   1.074
 3188SOL    HW2 9791   4.953   1.635   1.146
 3189SOL     OW 9792   3.807   1.258   1.022
 3189SOL    HW1 9793   3.802   1.257   1.122
 3189SOL    HW2 9794   3.724   1.217   0.984
 3190SOL     OW 9795   4.412   1.662   1.716
 3190SOL    HW1 9796   4.356   1.743   1.725
 3190SOL    HW2 9797   4.464   1.666   1.630
 3191SOL     OW 9798   4.627   0.086   0.133
 3191SOL    HW1 9799   4.678   0.087   0.047
 3191SOL    HW2 9800   4.683   0.044   0.204
 3192SOL     OW 9801   5.112   1.573   0.477
 3192SOL    HW1 9802   5.179   1.585   0.403
 3192SOL    HW2 9803   5.072   1.662   0.500
 3193SOL     OW 9804   3.854   1.794   1.851
 3193SOL    HW1 9805   3.813   1.720   1.904
 3193SOL    HW2 9806   3.918   1.845   1.909
 3194SOL     OW 9807   5.004   0.927   0.672
 3194SOL    HW1 9808   5.064   0.846   0.674
 3194SOL    HW2 9809   5.044   0.996   0.612
 3195SOL     OW 9810   4.554   1.273   1.422
 3195SOL    HW1 9811   4.549   1.306   1.517
 3195SOL    HW2 9812   4.468   1.292   1.376
 3196SOL     OW 9813   4.396   1.616   0.154
 3196SOL    HW1 9814   4.405   1.626   0.055
 3196SOL    HW2 9815   4.356   1.527   0.175
 3197SOL     OW 9816   3.987   0.326   0.720
 3197SOL    HW1 9817   3.908   0.377   0.686
 3197SOL    HW2 9818   3.978   0.311   0.818
 3198SOL     OW 9819   4.918   1.612   0.031
 3198SOL    HW1 9820   4.924   1.519   0.068
 3198SOL    HW2 9821   4.859   1.612  -0.049
 3199SOL     OW 9822   4.546   1.002   1.372
 3199SOL    HW1 9823   4.586   1.001   1.280
 3199SOL    HW2 9824   4.556   1.094   1.412
 3200SOL     OW 9825   4.640   0.910   0.291
 3200SOL    HW1 9826   4.703   0.948   0.223
 3200SOL    HW2 9827   4.680   0.827   0.330
 3201SOL     OW 9828   4.096   1.288   1.490
 3201SOL    HW1 9829   4.083   1.381   1.456
 3201SOL    HW2 9830   4.012   1.236   1.477
 3202SOL     OW 9831   4.763   1.098   0.696
 3202SOL    HW1 9832   4.693   1.051   0.750
 3202SOL    HW2 9833   4.822   1.030   0.653
 3203SOL     OW 9834   4.738   0.236   0.971
 3203SOL    HW1 9835   4.730   0.200   0.878
 3203SOL    HW2 9836   4.736   0.160   1.036
 3204SOL     OW 9837   4.314   1.487   0.491
 3204SOL    HW1 9838   4.356   1.429   0.421
 3204SOL    HW2 9839   4.270   1.566   0.447
 3205SOL     OW 9840   3.979   1.348   0.290
 3205SOL    HW1 9841   3.883   1.349   0.263
 3205SOL    HW2 9842   3.991   1.401   0.374
 3206SOL     OW 9843   3.829   1.013   1.726
 3206SOL    HW1 9844   3.752   0.980   1.780
 3206SOL    HW2 9845   3.914   0.983   1.768
 3207SOL     OW 9846   4.396   0.203   1.489
 3207SOL    HW1 9847   4.486   0.187   1.449
 3207SOL    HW2 9848   4.404   0.208   1.588
 3208SOL     OW 9849   5.164   0.856   1.398
 3208SOL    HW1 9850   5.107   0.908   1.335
 3208SOL    HW2 9851   5.260   0.868   1.374
 3209SOL     OW 9852   3.796   0.166   0.318
 3209SOL    HW1 9853   3.779   0.249   0.264
 3209SOL    HW2 9854   3.886   0.129   0.296
 3210SOL     OW 9855   4.337   0.842   1.431
 3210SOL    HW1 9856   4.393   0.923   1.414
 3210SOL    HW2 9857   4.396   0.762   1.434
 3211SOL     OW 9858   4.440   0.565   1.708
 3211SOL    HW1 9859   4.459   0.630   1.782
 3211SOL    HW2 9860   4.500   0.485   1.717
 3212SOL     OW 9861   4.114   1.741   1.560
 3212SOL    HW1 9862   4.023   1.782   1.558
 3212SOL    HW2 9863   4.107   1.647   1.592
 3213SOL     OW 9864   4.949   0.325   0.449
 3213SOL    HW1 9865   5.014   0.251   0.438
 3213SOL    HW2 9866   4.969   0.375   0.533
 3214SOL     OW 9867   4.318   0.745   0.652
 3214SOL    HW1 9868   4.368   0.830   0.633
 3214SOL    HW2 9869   4.230   0.747   0.604
 3215SOL     OW 9870   4.583   1.374   0.016
 3215SOL    HW1 9871   4.537   1.389   0.104
 3215SOL    HW2 9872   4.627   1.459  -0.014
 3216SOL     OW 9873   4.385   1.790   0.953
 3216SOL    HW1 9874   4.339   1.878   0.940
 3216SOL    HW2 9875   4.484   1.802   0.946
 3217SOL     OW 9876   4.583   0.956   0.861
 3217SOL    HW1 9877   4.637   0.887   0.909
 3217SOL    HW2 9878   4.551   1.025   0.927
 3218SOL     OW 9879   4.807   0.984   0.087
 3218SOL    HW1 9880   4.784   1.037   0.005
 3218SOL    HW2 9881   4.888   0.928   0.068
 3219SOL     OW 9882   3.945   1.314   1.844
 3219SOL    HW1 9883   3.880   1.241   1.823
 3219SOL    HW2 9884   3.949   1.328   1.942
 3220SOL     OW 9885   3.803   1.240   0.653
 3220SOL    HW1 9886   3.802   1.193   0.741
 3220SOL    HW2 9887   3.885   1.212   0.602
 3221SOL     OW 9888   4.396   1.391   1.624
 3221SOL    HW1 9889   4.318   1.341   1.662
 3221SOL    HW2 9890   4.393   1.486   1.655
 3222SOL     OW 9891   4.152   0.424   0.520
 3222SOL    HW1 9892   4.182   0.352   0.458
 3222SOL    HW2 9893   4.113   0.384   0.603
 3223SOL     OW 9894   4.041   0.547   1.280
 3223SOL    HW1 9895   4.079   0.488   1.352
 3223SOL    HW2 9896   4.081   0.521   1.192
 3224SOL     OW 9897   4.536   1.586   0.687
 3224SOL    HW1 9898   4.568   1.596   0.593
 3224SOL    HW2 9899   4.457   1.524   0.689
 3225SOL     OW 9900   4.725   0.034   1.154
 3225SOL    HW1 9901   4.662  -0.038   1.123
 3225SOL    HW2 9902   4.818  -0.002   1.154
 3226SOL     OW 9903   4.494   1.330   0.301
 3226SOL    HW1 9904   4.448   1.243   0.318
 3226SOL    HW2 9905   4.585   1.327   0.342
 3227SOL     OW 9906   4.342   1.567   1.284
 3227SOL    HW1 9907   4.337   1.649   1.341
 3227SOL    HW2 9908   4.431   1.564   1.239
 3228SOL     OW 9909   3.763   1.077   0.300
 3228SOL    HW1 9910   3.862   1.066   0.291
 3228SOL    HW2 9911   3.723   0.991   0.332
 3229SOL     OW 9912   4.599   1.646   0.337
 3229SOL    HW1 9913   4.522   1.611   0.283
 3229SOL    HW2 9914   4.567   1.717   0.399
 3230SOL     OW 9915   3.954   0.628   1.975
 3230SOL    HW1 9916   3.861   0.626   2.012
 3230SOL    HW2 9917   3.955   0.589   1.883
 3231SOL     OW 9918   3.949   0.275   2.858
 3231SOL    HW1 9919   3.984   0.258   2.950
 3231SOL    HW2 9920   3.861   0.230   2.846
 3232SOL     OW 9921   3.743   0.368   2.509
 3232SOL    HW1 9922   3.661   0.411   2.548
 3232SOL    HW2 9923   3.715   0.295   2.446
 3233SOL     OW 9924   4.293   1.275   3.027
 3233SOL    HW1 9925   4.200   1.268   2.990
 3233SOL    HW2 9926   4.304   1.364   3.071
 3234SOL     OW 9927   4.859   0.703   2.579
 3234SOL    HW1 9928   4.916   0.781   2.554
 3234SOL    HW2 9929   4.799   0.729   2.655
 3235SOL     OW 9930   4.492   1.144   2.885
 3235SOL    HW1 9931   4.414   1.161   2.945
 3235SOL    HW2 9932   4.526   1.231   2.849
 3236SOL     OW 9933   4.574   0.798   3.685
 3236SOL    HW1 9934   4.570   0.874   3.750
 3236SOL    HW2 9935   4.596   0.834   3.594
 3237SOL     OW 9936   4.409   1.012   2.527
 3237SOL    HW1 9937   4.478   0.996   2.597
 3237SOL    HW2 9938   4.336   1.069   2.565
 3238SOL     OW 9939   4.410   1.161   3.665
 3238SOL    HW1 9940   4.470   1.240   3.679
 3238SOL    HW2 9941   4.324   1.192   3.624
 3239SOL     OW 9942   4.059   1.435   2.923
 3239SOL    HW1 9943   3.981   1.404   2.870
 3239SOL    HW2 9944   4.117   1.493   2.866
 3240SOL     OW 9945   4.162   0.392   3.361
 3240SOL    HW1 9946   4.244   0.336   3.370
 3240SOL    HW2 9947   4.081   0.334   3.365
 3241SOL     OW 9948   3.955   1.713   2.345
 3241SOL    HW1 9949   3.989   1.790   2.399
 3241SOL    HW2 9950   3.999   1.713   2.255
 3242SOL     OW 9951   4.851   1.341   3.552
 3242SOL    HW1 9952   4.898   1.341   3.640
 3242SOL    HW2 9953   4.803   1.254   3.541
 3243SOL     OW 9954   3.954   1.434   2.400
 3243SOL    HW1 9955   3.928   1.530   2.400
 3243SOL    HW2 9956   3.883   1.380   2.445
 3244SOL     OW 9957   3.964   1.091   2.748
 3244SOL    HW1 9958   3.978   1.007   2.800
 3244SOL    HW2 9959   3.909   1.155   2.803
 3245SOL     OW 9960   4.344   1.786   3.301
 3245SOL    HW1 9961   4.252   1.769   3.336
 3245SOL    HW2 9962   4.372   1.878   3.327
 3246SOL     OW 9963   4.330   0.964   1.985
 3246SOL    HW1 9964   4.337   1.048   1.931
 3246SOL    HW2 9965   4.376   0.977   2.073
 3247SOL     OW 9966   3.846   0.643   2.425
 3247SOL    HW1 9967   3.801   0.555   2.442
 3247SOL    HW2 9968   3.845   0.697   2.509
 3248SOL     OW 9969   3.751   1.596   1.979
 3248SOL    HW1 9970   3.732   1.500   2.000
 3248SOL    HW2 9971   3.718   1.654   2.054
 3249SOL     OW 9972   4.337   1.365   2.588
 3249SOL    HW1 9973   4.288   1.278   2.597
 3249SOL    HW2 9974   4.314   1.408   2.501
 3250SOL     OW 9975   5.017   1.228   3.285
 3250SOL    HW1 9976   5.054   1.155   3.227
 3250SOL    HW2 9977   5.069   1.233   3.370
 3251SOL     OW 9978   4.533   0.004   2.364
 3251SOL    HW1 9979   4.573   0.095   2.355
 3251SOL    HW2 9980   4.433   0.012   2.370
 3252SOL     OW 9981   4.911   1.792   3.478
 3252SOL    HW1 9982   4.935   1.852   3.402
 3252SOL    HW2 9983   4.918   1.697   3.448
 3253SOL     OW 9984   4.041   0.251   3.663
 3253SOL    HW1 9985   4.112   0.322   3.669
 3253SOL    HW2 9986   3.953   0.290   3.691
 3254SOL     OW 9987   4.322   0.729   2.132
 3254SOL    HW1 9988   4.346   0.798   2.064
 3254SOL    HW2 9989   4.244   0.762   2.186
 3255SOL     OW 9990   5.005   0.345   2.806
 3255SOL    HW1 9991   4.919   0.295   2.793
 3255SOL    HW2 9992   5.067   0.291   2.862
 3256SOL     OW 9993   4.531   0.605   3.327
 3256SOL    HW1 9994   4.484   0.602   3.416
 3256SOL    HW2 9995   4.480   0.550   3.261
 3257SOL     OW 9996   4.697   0.890   3.434
 3257SOL    HW1 9997   4.743   0.806   3.405
 3257SOL    HW2 9998   4.641   0.924   3.359
 3258SOL     OW 9999   4.715   0.410   3.104
 3258SOL    HW110000   4.638   0.444   3.158
 3258SOL    HW210001   4.681   0.359   3.025
 3259SOL     OW10002   4.765   0.701   2.291
 3259SOL    HW110003   4.791   0.697   2.387
 3259SOL    HW210004   4.680   0.650   2.277
 3260SOL     OW10005   3.800   0.811   2.651
 3260SOL    HW110006   3.899   0.799   2.660
 3260SOL    HW210007   3.776   0.906   2.672
 3261SOL     OW10008   3.854   1.821   3.433
 3261SOL    HW110009   3.844   1.806   3.532
 3261SOL    HW210010   3.768   1.857   3.397
 3262SOL     OW10011   4.589   0.348   2.057
 3262SOL    HW110012   4.648   0.411   2.008
 3262SOL    HW210013   4.608   0.254   2.028
 3263SOL     OW10014   4.274   0.196   2.747
 3263SOL    HW110015   4.269   0.191   2.847
 3263SOL    HW210016   4.276   0.292   2.718
 3264SOL     OW10017   4.732   1.456   2.339
 3264SOL    HW110018   4.686   1.528   2.287
 3264SOL    HW210019   4.728   1.476   2.437
 3265SOL     OW10020   4.075   1.801   2.715
 3265SOL    HW110021   4.125   1.715   2.721
 3265SOL    HW210022   4.140   1.878   2.712
 3266SOL     OW10023   4.951   1.550   3.368
 3266SOL    HW110024   4.957   1.473   3.432
 3266SOL    HW210025   4.899   1.524   3.288
 3267SOL     OW10026   4.045   0.943   2.104
 3267SOL    HW110027   4.127   0.982   2.062
 3267SOL    HW210028   4.018   0.861   2.055
 3268SOL     OW10029   4.185   1.266   3.589
 3268SOL    HW110030   4.135   1.267   3.503
 3268SOL    HW210031   4.122   1.248   3.665
 3269SOL     OW10032   4.835   1.776   2.099
 3269SOL    HW110033   4.775   1.714   2.149
 3269SOL    HW210034   4.866   1.732   2.014
 3270SOL     OW10035   3.926   0.285   3.360
 3270SOL    HW110036   3.846   0.345   3.347
 3270SOL    HW210037   3.916   0.236   3.446
 3271SOL     OW10038   4.188   1.743   2.185
 3271SOL    HW110039   4.221   1.782   2.271
 3271SOL    HW210040   4.264   1.736   2.120
 3272SOL     OW10041   3.973   1.785   3.103
 3272SOL    HW110042   4.030   1.720   3.153
 3272SOL    HW210043   3.957   1.752   3.010
 3273SOL     OW10044   4.664   1.698   2.766
 3273SOL    HW110045   4.744   1.641   2.787
 3273SOL    HW210046   4.615   1.658   2.689
 3274SOL     OW10047   4.106   0.700   2.342
 3274SOL    HW110048   4.151   0.610   2.339
 3274SOL    HW210049   4.012   0.689   2.375
 3275SOL     OW10050   4.338   0.122   1.979
 3275SOL    HW110051   4.436   0.100   1.986
 3275SOL    HW210052   4.307   0.105   1.886
 3276SOL     OW10053   4.505   0.264   3.611
 3276SOL    HW110054   4.572   0.203   3.654
 3276SOL    HW210055   4.432   0.283   3.676
 3277SOL     OW10056   4.612   1.514   3.057
 3277SOL    HW110057   4.589   1.489   2.963
 3277SOL    HW210058   4.673   1.445   3.096
 3278SOL     OW10059   4.527   1.402   2.786
 3278SOL    HW110060   4.617   1.416   2.744
 3278SOL    HW210061   4.456   1.404   2.715
 3279SOL     OW10062   4.646   0.503   2.761
 3279SOL    HW110063   4.621   0.494   2.665
 3279SOL    HW210064   4.694   0.421   2.792
 3280SOL     OW10065   4.263   0.064   2.374
 3280SOL    HW110066   4.182   0.065   2.432
 3280SOL    HW210067   4.266   0.147   2.319
 3281SOL     OW10068   4.021   0.035   2.033
 3281SOL    HW110069   4.070   0.119   2.012
 3281SOL    HW210070   4.083  -0.030   2.078
 3282SOL     OW10071   4.659   0.236   2.342
 3282SOL    HW110072   4.611   0.277   2.264
 3282SOL    HW210073   4.758   0.234   2.323
 3283SOL     OW10074   4.800   0.683   3.326
 3283SOL    HW110075   4.720   0.622   3.329
 3283SOL    HW210076   4.881   0.630   3.302
 3284SOL     OW10077   4.951   1.570   2.655
 3284SOL    HW110078   4.972   1.644   2.590
 3284SOL    HW210079   5.019   1.570   2.728
 3285SOL     OW10080   4.183   1.152   2.603
 3285SOL    HW110081   4.112   1.125   2.668
 3285SOL    HW210082   4.157   1.124   2.510
 3286SOL     OW10083   4.995   1.797   2.453
 3286SOL    HW110084   5.039   1.861   2.389
 3286SOL    HW210085   4.945   1.849   2.523
 3287SOL     OW10086   4.756   0.549   1.878
 3287SOL    HW110087   4.715   0.631   1.839
 3287SOL    HW210088   4.820   0.575   1.951
 3288SOL     OW10089   4.285   0.222   3.009
 3288SOL    HW110090   4.323   0.138   3.046
 3288SOL    HW210091   4.197   0.241   3.053
 3289SOL     OW10092   4.590   0.454   2.504
 3289SOL    HW110093   4.558   0.526   2.442
 3289SOL    HW210094   4.614   0.373   2.451
 3290SOL     OW10095   4.741   0.039   2.615
 3290SOL    HW110096   4.669   0.044   2.546
 3290SOL    HW210097   4.717  -0.030   2.684
 3291SOL     OW10098   4.212   1.385   2.036
 3291SOL    HW110099   4.125   1.370   2.083
 3291SOL    HW210100   4.195   1.411   1.941
 3292SOL     OW10101   5.388   1.280   2.519
 3292SOL    HW110102   5.487   1.288   2.533
 3292SOL    HW210103   5.343   1.364   2.550
 3293SOL     OW10104   4.251   0.256   2.190
 3293SOL    HW110105   4.278   0.197   2.115
 3293SOL    HW210106   4.251   0.351   2.159
 3294SOL     OW10107   4.788   1.347   3.202
 3294SOL    HW110108   4.708   1.324   3.257
 3294SOL    HW210109   4.871   1.321   3.251
 3295SOL     OW10110   4.835   1.195   2.962
 3295SOL    HW110111   4.795   1.239   3.043
 3295SOL    HW210112   4.794   1.232   2.879
 3296SOL     OW10113   4.639   0.089   3.264
 3296SOL    HW110114   4.664   0.069   3.169
 3296SOL    HW210115   4.711   0.145   3.306
 3297SOL     OW10116   4.704   1.116   3.581
 3297SOL    HW110117   4.605   1.122   3.591
 3297SOL    HW210118   4.727   1.036   3.525
 3298SOL     OW10119   4.429   1.050   2.230
 3298SOL    HW110120   4.415   1.057   2.329
 3298SOL    HW210121   4.513   0.999   2.212
 3299SOL     OW10122   4.134   0.813   3.113
 3299SOL    HW110123   4.220   0.825   3.163
 3299SOL    HW210124   4.092   0.726   3.140
 3300SOL     OW10125   4.998   0.386   3.124
 3300SOL    HW110126   5.019   0.460   3.188
 3300SOL    HW210127   4.909   0.403   3.081
 3301SOL     OW10128   3.788   1.564   3.193
 3301SOL    HW110129   3.742   1.646   3.159
 3301SOL    HW210130   3.886   1.583   3.202
 3302SOL     OW10131   4.091   1.100   2.363
 3302SOL    HW110132   4.084   1.183   2.307
 3302SOL    HW210133   4.095   1.020   2.303
 3303SOL     OW10134   4.290   0.537   2.727
 3303SOL    HW110135   4.302   0.603   2.653
 3303SOL    HW210136   4.336   0.571   2.810
 3304SOL     OW10137   4.976   1.348   2.250
 3304SOL    HW110138   5.026   1.425   2.290
 3304SOL    HW210139   4.881   1.350   2.282
 3305SOL     OW10140   4.078   1.510   3.191
 3305SOL    HW110141   4.057   1.466   3.104
 3305SOL    HW210142   4.175   1.536   3.194
 3306SOL     OW10143   4.126   0.751   3.460
 3306SOL    HW110144   4.194   0.806   3.413
 3306SOL    HW210145   4.166   0.663   3.487
 3307SOL     OW10146   4.737   0.105   3.632
 3307SOL    HW110147   4.743   0.190   3.580
 3307SOL    HW210148   4.769   0.029   3.575
 3308SOL     OW10149   4.228   0.050   3.602
 3308SOL    HW110150   4.186  -0.007   3.532
 3308SOL    HW210151   4.162   0.119   3.634
 3309SOL     OW10152   4.297   0.870   2.891
 3309SOL    HW110153   4.341   0.959   2.882
 3309SOL    HW210154   4.234   0.870   2.968
 3310SOL     OW10155   5.084   0.862   2.907
 3310SOL    HW110156   5.009   0.862   2.841
 3310SOL    HW210157   5.121   0.770   2.916
 3311SOL     OW10158   4.933   0.525   2.137
 3311SOL    HW110159   4.946   0.441   2.191
 3311SOL    HW210160   4.904   0.599   2.197
 3312SOL     OW10161   4.031   0.213   3.093
 3312SOL    HW110162   4.008   0.250   3.183
 3312SOL    HW210163   4.001   0.118   3.087
 3313SOL     OW10164   3.761   1.310   3.144
 3313SOL    HW110165   3.814   1.261   3.212
 3313SOL    HW210166   3.783   1.408   3.149
 3314SOL     OW10167   4.456   0.634   2.926
 3314SOL    HW110168   4.515   0.608   2.850
 3314SOL    HW210169   4.428   0.730   2.915
 3315SOL     OW10170   4.031   0.063   2.480
 3315SOL    HW110171   4.020   0.157   2.513
 3315SOL    HW210172   4.026   0.000   2.557
 3316SOL     OW10173   5.346   0.367   2.236
 3316SOL    HW110174   5.348   0.291   2.300
 3316SOL    HW210175   5.298   0.444   2.276
 3317SOL     OW10176   4.747   0.766   2.828
 3317SOL    HW110177   4.762   0.787   2.924
 3317SOL    HW210178   4.717   0.671   2.819
 3318SOL     OW10179   4.704   1.573   3.562
 3318SOL    HW110180   4.684   1.617   3.474
 3318SOL    HW210181   4.743   1.482   3.546
 3319SOL     OW10182   4.074   0.898   3.666
 3319SOL    HW110183   4.150   0.942   3.714
 3319SOL    HW210184   4.109   0.851   3.584
 3320SOL     OW10185   5.027   0.838   1.904
 3320SOL    HW110186   5.061   0.745   1.919
 3320SOL    HW210187   5.045   0.865   1.809
 3321SOL     OW10188   4.792   1.333   2.711
 3321SOL    HW110189   4.799   1.249   2.656
 3321SOL    HW210190   4.854   1.402   2.675
 3322SOL     OW10191   4.043   0.810   2.811
 3322SOL    HW110192   4.136   0.846   2.816
 3322SOL    HW210193   4.037   0.725   2.863
 3323SOL     OW10194   4.063   0.509   2.868
 3323SOL    HW110195   4.011   0.426   2.851
 3323SOL    HW210196   4.140   0.514   2.804
 3324SOL     OW10197   4.862   0.380   3.540
 3324SOL    HW110198   4.817   0.443   3.604
 3324SOL    HW210199   4.955   0.411   3.523
 3325SOL     OW10200   4.884   0.207   3.339
 3325SOL    HW110201   4.884   0.271   3.416
 3325SOL    HW210202   4.912   0.255   3.256
 3326SOL     OW10203   3.732   1.326   2.062
 3326SOL    HW110204   3.639   1.347   2.031
 3326SOL    HW210205   3.742   1.227   2.075
 3327SOL     OW10206   3.812   1.801   2.789
 3327SOL    HW110207   3.770   1.715   2.762
 3327SOL    HW210208   3.906   1.804   2.755
 3328SOL     OW10209   4.228   1.568   2.772
 3328SOL    HW110210   4.294   1.642   2.781
 3328SOL    HW210211   4.272   1.489   2.730
 3329SOL     OW10212   4.726   0.796   3.100
 3329SOL    HW110213   4.767   0.764   3.186
 3329SOL    HW210214   4.630   0.769   3.097
 3330SOL     OW10215   3.764   0.544   2.976
 3330SOL    HW110216   3.849   0.511   2.935
 3330SOL    HW210217   3.777   0.559   3.074
 3331SOL     OW10218   4.539   0.572   2.187
 3331SOL    HW110219   4.546   0.483   2.141
 3331SOL    HW210220   4.445   0.606   2.179
 3332SOL     OW10221   3.976   1.564   3.606
 3332SOL    HW110222   3.946   1.621   3.682
 3332SOL    HW210223   3.969   1.467   3.632
 3333SOL     OW10224   4.395   0.464   3.131
 3333SOL    HW110225   4.361   0.375   3.101
 3333SOL    HW210226   4.421   0.518   3.051
 3334SOL     OW10227   4.654   1.678   3.327
 3334SOL    HW110228   4.630   1.660   3.232
 3334SOL    HW210229   4.684   1.772   3.337
 3335SOL     OW10230   4.197   0.500   2.053
 3335SOL    HW110231   4.258   0.580   2.057
 3335SOL    HW210232   4.102   0.531   2.060
 3336SOL     OW10233   5.071   1.059   3.096
 3336SOL    HW110234   5.095   0.996   3.022
 3336SOL    HW210235   4.981   1.099   3.078
 3337SOL     OW10236   4.976   1.731   2.990
 3337SOL    HW110237   5.060   1.736   2.936
 3337SOL    HW210238   4.953   1.635   3.008
 3338SOL     OW10239   3.807   1.258   2.884
 3338SOL    HW110240   3.802   1.257   2.984
 3338SOL    HW210241   3.724   1.217   2.846
 3339SOL     OW10242   4.412   1.662   3.578
 3339SOL    HW110243   4.356   1.743   3.587
 3339SOL    HW210244   4.464   1.666   3.492
 3340SOL     OW10245   5.112   1.573   2.339
 3340SOL    HW110246   5.179   1.585   2.265
 3340SOL    HW210247   5.072   1.662   2.362
 3341SOL     OW10248   3.854   1.794   3.713
 3341SOL    HW110249   3.813   1.720   3.766
 3341SOL    HW210250   3.918   1.845   3.771
 3342SOL     OW10251   5.004   0.927   2.534
 3342SOL    HW110252   5.064   0.846   2.536
 3342SOL    HW210253   5.044   0.996   2.474
 3343SOL     OW10254   4.554   1.273   3.284
 3343SOL    HW110255   4.549   1.306   3.379
 3343SOL    HW210256   4.468   1.292   3.238
 3344SOL     OW10257   4.396   1.616   2.016
 3344SOL    HW110258   4.405   1.626   1.917
 3344SOL    HW210259   4.356   1.527   2.037
 3345SOL     OW10260   3.987   0.326   2.582
 3345SOL    HW110261   3.908   0.377   2.548
 3345SOL    HW210262   3.978   0.311   2.680
 3346SOL     OW10263   4.918   1.612   1.893
 3346SOL    HW110264   4.924   1.519   1.930
 3346SOL    HW210265   4.859   1.612   1.813
 3347SOL     OW10266   4.546   1.002   3.234
 3347SOL    HW110267   4.586   1.001   3.142
 3347SOL    HW210268   4.556   1.094   3.274
 3348SOL     OW10269   4.640   0.910   2.153
 3348SOL    HW110270   4.703   0.948   2.085
 3348SOL    HW210271   4.680   0.827   2.192
 3349SOL     OW10272   4.096   1.288   3.352
 3349SOL    HW110273   4.083   1.381   3.318
 3349SOL    HW210274   4.012   1.236   3.339
 3350SOL     OW10275   4.763   1.098   2.558
 3350SOL    HW110276   4.693   1.051   2.612
 3350SOL    HW210277   4.822   1.030   2.515
 3351SOL     OW10278   4.738   0.236   2.833
 3351SOL    HW110279   4.730   0.200   2.740
 3351SOL    HW210280   4.736   0.160   2.898
 3352SOL     OW10281   4.314   1.487   2.353
 3352SOL    HW110282   4.356   1.429   2.283
 3352SOL    HW210283   4.270   1.566   2.309
 3353SOL     OW10284   3.979   1.348   2.152
 3353SOL    HW110285   3.883   1.349   2.125
 3353SOL    HW210286   3.991   1.401   2.236
 3354SOL     OW10287   4.396   0.203   3.351
 3354SOL    HW110288   4.486   0.187   3.311
 3354SOL    HW210289   4.404   0.208   3.450
 3355SOL     OW10290   3.799   0.345   1.895
 3355SOL    HW110291   3.707   0.317   1.866
 3355SOL    HW210292   3.830   0.422   1.839
 3356SOL     OW10293   5.164   0.856   3.260
 3356SOL    HW110294   5.107   0.908   3.197
 3356SOL    HW210295   5.260   0.868   3.236
 3357SOL     OW10296   3.796   0.166   2.180
 3357SOL    HW110297   3.779   0.249   2.126
 3357SOL    HW210298   3.886   0.129   2.158
 3358SOL     OW10299   4.337   0.842   3.293
 3358SOL    HW110300   4.393   0.923   3.276
 3358SOL    HW210301   4.396   0.762   3.296
 3359SOL     OW10302   4.440   0.565   3.570
 3359SOL    HW110303   4.459   0.630   3.644
 3359SOL    HW210304   4.500   0.485   3.579
 3360SOL     OW10305   4.114   1.741   3.422
 3360SOL    HW110306   4.023   1.782   3.420
 3360SOL    HW210307   4.107   1.647   3.454
 3361SOL     OW10308   4.949   0.325   2.311
 3361SOL    HW110309   5.014   0.251   2.300
 3361SOL    HW210310   4.969   0.375   2.395
 3362SOL     OW10311   4.318   0.745   2.514
 3362SOL    HW110312   4.368   0.830   2.495
 3362SOL    HW210313   4.230   0.747   2.466
 3363SOL     OW10314   4.583   1.374   1.878
 3363SOL    HW110315   4.537   1.389   1.966
 3363SOL    HW210316   4.627   1.459   1.848
 3364SOL     OW10317   4.385   1.790   2.815
 3364SOL    HW110318   4.339   1.878   2.802
 3364SOL    HW210319   4.484   1.802   2.808
 3365SOL     OW10320   4.583   0.956   2.723
 3365SOL    HW110321   4.637   0.887   2.771
 3365SOL    HW210322   4.551   1.025   2.789
 3366SOL     OW10323   4.807   0.984   1.949
 3366SOL    HW110324   4.784   1.037   1.867
 3366SOL    HW210325   4.888   0.928   1.930
 3367SOL     OW10326   3.945   1.314   3.706
 3367SOL    HW110327   3.880   1.241   3.685
 3367SOL    HW210328   3.949   1.328   3.804
 3368SOL     OW10329   3.803   1.240   2.515
 3368SOL    HW110330   3.802   1.193   2.603
 3368SOL    HW210331   3.885   1.212   2.464
 3369SOL     OW10332   4.396   1.391   3.486
 3369SOL    HW110333   4.318   1.341   3.524
 3369SOL    HW210334   4.393   1.486   3.517
 3370SOL     OW10335   4.152   0.424   2.382
 3370SOL    HW110336   4.182   0.352   2.320
 3370SOL    HW210337   4.113   0.384   2.465
 3371SOL     OW10338   4.041   0.547   3.142
 3371SOL    HW110339   4.079   0.488   3.214
 3371SOL    HW210340   4.081   0.521   3.054
 3372SOL     OW10341   4.536   1.586   2.549
 3372SOL    HW110342   4.568   1.596   2.455
 3372SOL    HW210343   4.457   1.524   2.551
 3373SOL     OW10344   4.725   0.034   3.016
 3373SOL    HW110345   4.662  -0.038   2.985
 3373SOL    HW210346   4.818  -0.002   3.016
 3374SOL     OW10347   4.494   1.330   2.163
 3374SOL    HW110348   4.448   1.243   2.180
 3374SOL    HW210349   4.585   1.327   2.204
 3375SOL     OW10350   4.342   1.567   3.146
 3375SOL    HW110351   4.337   1.649   3.203
 3375SOL    HW210352   4.431   1.564   3.101
 3376SOL     OW10353   3.763   1.077   2.162
 3376SOL    HW110354   3.862   1.066   2.153
 3376SOL    HW210355   3.723   0.991   2.194
 3377SOL     OW10356   4.599   1.646   2.199
 3377SOL    HW110357   4.522   1.611   2.145
 3377SOL    HW210358   4.567   1.717   2.261
 3378SOL     OW10359   3.954   0.628   3.837
 3378SOL    HW110360   3.861   0.626   3.874
 3378SOL    HW210361   3.955   0.589   3.745
 3379SOL     OW10362   3.949   0.275   4.720
 3379SOL    HW110363   3.984   0.258   4.812
 3379SOL    HW210364   3.861   0.230   4.708
 3380SOL     OW10365   3.743   0.368   4.371
 3380SOL    HW110366   3.661   0.411   4.410
 3380SOL    HW210367   3.715   0.295   4.308
 3381SOL     OW10368   4.293   1.275   4.889
 3381SOL    HW110369   4.200   1.268   4.852
 3381SOL    HW210370   4.304   1.364   4.933
 3382SOL     OW10371   4.859   0.703   4.441
 3382SOL    HW110372   4.916   0.781   4.416
 3382SOL    HW210373   4.799   0.729   4.517
 3383SOL     OW10374   4.492   1.144   4.747
 3383SOL    HW110375   4.414   1.161   4.807
 3383SOL    HW210376   4.526   1.231   4.711
 3384SOL     OW10377   4.409   1.012   4.389
 3384SOL    HW110378   4.478   0.996   4.459
 3384SOL    HW210379   4.336   1.069   4.427
 3385SOL     OW10380   4.059   1.435   4.785
 3385SOL    HW110381   3.981   1.404   4.732
 3385SOL    HW210382   4.117   1.493   4.728
 3386SOL     OW10383   3.955   1.713   4.207
 3386SOL    HW110384   3.989   1.790   4.261
 3386SOL    HW210385   3.999   1.713   4.117
 3387SOL     OW10386   3.954   1.434   4.262
 3387SOL    HW110387   3.928   1.530   4.262
 3387SOL    HW210388   3.883   1.380   4.307
 3388SOL     OW10389   3.964   1.091   4.610
 3388SOL    HW110390   3.978   1.007   4.662
 3388SOL    HW210391   3.909   1.155   4.665
 3389SOL     OW10392   4.344   1.786   5.163
 3389SOL    HW110393   4.252   1.769   5.198
 3389SOL    HW210394   4.372   1.878   5.189
 3390SOL     OW10395   4.330   0.964   3.847
 3390SOL    HW110396   4.337   1.048   3.793
 3390SOL    HW210397   4.376   0.977   3.935
 3391SOL     OW10398   3.846   0.643   4.287
 3391SOL    HW110399   3.801   0.555   4.304
 3391SOL    HW210400   3.845   0.697   4.371
 3392SOL     OW10401   3.751   1.596   3.841
 3392SOL    HW110402   3.732   1.500   3.862
 3392SOL    HW210403   3.718   1.654   3.916
 3393SOL     OW10404   4.337   1.365   4.450
 3393SOL    HW110405   4.288   1.278   4.459
 3393SOL    HW210406   4.314   1.408   4.363
 3394SOL     OW10407   4.533   0.004   4.226
 3394SOL    HW110408   4.573   0.095   4.217
 3394SOL    HW210409   4.433   0.012   4.232
 3395SOL     OW10410   3.921   0.976   4.988
 3395SOL    HW110411   4.010   0.931   4.974
 3395SOL    HW210412   3.848   0.911   4.969
 3396SOL     OW10413   4.322   0.729   3.994
 3396SOL    HW110414   4.346   0.798   3.926
 3396SOL    HW210415   4.244   0.762   4.048
 3397SOL     OW10416   5.005   0.345   4.668
 3397SOL    HW110417   4.919   0.295   4.655
 3397SOL    HW210418   5.067   0.291   4.724
 3398SOL     OW10419   4.715   0.410   4.966
 3398SOL    HW110420   4.638   0.444   5.020
 3398SOL    HW210421   4.681   0.359   4.887
 3399SOL     OW10422   4.765   0.701   4.153
 3399SOL    HW110423   4.791   0.697   4.249
 3399SOL    HW210424   4.680   0.650   4.139
 3400SOL     OW10425   3.800   0.811   4.513
 3400SOL    HW110426   3.899   0.799   4.522
 3400SOL    HW210427   3.776   0.906   4.534
 3401SOL     OW10428   4.589   0.348   3.919
 3401SOL    HW110429   4.648   0.411   3.870
 3401SOL    HW210430   4.608   0.254   3.890
 3402SOL     OW10431   4.732   1.456   4.201
 3402SOL    HW110432   4.686   1.528   4.149
 3402SOL    HW210433   4.728   1.476   4.299
 3403SOL     OW10434   4.075   1.801   4.577
 3403SOL    HW110435   4.125   1.715   4.583
 3403SOL    HW210436   4.140   1.878   4.574
 3404SOL     OW10437   4.045   0.943   3.966
 3404SOL    HW110438   4.127   0.982   3.924
 3404SOL    HW210439   4.018   0.861   3.917
 3405SOL     OW10440   4.835   1.776   3.961
 3405SOL    HW110441   4.775   1.714   4.011
 3405SOL    HW210442   4.866   1.732   3.876
 3406SOL     OW10443   4.188   1.743   4.047
 3406SOL    HW110444   4.221   1.782   4.133
 3406SOL    HW210445   4.264   1.736   3.982
 3407SOL     OW10446   3.973   1.785   4.965
 3407SOL    HW110447   4.030   1.720   5.015
 3407SOL    HW210448   3.957   1.752   4.872
 3408SOL     OW10449   4.664   1.698   4.628
 3408SOL    HW110450   4.744   1.641   4.649
 3408SOL    HW210451   4.615   1.658   4.551
 3409SOL     OW10452   4.106   0.700   4.204
 3409SOL    HW110453   4.151   0.610   4.201
 3409SOL    HW210454   4.012   0.689   4.237
 3410SOL     OW10455   4.338   0.122   3.841
 3410SOL    HW110456   4.436   0.100   3.848
 3410SOL    HW210457   4.307   0.105   3.748
 3411SOL     OW10458   4.527   1.402   4.648
 3411SOL    HW110459   4.617   1.416   4.606
 3411SOL    HW210460   4.456   1.404   4.577
 3412SOL     OW10461   4.646   0.503   4.623
 3412SOL    HW110462   4.621   0.494   4.527
 3412SOL    HW210463   4.694   0.421   4.654
 3413SOL     OW10464   4.263   0.064   4.236
 3413SOL    HW110465   4.182   0.065   4.294
 3413SOL    HW210466   4.266   0.147   4.181
 3414SOL     OW10467   4.021   0.035   3.895
 3414SOL    HW110468   4.070   0.119   3.874
 3414SOL    HW210469   4.083  -0.030   3.940
 3415SOL     OW10470   4.659   0.236   4.204
 3415SOL    HW110471   4.611   0.277   4.126
 3415SOL    HW210472   4.758   0.234   4.185
 3416SOL     OW10473   4.951   1.570   4.517
 3416SOL    HW110474   4.972   1.644   4.452
 3416SOL    HW210475   5.019   1.570   4.590
 3417SOL     OW10476   4.183   1.152   4.465
 3417SOL    HW110477   4.112   1.125   4.530
 3417SOL    HW210478   4.157   1.124   4.372
 3418SOL     OW10479   4.995   1.797   4.315
 3418SOL    HW110480   5.039   1.861   4.251
 3418SOL    HW210481   4.945   1.849   4.385
 3419SOL     OW10482   4.756   0.549   3.740
 3419SOL    HW110483   4.715   0.631   3.701
 3419SOL    HW210484   4.820   0.575   3.813
 3420SOL     OW10485   4.590   0.454   4.366
 3420SOL    HW110486   4.558   0.526   4.304
 3420SOL    HW210487   4.614   0.373   4.313
 3421SOL     OW10488   4.741   0.039   4.477
 3421SOL    HW110489   4.669   0.044   4.408
 3421SOL    HW210490   4.717  -0.030   4.546
 3422SOL     OW10491   4.212   1.385   3.898
 3422SOL    HW110492   4.125   1.370   3.945
 3422SOL    HW210493   4.195   1.411   3.803
 3423SOL     OW10494   5.388   1.280   4.381
 3423SOL    HW110495   5.487   1.288   4.395
 3423SOL    HW210496   5.343   1.364   4.412
 3424SOL     OW10497   4.251   0.256   4.052
 3424SOL    HW110498   4.278   0.197   3.977
 3424SOL    HW210499   4.251   0.351   4.021
 3425SOL     OW10500   5.316   1.629   5.349
 3425SOL    HW110501   5.343   1.663   5.259
 3425SOL    HW210502   5.395   1.591   5.395
 3426SOL     OW10503   4.835   1.195   4.824
 3426SOL    HW110504   4.795   1.239   4.905
 3426SOL    HW210505   4.794   1.232   4.741
 3427SOL     OW10506   4.429   1.050   4.092
 3427SOL    HW110507   4.415   1.057   4.191
 3427SOL    HW210508   4.513   0.999   4.074
 3428SOL     OW10509   4.134   0.813   4.975
 3428SOL    HW110510   4.220   0.825   5.025
 3428SOL    HW210511   4.092   0.726   5.002
 3429SOL     OW10512   4.091   1.100   4.225
 3429SOL    HW110513   4.084   1.183   4.169
 3429SOL    HW210514   4.095   1.020   4.165
 3430SOL     OW10515   4.290   0.537   4.589
 3430SOL    HW110516   4.302   0.603   4.515
 3430SOL    HW210517   4.336   0.571   4.672
 3431SOL     OW10518   4.976   1.348   4.112
 3431SOL    HW110519   5.026   1.425   4.152
 3431SOL    HW210520   4.881   1.350   4.144
 3432SOL     OW10521   4.078   1.510   5.053
 3432SOL    HW110522   4.057   1.466   4.966
 3432SOL    HW210523   4.175   1.536   5.056
 3433SOL     OW10524   4.297   0.870   4.753
 3433SOL    HW110525   4.341   0.959   4.744
 3433SOL    HW210526   4.234   0.870   4.830
 3434SOL     OW10527   5.084   0.862   4.769
 3434SOL    HW110528   5.009   0.862   4.703
 3434SOL    HW210529   5.121   0.770   4.778
 3435SOL     OW10530   4.933   0.525   3.999
 3435SOL    HW110531   4.946   0.441   4.053
 3435SOL    HW210532   4.904   0.599   4.059
 3436SOL     OW10533   4.031   0.213   4.955
 3436SOL    HW110534   4.008   0.250   5.045
 3436SOL    HW210535   4.001   0.118   4.949
 3437SOL     OW10536   3.761   1.310   5.006
 3437SOL    HW110537   3.814   1.261   5.074
 3437SOL    HW210538   3.783   1.408   5.011
 3438SOL     OW10539   4.456   0.634   4.788
 3438SOL    HW110540   4.515   0.608   4.712
 3438SOL    HW210541   4.428   0.730   4.777
 3439SOL     OW10542   4.031   0.063   4.342
 3439SOL    HW110543   4.020   0.157   4.375
 3439SOL    HW210544   4.026   0.000   4.419
 3440SOL     OW10545   5.346   0.367   4.098
 3440SOL    HW110546   5.348   0.291   4.162
 3440SOL    HW210547   5.298   0.444   4.138
 3441SOL     OW10548   4.747   0.766   4.690
 3441SOL    HW110549   4.762   0.787   4.786
 3441SOL    HW210550   4.717   0.671   4.681
 3442SOL     OW10551   5.027   0.838   3.766
 3442SOL    HW110552   5.061   0.745   3.781
 3442SOL    HW210553   5.045   0.865   3.671
 3443SOL     OW10554   4.792   1.333   4.573
 3443SOL    HW110555   4.799   1.249   4.518
 3443SOL    HW210556   4.854   1.402   4.537
 3444SOL     OW10557   4.043   0.810   4.673
 3444SOL    HW110558   4.136   0.846   4.678
 3444SOL    HW210559   4.037   0.725   4.725
 3445SOL     OW10560   4.063   0.509   4.730
 3445SOL    HW110561   4.011   0.426   4.713
 3445SOL    HW210562   4.140   0.514   4.666
 3446SOL     OW10563   4.884   0.207   5.201
 3446SOL    HW110564   4.884   0.271   5.278
 3446SOL    HW210565   4.912   0.255   5.118
 3447SOL     OW10566   3.732   1.326   3.924
 3447SOL    HW110567   3.639   1.347   3.893
 3447SOL    HW210568   3.742   1.227   3.937
 3448SOL     OW10569   3.812   1.801   4.651
 3448SOL    HW110570   3.770   1.715   4.624
 3448SOL    HW210571   3.906   1.804   4.617
 3449SOL     OW10572   4.228   1.568   4.634
 3449SOL    HW110573   4.294   1.642   4.643
 3449SOL    HW210574   4.272   1.489   4.592
 3450SOL     OW10575   4.726   0.796   4.962
 3450SOL    HW110576   4.767   0.764   5.048
 3450SOL    HW210577   4.630   0.769   4.959
 3451SOL     OW10578   3.764   0.544   4.838
 3451SOL    HW110579   3.849   0.511   4.797
 3451SOL    HW210580   3.777   0.559   4.936
 3452SOL     OW10581   4.539   0.572   4.049
 3452SOL    HW110582   4.546   0.483   4.003
 3452SOL    HW210583   4.445   0.606   4.041
 3453SOL     OW10584   4.654   1.678   5.189
 3453SOL    HW110585   4.630   1.660   5.094
 3453SOL    HW210586   4.684   1.772   5.199
 3454SOL     OW10587   4.197   0.500   3.915
 3454SOL    HW110588   4.258   0.580   3.919
 3454SOL    HW210589   4.102   0.531   3.922
 3455SOL     OW10590   5.071   1.059   4.958
 3455SOL    HW110591   5.095   0.996   4.884
 3455SOL    HW210592   4.981   1.099   4.940
 3456SOL     OW10593   4.976   1.731   4.852
 3456SOL    HW110594   5.060   1.736   4.798
 3456SOL    HW210595   4.953   1.635   4.870
 3457SOL     OW10596   3.807   1.258   4.746
 3457SOL    HW110597   3.802   1.257   4.846
 3457SOL    HW210598   3.724   1.217   4.708
 3458SOL     OW10599   5.112   1.573   4.201
 3458SOL    HW110600   5.179   1.585   4.127
 3458SOL    HW210601   5.072   1.662   4.224
 3459SOL     OW10602   5.004   0.927   4.396
 3459SOL    HW110603   5.064   0.846   4.398
 3459SOL    HW210604   5.044   0.996   4.336
 3460SOL     OW10605   4.396   1.616   3.878
 3460SOL    HW110606   4.405   1.626   3.779
 3460SOL    HW210607   4.356   1.527   3.899
 3461SOL     OW10608   3.987   0.326   4.444
 3461SOL    HW110609   3.908   0.377   4.410
 3461SOL    HW210610   3.978   0.311   4.542
 3462SOL     OW10611   4.918   1.612   3.755
 3462SOL    HW110612   4.924   1.519   3.792
 3462SOL    HW210613   4.859   1.612   3.675
 3463SOL     OW10614   4.546   1.002   5.096
 3463SOL    HW110615   4.586   1.001   5.004
 3463SOL    HW210616   4.556   1.094   5.136
 3464SOL     OW10617   4.640   0.910   4.015
 3464SOL    HW110618   4.703   0.948   3.947
 3464SOL    HW210619   4.680   0.827   4.054
 3465SOL     OW10620   4.763   1.098   4.420
 3465SOL    HW110621   4.693   1.051   4.474
 3465SOL    HW210622   4.822   1.030   4.377
 3466SOL     OW10623   4.738   0.236   4.695
 3466SOL    HW110624   4.730   0.200   4.602
 3466SOL    HW210625   4.736   0.160   4.760
 3467SOL     OW10626   4.314   1.487   4.215
 3467SOL    HW110627   4.356   1.429   4.145
 3467SOL    HW210628   4.270   1.566   4.171
 3468SOL     OW10629   3.979   1.348   4.014
 3468SOL    HW110630   3.883   1.349   3.987
 3468SOL    HW210631   3.991   1.401   4.098
 3469SOL     OW10632   3.799   0.345   3.757
 3469SOL    HW110633   3.707   0.317   3.728
 3469SOL    HW210634   3.830   0.422   3.701
 3470SOL     OW10635   3.796   0.166   4.042
 3470SOL    HW110636   3.779   0.249   3.988
 3470SOL    HW210637   3.886   0.129   4.020
 3471SOL     OW10638   4.949   0.325   4.173
 3471SOL    HW110639   5.014   0.251   4.162
 3471SOL    HW210640   4.969   0.375   4.257
 3472SOL     OW10641   4.318   0.745   4.376
 3472SOL    HW110642   4.368   0.830   4.357
 3472SOL    HW210643   4.230   0.747   4.328
 3473SOL     OW10644   4.583   1.374   3.740
 3473SOL    HW110645   4.537   1.389   3.828
 3473SOL    HW210646   4.627   1.459   3.710
 3474SOL     OW10647   4.385   1.790   4.677
 3474SOL    HW110648   4.339   1.878   4.664
 3474SOL    HW210649   4.484   1.802   4.670
 3475SOL     OW10650   4.583   0.956   4.585
 3475SOL    HW110651   4.637   0.887   4.633
 3475SOL    HW210652   4.551   1.025   4.651
 3476SOL     OW10653   4.807   0.984   3.811
 3476SOL    HW110654   4.784   1.037   3.729
 3476SOL    HW210655   4.888   0.928   3.792
 3477SOL     OW10656   3.803   1.240   4.377
 3477SOL    HW110657   3.802   1.193   4.465
 3477SOL    HW210658   3.885   1.212   4.326
 3478SOL     OW10659   4.152   0.424   4.244
 3478SOL    HW110660   4.182   0.352   4.182
 3478SOL    HW210661   4.113   0.384   4.327
 3479SOL     OW10662   4.536   1.586   4.411
 3479SOL    HW110663   4.568   1.596   4.317
 3479SOL    HW210664   4.457   1.524   4.413
 3480SOL     OW10665   4.725   0.034   4.878
 3480SOL    HW110666   4.662  -0.038   4.847
 3480SOL    HW210667   4.818  -0.002   4.878
 3481SOL     OW10668   4.494   1.330   4.025
 3481SOL    HW110669   4.448   1.243   4.042
 3481SOL    HW210670   4.585   1.327   4.066
 3482SOL     OW10671   3.763   1.077   4.024
 3482SOL    HW110672   3.862   1.066   4.015
 3482SOL    HW210673   3.723   0.991   4.056
 3483SOL     OW10674   4.599   1.646   4.061
 3483SOL    HW110675   4.522   1.611   4.007
 3483SOL    HW210676   4.567   1.717   4.123
 3484SOL     OW10677   3.954   2.490   0.113
 3484SOL    HW110678   3.861   2.488   0.150
 3484SOL    HW210679   3.955   2.451   0.021
 3485SOL     OW10680   3.949   2.137   0.996
 3485SOL    HW110681   3.984   2.120   1.088
 3485SOL    HW210682   3.861   2.092   0.984
 3486SOL     OW10683   3.743   2.230   0.647
 3486SOL    HW110684   3.661   2.273   0.686
 3486SOL    HW210685   3.715   2.157   0.584
 3487SOL     OW10686   4.293   3.137   1.165
 3487SOL    HW110687   4.200   3.130   1.128
 3487SOL    HW210688   4.304   3.226   1.209
 3488SOL     OW10689   4.859   2.565   0.717
 3488SOL    HW110690   4.916   2.643   0.692
 3488SOL    HW210691   4.799   2.591   0.793
 3489SOL     OW10692   4.492   3.006   1.023
 3489SOL    HW110693   4.414   3.023   1.083
 3489SOL    HW210694   4.526   3.093   0.987
 3490SOL     OW10695   4.409   2.874   0.665
 3490SOL    HW110696   4.478   2.858   0.735
 3490SOL    HW210697   4.336   2.931   0.703
 3491SOL     OW10698   4.410   3.023   1.803
 3491SOL    HW110699   4.470   3.102   1.817
 3491SOL    HW210700   4.324   3.054   1.762
 3492SOL     OW10701   4.059   3.297   1.061
 3492SOL    HW110702   3.981   3.266   1.008
 3492SOL    HW210703   4.117   3.355   1.004
 3493SOL     OW10704   4.162   2.254   1.499
 3493SOL    HW110705   4.244   2.198   1.508
 3493SOL    HW210706   4.081   2.196   1.503
 3494SOL     OW10707   3.955   3.575   0.483
 3494SOL    HW110708   3.989   3.652   0.537
 3494SOL    HW210709   3.999   3.575   0.393
 3495SOL     OW10710   4.851   3.203   1.690
 3495SOL    HW110711   4.898   3.203   1.778
 3495SOL    HW210712   4.803   3.116   1.679
 3496SOL     OW10713   3.954   3.296   0.538
 3496SOL    HW110714   3.928   3.392   0.538
 3496SOL    HW210715   3.883   3.242   0.583
 3497SOL     OW10716   3.964   2.953   0.886
 3497SOL    HW110717   3.978   2.869   0.938
 3497SOL    HW210718   3.909   3.017   0.941
 3498SOL     OW10719   4.344   3.648   1.439
 3498SOL    HW110720   4.252   3.631   1.474
 3498SOL    HW210721   4.372   3.740   1.465
 3499SOL     OW10722   4.330   2.826   0.123
 3499SOL    HW110723   4.337   2.910   0.069
 3499SOL    HW210724   4.376   2.839   0.211
 3500SOL     OW10725   3.846   2.505   0.563
 3500SOL    HW110726   3.801   2.417   0.580
 3500SOL    HW210727   3.845   2.559   0.647
 3501SOL     OW10728   3.751   3.458   0.117
 3501SOL    HW110729   3.732   3.362   0.138
 3501SOL    HW210730   3.718   3.516   0.192
 3502SOL     OW10731   3.837   2.599   1.597
 3502SOL    HW110732   3.925   2.586   1.642
 3502SOL    HW210733   3.824   2.696   1.575
 3503SOL     OW10734   4.337   3.227   0.726
 3503SOL    HW110735   4.288   3.140   0.735
 3503SOL    HW210736   4.314   3.270   0.639
 3504SOL     OW10737   5.017   3.090   1.423
 3504SOL    HW110738   5.054   3.017   1.365
 3504SOL    HW210739   5.069   3.095   1.508
 3505SOL     OW10740   4.533   1.866   0.502
 3505SOL    HW110741   4.573   1.957   0.493
 3505SOL    HW210742   4.433   1.874   0.508
 3506SOL     OW10743   3.921   2.838   1.264
 3506SOL    HW110744   4.010   2.793   1.250
 3506SOL    HW210745   3.848   2.773   1.245
 3507SOL     OW10746   4.911   3.654   1.616
 3507SOL    HW110747   4.935   3.714   1.540
 3507SOL    HW210748   4.918   3.559   1.586
 3508SOL     OW10749   4.041   2.113   1.801
 3508SOL    HW110750   4.112   2.184   1.807
 3508SOL    HW210751   3.953   2.152   1.829
 3509SOL     OW10752   4.322   2.591   0.270
 3509SOL    HW110753   4.346   2.660   0.202
 3509SOL    HW210754   4.244   2.624   0.324
 3510SOL     OW10755   4.765   2.563   0.429
 3510SOL    HW110756   4.791   2.559   0.525
 3510SOL    HW210757   4.680   2.512   0.415
 3511SOL     OW10758   3.800   2.673   0.789
 3511SOL    HW110759   3.899   2.661   0.798
 3511SOL    HW210760   3.776   2.768   0.810
 3512SOL     OW10761   3.854   3.683   1.571
 3512SOL    HW110762   3.844   3.668   1.670
 3512SOL    HW210763   3.768   3.719   1.535
 3513SOL     OW10764   4.589   2.210   0.195
 3513SOL    HW110765   4.648   2.273   0.146
 3513SOL    HW210766   4.608   2.116   0.166
 3514SOL     OW10767   4.274   2.058   0.885
 3514SOL    HW110768   4.269   2.053   0.985
 3514SOL    HW210769   4.276   2.154   0.856
 3515SOL     OW10770   4.732   3.318   0.477
 3515SOL    HW110771   4.686   3.390   0.425
 3515SOL    HW210772   4.728   3.338   0.575
 3516SOL     OW10773   4.075   3.663   0.853
 3516SOL    HW110774   4.125   3.577   0.859
 3516SOL    HW210775   4.140   3.740   0.850
 3517SOL     OW10776   4.951   3.412   1.506
 3517SOL    HW110777   4.957   3.335   1.570
 3517SOL    HW210778   4.899   3.386   1.426
 3518SOL     OW10779   4.045   2.805   0.242
 3518SOL    HW110780   4.127   2.844   0.200
 3518SOL    HW210781   4.018   2.723   0.193
 3519SOL     OW10782   4.185   3.128   1.727
 3519SOL    HW110783   4.135   3.129   1.641
 3519SOL    HW210784   4.122   3.110   1.803
 3520SOL     OW10785   4.835   3.638   0.237
 3520SOL    HW110786   4.775   3.576   0.287
 3520SOL    HW210787   4.866   3.594   0.152
 3521SOL     OW10788   3.926   2.147   1.498
 3521SOL    HW110789   3.846   2.207   1.485
 3521SOL    HW210790   3.916   2.098   1.584
 3522SOL     OW10791   5.356   3.239   0.081
 3522SOL    HW110792   5.324   3.333   0.071
 3522SOL    HW210793   5.280   3.176   0.069
 3523SOL     OW10794   4.188   3.605   0.323
 3523SOL    HW110795   4.221   3.644   0.409
 3523SOL    HW210796   4.264   3.598   0.258
 3524SOL     OW10797   3.973   3.647   1.241
 3524SOL    HW110798   4.030   3.582   1.291
 3524SOL    HW210799   3.957   3.614   1.148
 3525SOL     OW10800   4.664   3.560   0.904
 3525SOL    HW110801   4.744   3.503   0.925
 3525SOL    HW210802   4.615   3.520   0.827
 3526SOL     OW10803   4.106   2.562   0.480
 3526SOL    HW110804   4.151   2.472   0.477
 3526SOL    HW210805   4.012   2.551   0.513
 3527SOL     OW10806   4.612   3.376   1.195
 3527SOL    HW110807   4.589   3.351   1.101
 3527SOL    HW210808   4.673   3.307   1.234
 3528SOL     OW10809   4.527   3.264   0.924
 3528SOL    HW110810   4.617   3.278   0.882
 3528SOL    HW210811   4.456   3.266   0.853
 3529SOL     OW10812   4.646   2.365   0.899
 3529SOL    HW110813   4.621   2.356   0.803
 3529SOL    HW210814   4.694   2.283   0.930
 3530SOL     OW10815   4.263   1.926   0.512
 3530SOL    HW110816   4.182   1.927   0.570
 3530SOL    HW210817   4.266   2.009   0.457
 3531SOL     OW10818   4.021   1.897   0.171
 3531SOL    HW110819   4.070   1.981   0.150
 3531SOL    HW210820   4.083   1.832   0.216
 3532SOL     OW10821   4.659   2.098   0.480
 3532SOL    HW110822   4.611   2.139   0.402
 3532SOL    HW210823   4.758   2.096   0.461
 3533SOL     OW10824   4.951   3.432   0.793
 3533SOL    HW110825   4.972   3.506   0.728
 3533SOL    HW210826   5.019   3.432   0.866
 3534SOL     OW10827   4.183   3.014   0.741
 3534SOL    HW110828   4.112   2.987   0.806
 3534SOL    HW210829   4.157   2.986   0.648
 3535SOL     OW10830   4.995   3.659   0.591
 3535SOL    HW110831   5.039   3.723   0.527
 3535SOL    HW210832   4.945   3.711   0.661
 3536SOL     OW10833   4.756   2.411   0.016
 3536SOL    HW110834   4.715   2.493  -0.023
 3536SOL    HW210835   4.820   2.437   0.089
 3537SOL     OW10836   3.802   2.418   1.386
 3537SOL    HW110837   3.894   2.417   1.345
 3537SOL    HW210838   3.796   2.492   1.453
 3538SOL     OW10839   4.285   2.084   1.147
 3538SOL    HW110840   4.323   2.000   1.184
 3538SOL    HW210841   4.197   2.103   1.191
 3539SOL     OW10842   4.590   2.316   0.642
 3539SOL    HW110843   4.558   2.388   0.580
 3539SOL    HW210844   4.614   2.235   0.589
 3540SOL     OW10845   4.741   1.901   0.753
 3540SOL    HW110846   4.669   1.906   0.684
 3540SOL    HW210847   4.717   1.832   0.822
 3541SOL     OW10848   4.212   3.247   0.174
 3541SOL    HW110849   4.125   3.232   0.221
 3541SOL    HW210850   4.195   3.273   0.079
 3542SOL     OW10851   5.388   3.142   0.657
 3542SOL    HW110852   5.487   3.150   0.671
 3542SOL    HW210853   5.343   3.226   0.688
 3543SOL     OW10854   4.251   2.118   0.328
 3543SOL    HW110855   4.278   2.059   0.253
 3543SOL    HW210856   4.251   2.213   0.297
 3544SOL     OW10857   4.788   3.209   1.340
 3544SOL    HW110858   4.708   3.186   1.395
 3544SOL    HW210859   4.871   3.183   1.389
 3545SOL     OW10860   4.835   3.057   1.100
 3545SOL    HW110861   4.795   3.101   1.181
 3545SOL    HW210862   4.794   3.094   1.017
 3546SOL     OW10863   4.639   1.951   1.402
 3546SOL    HW110864   4.664   1.931   1.307
 3546SOL    HW210865   4.711   2.007   1.444
 3547SOL     OW10866   4.704   2.978   1.719
 3547SOL    HW110867   4.605   2.984   1.729
 3547SOL    HW210868   4.727   2.898   1.663
 3548SOL     OW10869   4.429   2.912   0.368
 3548SOL    HW110870   4.415   2.919   0.467
 3548SOL    HW210871   4.513   2.861   0.350
 3549SOL     OW10872   4.134   2.675   1.251
 3549SOL    HW110873   4.220   2.687   1.301
 3549SOL    HW210874   4.092   2.588   1.278
 3550SOL     OW10875   3.788   3.426   1.331
 3550SOL    HW110876   3.742   3.508   1.297
 3550SOL    HW210877   3.886   3.445   1.340
 3551SOL     OW10878   4.091   2.962   0.501
 3551SOL    HW110879   4.084   3.045   0.445
 3551SOL    HW210880   4.095   2.882   0.441
 3552SOL     OW10881   4.290   2.399   0.865
 3552SOL    HW110882   4.302   2.465   0.791
 3552SOL    HW210883   4.336   2.433   0.948
 3553SOL     OW10884   4.976   3.210   0.388
 3553SOL    HW110885   5.026   3.287   0.428
 3553SOL    HW210886   4.881   3.212   0.420
 3554SOL     OW10887   4.078   3.372   1.329
 3554SOL    HW110888   4.057   3.328   1.242
 3554SOL    HW210889   4.175   3.398   1.332
 3555SOL     OW10890   4.126   2.613   1.598
 3555SOL    HW110891   4.194   2.668   1.551
 3555SOL    HW210892   4.166   2.525   1.625
 3556SOL     OW10893   4.228   1.912   1.740
 3556SOL    HW110894   4.186   1.855   1.670
 3556SOL    HW210895   4.162   1.981   1.772
 3557SOL     OW10896   4.297   2.732   1.029
 3557SOL    HW110897   4.341   2.821   1.020
 3557SOL    HW210898   4.234   2.732   1.106
 3558SOL     OW10899   5.084   2.724   1.045
 3558SOL    HW110900   5.009   2.724   0.979
 3558SOL    HW210901   5.121   2.632   1.054
 3559SOL     OW10902   4.933   2.387   0.275
 3559SOL    HW110903   4.946   2.303   0.329
 3559SOL    HW210904   4.904   2.461   0.335
 3560SOL     OW10905   4.031   2.075   1.231
 3560SOL    HW110906   4.008   2.112   1.321
 3560SOL    HW210907   4.001   1.980   1.225
 3561SOL     OW10908   3.761   3.172   1.282
 3561SOL    HW110909   3.814   3.123   1.350
 3561SOL    HW210910   3.783   3.270   1.287
 3562SOL     OW10911   4.456   2.496   1.064
 3562SOL    HW110912   4.515   2.470   0.988
 3562SOL    HW210913   4.428   2.592   1.053
 3563SOL     OW10914   4.031   1.925   0.618
 3563SOL    HW110915   4.020   2.019   0.651
 3563SOL    HW210916   4.026   1.862   0.695
 3564SOL     OW10917   5.346   2.229   0.374
 3564SOL    HW110918   5.348   2.153   0.438
 3564SOL    HW210919   5.298   2.306   0.414
 3565SOL     OW10920   4.747   2.628   0.966
 3565SOL    HW110921   4.762   2.649   1.062
 3565SOL    HW210922   4.717   2.533   0.957
 3566SOL     OW10923   4.704   3.435   1.700
 3566SOL    HW110924   4.684   3.479   1.612
 3566SOL    HW210925   4.743   3.344   1.684
 3567SOL     OW10926   4.074   2.760   1.804
 3567SOL    HW110927   4.150   2.804   1.852
 3567SOL    HW210928   4.109   2.713   1.722
 3568SOL     OW10929   5.027   2.700   0.042
 3568SOL    HW110930   5.061   2.607   0.057
 3568SOL    HW210931   5.045   2.727  -0.053
 3569SOL     OW10932   4.792   3.195   0.849
 3569SOL    HW110933   4.799   3.111   0.794
 3569SOL    HW210934   4.854   3.264   0.813
 3570SOL     OW10935   4.043   2.672   0.949
 3570SOL    HW110936   4.136   2.708   0.954
 3570SOL    HW210937   4.037   2.587   1.001
 3571SOL     OW10938   4.063   2.371   1.006
 3571SOL    HW110939   4.011   2.288   0.989
 3571SOL    HW210940   4.140   2.376   0.942
 3572SOL     OW10941   4.862   2.242   1.678
 3572SOL    HW110942   4.817   2.305   1.742
 3572SOL    HW210943   4.955   2.273   1.661
 3573SOL     OW10944   3.812   3.663   0.927
 3573SOL    HW110945   3.770   3.577   0.900
 3573SOL    HW210946   3.906   3.666   0.893
 3574SOL     OW10947   4.228   3.430   0.910
 3574SOL    HW110948   4.294   3.504   0.919
 3574SOL    HW210949   4.272   3.351   0.868
 3575SOL     OW10950   3.764   2.406   1.114
 3575SOL    HW110951   3.849   2.373   1.073
 3575SOL    HW210952   3.777   2.421   1.212
 3576SOL     OW10953   3.913   2.382   1.722
 3576SOL    HW110954   3.972   2.342   1.652
 3576SOL    HW210955   3.855   2.453   1.681
 3577SOL     OW10956   4.539   2.434   0.325
 3577SOL    HW110957   4.546   2.345   0.279
 3577SOL    HW210958   4.445   2.468   0.317
 3578SOL     OW10959   3.976   3.426   1.744
 3578SOL    HW110960   3.946   3.483   1.820
 3578SOL    HW210961   3.969   3.329   1.770
 3579SOL     OW10962   4.395   2.326   1.269
 3579SOL    HW110963   4.361   2.237   1.239
 3579SOL    HW210964   4.421   2.380   1.189
 3580SOL     OW10965   4.654   3.540   1.465
 3580SOL    HW110966   4.630   3.522   1.370
 3580SOL    HW210967   4.684   3.634   1.475
 3581SOL     OW10968   4.197   2.362   0.191
 3581SOL    HW110969   4.258   2.442   0.195
 3581SOL    HW210970   4.102   2.393   0.198
 3582SOL     OW10971   3.883   2.999   1.466
 3582SOL    HW110972   3.905   2.938   1.542
 3582SOL    HW210973   3.893   2.950   1.380
 3583SOL     OW10974   5.071   2.921   1.234
 3583SOL    HW110975   5.095   2.858   1.160
 3583SOL    HW210976   4.981   2.961   1.216
 3584SOL     OW10977   4.976   3.593   1.128
 3584SOL    HW110978   5.060   3.598   1.074
 3584SOL    HW210979   4.953   3.497   1.146
 3585SOL     OW10980   3.807   3.120   1.022
 3585SOL    HW110981   3.802   3.119   1.122
 3585SOL    HW210982   3.724   3.079   0.984
 3586SOL     OW10983   4.412   3.524   1.716
 3586SOL    HW110984   4.356   3.605   1.725
 3586SOL    HW210985   4.464   3.528   1.630
 3587SOL     OW10986   4.627   1.948   0.133
 3587SOL    HW110987   4.678   1.949   0.047
 3587SOL    HW210988   4.683   1.906   0.204
 3588SOL     OW10989   5.112   3.435   0.477
 3588SOL    HW110990   5.179   3.447   0.403
 3588SOL    HW210991   5.072   3.524   0.500
 3589SOL     OW10992   3.854   3.656   1.851
 3589SOL    HW110993   3.813   3.582   1.904
 3589SOL    HW210994   3.918   3.707   1.909
 3590SOL     OW10995   5.004   2.789   0.672
 3590SOL    HW110996   5.064   2.708   0.674
 3590SOL    HW210997   5.044   2.858   0.612
 3591SOL     OW10998   4.554   3.135   1.422
 3591SOL    HW110999   4.549   3.168   1.517
 3591SOL    HW211000   4.468   3.154   1.376
 3592SOL     OW11001   4.396   3.478   0.154
 3592SOL    HW111002   4.405   3.488   0.055
 3592SOL    HW211003   4.356   3.389   0.175
 3593SOL     OW11004   3.987   2.188   0.720
 3593SOL    HW111005   3.908   2.239   0.686
 3593SOL    HW211006   3.978   2.173   0.818
 3594SOL     OW11007   4.918   3.474   0.031
 3594SOL    HW111008   4.924   3.381   0.068
 3594SOL    HW211009   4.859   3.474  -0.049
 3595SOL     OW11010   4.640   2.772   0.291
 3595SOL    HW111011   4.703   2.810   0.223
 3595SOL    HW211012   4.680   2.689   0.330
 3596SOL     OW11013   4.096   3.150   1.490
 3596SOL    HW111014   4.083   3.243   1.456
 3596SOL    HW211015   4.012   3.098   1.477
 3597SOL     OW11016   4.763   2.960   0.696
 3597SOL    HW111017   4.693   2.913   0.750
 3597SOL    HW211018   4.822   2.892   0.653
 3598SOL     OW11019   4.738   2.098   0.971
 3598SOL    HW111020   4.730   2.062   0.878
 3598SOL    HW211021   4.736   2.022   1.036
 3599SOL     OW11022   4.314   3.349   0.491
 3599SOL    HW111023   4.356   3.291   0.421
 3599SOL    HW211024   4.270   3.428   0.447
 3600SOL     OW11025   3.979   3.210   0.290
 3600SOL    HW111026   3.883   3.211   0.263
 3600SOL    HW211027   3.991   3.263   0.374
 3601SOL     OW11028   3.829   2.875   1.726
 3601SOL    HW111029   3.752   2.842   1.780
 3601SOL    HW211030   3.914   2.845   1.768
 3602SOL     OW11031   4.396   2.065   1.489
 3602SOL    HW111032   4.486   2.049   1.449
 3602SOL    HW211033   4.404   2.070   1.588
 3603SOL     OW11034   5.164   2.718   1.398
 3603SOL    HW111035   5.107   2.770   1.335
 3603SOL    HW211036   5.260   2.730   1.374
 3604SOL     OW11037   3.796   2.028   0.318
 3604SOL    HW111038   3.779   2.111   0.264
 3604SOL    HW211039   3.886   1.991   0.296
 3605SOL     OW11040   4.337   2.704   1.431
 3605SOL    HW111041   4.393   2.785   1.414
 3605SOL    HW211042   4.396   2.624   1.434
 3606SOL     OW11043   4.114   3.603   1.560
 3606SOL    HW111044   4.023   3.644   1.558
 3606SOL    HW211045   4.107   3.509   1.592
 3607SOL     OW11046   4.949   2.187   0.449
 3607SOL    HW111047   5.014   2.113   0.438
 3607SOL    HW211048   4.969   2.237   0.533
 3608SOL     OW11049   4.318   2.607   0.652
 3608SOL    HW111050   4.368   2.692   0.633
 3608SOL    HW211051   4.230   2.609   0.604
 3609SOL     OW11052   4.583   3.236   0.016
 3609SOL    HW111053   4.537   3.251   0.104
 3609SOL    HW211054   4.627   3.321  -0.014
 3610SOL     OW11055   4.385   3.652   0.953
 3610SOL    HW111056   4.339   3.740   0.940
 3610SOL    HW211057   4.484   3.664   0.946
 3611SOL     OW11058   4.583   2.818   0.861
 3611SOL    HW111059   4.637   2.749   0.909
 3611SOL    HW211060   4.551   2.887   0.927
 3612SOL     OW11061   4.807   2.846   0.087
 3612SOL    HW111062   4.784   2.899   0.005
 3612SOL    HW211063   4.888   2.790   0.068
 3613SOL     OW11064   3.945   3.176   1.844
 3613SOL    HW111065   3.880   3.103   1.823
 3613SOL    HW211066   3.949   3.190   1.942
 3614SOL     OW11067   3.803   3.102   0.653
 3614SOL    HW111068   3.802   3.055   0.741
 3614SOL    HW211069   3.885   3.074   0.602
 3615SOL     OW11070   4.396   3.253   1.624
 3615SOL    HW111071   4.318   3.203   1.662
 3615SOL    HW211072   4.393   3.348   1.655
 3616SOL     OW11073   4.152   2.286   0.520
 3616SOL    HW111074   4.182   2.214   0.458
 3616SOL    HW211075   4.113   2.246   0.603
 3617SOL     OW11076   4.041   2.409   1.280
 3617SOL    HW111077   4.079   2.350   1.352
 3617SOL    HW211078   4.081   2.383   1.192
 3618SOL     OW11079   4.536   3.448   0.687
 3618SOL    HW111080   4.568   3.458   0.593
 3618SOL    HW211081   4.457   3.386   0.689
 3619SOL     OW11082   4.725   1.896   1.154
 3619SOL    HW111083   4.662   1.824   1.123
 3619SOL    HW211084   4.818   1.860   1.154
 3620SOL     OW11085   4.494   3.192   0.301
 3620SOL    HW111086   4.448   3.105   0.318
 3620SOL    HW211087   4.585   3.189   0.342
 3621SOL     OW11088   4.342   3.429   1.284
 3621SOL    HW111089   4.337   3.511   1.341
 3621SOL    HW211090   4.431   3.426   1.239
 3622SOL     OW11091   3.763   2.939   0.300
 3622SOL    HW111092   3.862   2.928   0.291
 3622SOL    HW211093   3.723   2.853   0.332
 3623SOL     OW11094   4.599   3.508   0.337
 3623SOL    HW111095   4.522   3.473   0.283
 3623SOL    HW211096   4.567   3.579   0.399
 3624SOL     OW11097   3.954   2.490   1.975
 3624SOL    HW111098   3.861   2.488   2.012
 3624SOL    HW211099   3.955   2.451   1.883
 3625SOL     OW11100   3.949   2.137   2.858
 3625SOL    HW111101   3.984   2.120   2.950
 3625SOL    HW211102   3.861   2.092   2.846
 3626SOL     OW11103   3.743   2.230   2.509
 3626SOL    HW111104   3.661   2.273   2.548
 3626SOL    HW211105   3.715   2.157   2.446
 3627SOL     OW11106   4.293   3.137   3.027
 3627SOL    HW111107   4.200   3.130   2.990
 3627SOL    HW211108   4.304   3.226   3.071
 3628SOL     OW11109   4.859   2.565   2.579
 3628SOL    HW111110   4.916   2.643   2.554
 3628SOL    HW211111   4.799   2.591   2.655
 3629SOL     OW11112   4.492   3.006   2.885
 3629SOL    HW111113   4.414   3.023   2.945
 3629SOL    HW211114   4.526   3.093   2.849
 3630SOL     OW11115   4.574   2.660   3.685
 3630SOL    HW111116   4.570   2.736   3.750
 3630SOL    HW211117   4.596   2.696   3.594
 3631SOL     OW11118   4.409   2.874   2.527
 3631SOL    HW111119   4.478   2.858   2.597
 3631SOL    HW211120   4.336   2.931   2.565
 3632SOL     OW11121   4.410   3.023   3.665
 3632SOL    HW111122   4.470   3.102   3.679
 3632SOL    HW211123   4.324   3.054   3.624
 3633SOL     OW11124   4.059   3.297   2.923
 3633SOL    HW111125   3.981   3.266   2.870
 3633SOL    HW211126   4.117   3.355   2.866
 3634SOL     OW11127   4.162   2.254   3.361
 3634SOL    HW111128   4.244   2.198   3.370
 3634SOL    HW211129   4.081   2.196   3.365
 3635SOL     OW11130   3.955   3.575   2.345
 3635SOL    HW111131   3.989   3.652   2.399
 3635SOL    HW211132   3.999   3.575   2.255
 3636SOL     OW11133   4.851   3.203   3.552
 3636SOL    HW111134   4.898   3.203   3.640
 3636SOL    HW211135   4.803   3.116   3.541
 3637SOL     OW11136   3.954   3.296   2.400
 3637SOL    HW111137   3.928   3.392   2.400
 3637SOL    HW211138   3.883   3.242   2.445
 3638SOL     OW11139   3.964   2.953   2.748
 3638SOL    HW111140   3.978   2.869   2.800
 3638SOL    HW211141   3.909   3.017   2.803
 3639SOL     OW11142   4.344   3.648   3.301
 3639SOL    HW111143   4.252   3.631   3.336
 3639SOL    HW211144   4.372   3.740   3.327
 3640SOL     OW11145   4.330   2.826   1.985
 3640SOL    HW111146   4.337   2.910   1.931
 3640SOL    HW211147   4.376   2.839   2.073
 3641SOL     OW11148   3.846   2.505   2.425
 3641SOL    HW111149   3.801   2.417   2.442
 3641SOL    HW211150   3.845   2.559   2.509
 3642SOL     OW11151   3.751   3.458   1.979
 3642SOL    HW111152   3.732   3.362   2.000
 3642SOL    HW211153   3.718   3.516   2.054
 3643SOL     OW11154   3.837   2.599   3.459
 3643SOL    HW111155   3.925   2.586   3.504
 3643SOL    HW211156   3.824   2.696   3.437
 3644SOL     OW11157   4.337   3.227   2.588
 3644SOL    HW111158   4.288   3.140   2.597
 3644SOL    HW211159   4.314   3.270   2.501
 3645SOL     OW11160   5.017   3.090   3.285
 3645SOL    HW111161   5.054   3.017   3.227
 3645SOL    HW211162   5.069   3.095   3.370
 3646SOL     OW11163   4.533   1.866   2.364
 3646SOL    HW111164   4.573   1.957   2.355
 3646SOL    HW211165   4.433   1.874   2.370
 3647SOL     OW11166   3.921   2.838   3.126
 3647SOL    HW111167   4.010   2.793   3.112
 3647SOL    HW211168   3.848   2.773   3.107
 3648SOL     OW11169   4.911   3.654   3.478
 3648SOL    HW111170   4.935   3.714   3.402
 3648SOL    HW211171   4.918   3.559   3.448
 3649SOL     OW11172   4.041   2.113   3.663
 3649SOL    HW111173   4.112   2.184   3.669
 3649SOL    HW211174   3.953   2.152   3.691
 3650SOL     OW11175   4.322   2.591   2.132
 3650SOL    HW111176   4.346   2.660   2.064
 3650SOL    HW211177   4.244   2.624   2.186
 3651SOL     OW11178   5.005   2.207   2.806
 3651SOL    HW111179   4.919   2.157   2.793
 3651SOL    HW211180   5.067   2.153   2.862
 3652SOL     OW11181   4.531   2.467   3.327
 3652SOL    HW111182   4.484   2.464   3.416
 3652SOL    HW211183   4.480   2.412   3.261
 3653SOL     OW11184   4.697   2.752   3.434
 3653SOL    HW111185   4.743   2.668   3.405
 3653SOL    HW211186   4.641   2.786   3.359
 3654SOL     OW11187   4.715   2.272   3.104
 3654SOL    HW111188   4.638   2.306   3.158
 3654SOL    HW211189   4.681   2.221   3.025
 3655SOL     OW11190   4.765   2.563   2.291
 3655SOL    HW111191   4.791   2.559   2.387
 3655SOL    HW211192   4.680   2.512   2.277
 3656SOL     OW11193   3.800   2.673   2.651
 3656SOL    HW111194   3.899   2.661   2.660
 3656SOL    HW211195   3.776   2.768   2.672
 3657SOL     OW11196   3.854   3.683   3.433
 3657SOL    HW111197   3.844   3.668   3.532
 3657SOL    HW211198   3.768   3.719   3.397
 3658SOL     OW11199   4.274   2.058   2.747
 3658SOL    HW111200   4.269   2.053   2.847
 3658SOL    HW211201   4.276   2.154   2.718
 3659SOL     OW11202   4.732   3.318   2.339
 3659SOL    HW111203   4.686   3.390   2.287
 3659SOL    HW211204   4.728   3.338   2.437
 3660SOL     OW11205   4.075   3.663   2.715
 3660SOL    HW111206   4.125   3.577   2.721
 3660SOL    HW211207   4.140   3.740   2.712
 3661SOL     OW11208   4.951   3.412   3.368
 3661SOL    HW111209   4.957   3.335   3.432
 3661SOL    HW211210   4.899   3.386   3.288
 3662SOL     OW11211   4.045   2.805   2.104
 3662SOL    HW111212   4.127   2.844   2.062
 3662SOL    HW211213   4.018   2.723   2.055
 3663SOL     OW11214   4.185   3.128   3.589
 3663SOL    HW111215   4.135   3.129   3.503
 3663SOL    HW211216   4.122   3.110   3.665
 3664SOL     OW11217   4.835   3.638   2.099
 3664SOL    HW111218   4.775   3.576   2.149
 3664SOL    HW211219   4.866   3.594   2.014
 3665SOL     OW11220   3.926   2.147   3.360
 3665SOL    HW111221   3.846   2.207   3.347
 3665SOL    HW211222   3.916   2.098   3.446
 3666SOL     OW11223   4.188   3.605   2.185
 3666SOL    HW111224   4.221   3.644   2.271
 3666SOL    HW211225   4.264   3.598   2.120
 3667SOL     OW11226   3.973   3.647   3.103
 3667SOL    HW111227   4.030   3.582   3.153
 3667SOL    HW211228   3.957   3.614   3.010
 3668SOL     OW11229   4.664   3.560   2.766
 3668SOL    HW111230   4.744   3.503   2.787
 3668SOL    HW211231   4.615   3.520   2.689
 3669SOL     OW11232   4.106   2.562   2.342
 3669SOL    HW111233   4.151   2.472   2.339
 3669SOL    HW211234   4.012   2.551   2.375
 3670SOL     OW11235   4.338   1.984   1.979
 3670SOL    HW111236   4.436   1.962   1.986
 3670SOL    HW211237   4.307   1.967   1.886
 3671SOL     OW11238   4.505   2.126   3.611
 3671SOL    HW111239   4.572   2.065   3.654
 3671SOL    HW211240   4.432   2.145   3.676
 3672SOL     OW11241   4.612   3.376   3.057
 3672SOL    HW111242   4.589   3.351   2.963
 3672SOL    HW211243   4.673   3.307   3.096
 3673SOL     OW11244   4.527   3.264   2.786
 3673SOL    HW111245   4.617   3.278   2.744
 3673SOL    HW211246   4.456   3.266   2.715
 3674SOL     OW11247   4.646   2.365   2.761
 3674SOL    HW111248   4.621   2.356   2.665
 3674SOL    HW211249   4.694   2.283   2.792
 3675SOL     OW11250   4.263   1.926   2.374
 3675SOL    HW111251   4.182   1.927   2.432
 3675SOL    HW211252   4.266   2.009   2.319
 3676SOL     OW11253   4.021   1.897   2.033
 3676SOL    HW111254   4.070   1.981   2.012
 3676SOL    HW211255   4.083   1.832   2.078
 3677SOL     OW11256   4.659   2.098   2.342
 3677SOL    HW111257   4.611   2.139   2.264
 3677SOL    HW211258   4.758   2.096   2.323
 3678SOL     OW11259   4.800   2.545   3.326
 3678SOL    HW111260   4.720   2.484   3.329
 3678SOL    HW211261   4.881   2.492   3.302
 3679SOL     OW11262   4.951   3.432   2.655
 3679SOL    HW111263   4.972   3.506   2.590
 3679SOL    HW211264   5.019   3.432   2.728
 3680SOL     OW11265   4.183   3.014   2.603
 3680SOL    HW111266   4.112   2.987   2.668
 3680SOL    HW211267   4.157   2.986   2.510
 3681SOL     OW11268   4.995   3.659   2.453
 3681SOL    HW111269   5.039   3.723   2.389
 3681SOL    HW211270   4.945   3.711   2.523
 3682SOL     OW11271   3.802   2.418   3.248
 3682SOL    HW111272   3.894   2.417   3.207
 3682SOL    HW211273   3.796   2.492   3.315
 3683SOL     OW11274   4.285   2.084   3.009
 3683SOL    HW111275   4.323   2.000   3.046
 3683SOL    HW211276   4.197   2.103   3.053
 3684SOL     OW11277   4.590   2.316   2.504
 3684SOL    HW111278   4.558   2.388   2.442
 3684SOL    HW211279   4.614   2.235   2.451
 3685SOL     OW11280   4.741   1.901   2.615
 3685SOL    HW111281   4.669   1.906   2.546
 3685SOL    HW211282   4.717   1.832   2.684
 3686SOL     OW11283   4.212   3.247   2.036
 3686SOL    HW111284   4.125   3.232   2.083
 3686SOL    HW211285   4.195   3.273   1.941
 3687SOL     OW11286   5.388   3.142   2.519
 3687SOL    HW111287   5.487   3.150   2.533
 3687SOL    HW211288   5.343   3.226   2.550
 3688SOL     OW11289   4.251   2.118   2.190
 3688SOL    HW111290   4.278   2.059   2.115
 3688SOL    HW211291   4.251   2.213   2.159
 3689SOL     OW11292   4.788   3.209   3.202
 3689SOL    HW111293   4.708   3.186   3.257
 3689SOL    HW211294   4.871   3.183   3.251
 3690SOL     OW11295   4.835   3.057   2.962
 3690SOL    HW111296   4.795   3.101   3.043
 3690SOL    HW211297   4.794   3.094   2.879
 3691SOL     OW11298   4.639   1.951   3.264
 3691SOL    HW111299   4.664   1.931   3.169
 3691SOL    HW211300   4.711   2.007   3.306
 3692SOL     OW11301   4.704   2.978   3.581
 3692SOL    HW111302   4.605   2.984   3.591
 3692SOL    HW211303   4.727   2.898   3.525
 3693SOL     OW11304   4.429   2.912   2.230
 3693SOL    HW111305   4.415   2.919   2.329
 3693SOL    HW211306   4.513   2.861   2.212
 3694SOL     OW11307   4.134   2.675   3.113
 3694SOL    HW111308   4.220   2.687   3.163
 3694SOL    HW211309   4.092   2.588   3.140
 3695SOL     OW11310   4.998   2.248   3.124
 3695SOL    HW111311   5.019   2.322   3.188
 3695SOL    HW211312   4.909   2.265   3.081
 3696SOL     OW11313   3.788   3.426   3.193
 3696SOL    HW111314   3.742   3.508   3.159
 3696SOL    HW211315   3.886   3.445   3.202
 3697SOL     OW11316   4.091   2.962   2.363
 3697SOL    HW111317   4.084   3.045   2.307
 3697SOL    HW211318   4.095   2.882   2.303
 3698SOL     OW11319   4.290   2.399   2.727
 3698SOL    HW111320   4.302   2.465   2.653
 3698SOL    HW211321   4.336   2.433   2.810
 3699SOL     OW11322   4.976   3.210   2.250
 3699SOL    HW111323   5.026   3.287   2.290
 3699SOL    HW211324   4.881   3.212   2.282
 3700SOL     OW11325   4.078   3.372   3.191
 3700SOL    HW111326   4.057   3.328   3.104
 3700SOL    HW211327   4.175   3.398   3.194
 3701SOL     OW11328   4.126   2.613   3.460
 3701SOL    HW111329   4.194   2.668   3.413
 3701SOL    HW211330   4.166   2.525   3.487
 3702SOL     OW11331   4.737   1.967   3.632
 3702SOL    HW111332   4.743   2.052   3.580
 3702SOL    HW211333   4.769   1.891   3.575
 3703SOL     OW11334   4.228   1.912   3.602
 3703SOL    HW111335   4.186   1.855   3.532
 3703SOL    HW211336   4.162   1.981   3.634
 3704SOL     OW11337   4.297   2.732   2.891
 3704SOL    HW111338   4.341   2.821   2.882
 3704SOL    HW211339   4.234   2.732   2.968
 3705SOL     OW11340   5.084   2.724   2.907
 3705SOL    HW111341   5.009   2.724   2.841
 3705SOL    HW211342   5.121   2.632   2.916
 3706SOL     OW11343   4.933   2.387   2.137
 3706SOL    HW111344   4.946   2.303   2.191
 3706SOL    HW211345   4.904   2.461   2.197
 3707SOL     OW11346   4.031   2.075   3.093
 3707SOL    HW111347   4.008   2.112   3.183
 3707SOL    HW211348   4.001   1.980   3.087
 3708SOL     OW11349   3.761   3.172   3.144
 3708SOL    HW111350   3.814   3.123   3.212
 3708SOL    HW211351   3.783   3.270   3.149
 3709SOL     OW11352   4.456   2.496   2.926
 3709SOL    HW111353   4.515   2.470   2.850
 3709SOL    HW211354   4.428   2.592   2.915
 3710SOL     OW11355   4.031   1.925   2.480
 3710SOL    HW111356   4.020   2.019   2.513
 3710SOL    HW211357   4.026   1.862   2.557
 3711SOL     OW11358   5.346   2.229   2.236
 3711SOL    HW111359   5.348   2.153   2.300
 3711SOL    HW211360   5.298   2.306   2.276
 3712SOL     OW11361   4.747   2.628   2.828
 3712SOL    HW111362   4.762   2.649   2.924
 3712SOL    HW211363   4.717   2.533   2.819
 3713SOL     OW11364   4.704   3.435   3.562
 3713SOL    HW111365   4.684   3.479   3.474
 3713SOL    HW211366   4.743   3.344   3.546
 3714SOL     OW11367   4.074   2.760   3.666
 3714SOL    HW111368   4.150   2.804   3.714
 3714SOL    HW211369   4.109   2.713   3.584
 3715SOL     OW11370   5.027   2.700   1.904
 3715SOL    HW111371   5.061   2.607   1.919
 3715SOL    HW211372   5.045   2.727   1.809
 3716SOL     OW11373   4.792   3.195   2.711
 3716SOL    HW111374   4.799   3.111   2.656
 3716SOL    HW211375   4.854   3.264   2.675
 3717SOL     OW11376   4.043   2.672   2.811
 3717SOL    HW111377   4.136   2.708   2.816
 3717SOL    HW211378   4.037   2.587   2.863
 3718SOL     OW11379   4.063   2.371   2.868
 3718SOL    HW111380   4.011   2.288   2.851
 3718SOL    HW211381   4.140   2.376   2.804
 3719SOL     OW11382   4.862   2.242   3.540
 3719SOL    HW111383   4.817   2.305   3.604
 3719SOL    HW211384   4.955   2.273   3.523
 3720SOL     OW11385   4.884   2.069   3.339
 3720SOL    HW111386   4.884   2.133   3.416
 3720SOL    HW211387   4.912   2.117   3.256
 3721SOL     OW11388   3.732   3.188   2.062
 3721SOL    HW111389   3.639   3.209   2.031
 3721SOL    HW211390   3.742   3.089   2.075
 3722SOL     OW11391   3.812   3.663   2.789
 3722SOL    HW111392   3.770   3.577   2.762
 3722SOL    HW211393   3.906   3.666   2.755
 3723SOL     OW11394   4.228   3.430   2.772
 3723SOL    HW111395   4.294   3.504   2.781
 3723SOL    HW211396   4.272   3.351   2.730
 3724SOL     OW11397   4.726   2.658   3.100
 3724SOL    HW111398   4.767   2.626   3.186
 3724SOL    HW211399   4.630   2.631   3.097
 3725SOL     OW11400   3.764   2.406   2.976
 3725SOL    HW111401   3.849   2.373   2.935
 3725SOL    HW211402   3.777   2.421   3.074
 3726SOL     OW11403   3.913   2.382   3.584
 3726SOL    HW111404   3.972   2.342   3.514
 3726SOL    HW211405   3.855   2.453   3.543
 3727SOL     OW11406   3.976   3.426   3.606
 3727SOL    HW111407   3.946   3.483   3.682
 3727SOL    HW211408   3.969   3.329   3.632
 3728SOL     OW11409   4.395   2.326   3.131
 3728SOL    HW111410   4.361   2.237   3.101
 3728SOL    HW211411   4.421   2.380   3.051
 3729SOL     OW11412   4.654   3.540   3.327
 3729SOL    HW111413   4.630   3.522   3.232
 3729SOL    HW211414   4.684   3.634   3.337
 3730SOL     OW11415   4.197   2.362   2.053
 3730SOL    HW111416   4.258   2.442   2.057
 3730SOL    HW211417   4.102   2.393   2.060
 3731SOL     OW11418   3.883   2.999   3.328
 3731SOL    HW111419   3.905   2.938   3.404
 3731SOL    HW211420   3.893   2.950   3.242
 3732SOL     OW11421   5.071   2.921   3.096
 3732SOL    HW111422   5.095   2.858   3.022
 3732SOL    HW211423   4.981   2.961   3.078
 3733SOL     OW11424   4.976   3.593   2.990
 3733SOL    HW111425   5.060   3.598   2.936
 3733SOL    HW211426   4.953   3.497   3.008
 3734SOL     OW11427   3.807   3.120   2.884
 3734SOL    HW111428   3.802   3.119   2.984
 3734SOL    HW211429   3.724   3.079   2.846
 3735SOL     OW11430   4.412   3.524   3.578
 3735SOL    HW111431   4.356   3.605   3.587
 3735SOL    HW211432   4.464   3.528   3.492
 3736SOL     OW11433   5.112   3.435   2.339
 3736SOL    HW111434   5.179   3.447   2.265
 3736SOL    HW211435   5.072   3.524   2.362
 3737SOL     OW11436   3.854   3.656   3.713
 3737SOL    HW111437   3.813   3.582   3.766
 3737SOL    HW211438   3.918   3.707   3.771
 3738SOL     OW11439   5.004   2.789   2.534
 3738SOL    HW111440   5.064   2.708   2.536
 3738SOL    HW211441   5.044   2.858   2.474
 3739SOL     OW11442   4.554   3.135   3.284
 3739SOL    HW111443   4.549   3.168   3.379
 3739SOL    HW211444   4.468   3.154   3.238
 3740SOL     OW11445   4.396   3.478   2.016
 3740SOL    HW111446   4.405   3.488   1.917
 3740SOL    HW211447   4.356   3.389   2.037
 3741SOL     OW11448   3.987   2.188   2.582
 3741SOL    HW111449   3.908   2.239   2.548
 3741SOL    HW211450   3.978   2.173   2.680
 3742SOL     OW11451   4.918   3.474   1.893
 3742SOL    HW111452   4.924   3.381   1.930
 3742SOL    HW211453   4.859   3.474   1.813
 3743SOL     OW11454   4.546   2.864   3.234
 3743SOL    HW111455   4.586   2.863   3.142
 3743SOL    HW211456   4.556   2.956   3.274
 3744SOL     OW11457   4.640   2.772   2.153
 3744SOL    HW111458   4.703   2.810   2.085
 3744SOL    HW211459   4.680   2.689   2.192
 3745SOL     OW11460   4.096   3.150   3.352
 3745SOL    HW111461   4.083   3.243   3.318
 3745SOL    HW211462   4.012   3.098   3.339
 3746SOL     OW11463   4.763   2.960   2.558
 3746SOL    HW111464   4.693   2.913   2.612
 3746SOL    HW211465   4.822   2.892   2.515
 3747SOL     OW11466   4.738   2.098   2.833
 3747SOL    HW111467   4.730   2.062   2.740
 3747SOL    HW211468   4.736   2.022   2.898
 3748SOL     OW11469   4.314   3.349   2.353
 3748SOL    HW111470   4.356   3.291   2.283
 3748SOL    HW211471   4.270   3.428   2.309
 3749SOL     OW11472   3.979   3.210   2.152
 3749SOL    HW111473   3.883   3.211   2.125
 3749SOL    HW211474   3.991   3.263   2.236
 3750SOL     OW11475   3.829   2.875   3.588
 3750SOL    HW111476   3.752   2.842   3.642
 3750SOL    HW211477   3.914   2.845   3.630
 3751SOL     OW11478   4.396   2.065   3.351
 3751SOL    HW111479   4.486   2.049   3.311
 3751SOL    HW211480   4.404   2.070   3.450
 3752SOL     OW11481   3.799   2.207   1.895
 3752SOL    HW111482   3.707   2.179   1.866
 3752SOL    HW211483   3.830   2.284   1.839
 3753SOL     OW11484   5.164   2.718   3.260
 3753SOL    HW111485   5.107   2.770   3.197
 3753SOL    HW211486   5.260   2.730   3.236
 3754SOL     OW11487   3.796   2.028   2.180
 3754SOL    HW111488   3.779   2.111   2.126
 3754SOL    HW211489   3.886   1.991   2.158
 3755SOL     OW11490   4.337   2.704   3.293
 3755SOL    HW111491   4.393   2.785   3.276
 3755SOL    HW211492   4.396   2.624   3.296
 3756SOL     OW11493   4.440   2.427   3.570
 3756SOL    HW111494   4.459   2.492   3.644
 3756SOL    HW211495   4.500   2.347   3.579
 3757SOL     OW11496   4.114   3.603   3.422
 3757SOL    HW111497   4.023   3.644   3.420
 3757SOL    HW211498   4.107   3.509   3.454
 3758SOL     OW11499   4.949   2.187   2.311
 3758SOL    HW111500   5.014   2.113   2.300
 3758SOL    HW211501   4.969   2.237   2.395
 3759SOL     OW11502   4.318   2.607   2.514
 3759SOL    HW111503   4.368   2.692   2.495
 3759SOL    HW211504   4.230   2.609   2.466
 3760SOL     OW11505   4.583   3.236   1.878
 3760SOL    HW111506   4.537   3.251   1.966
 3760SOL    HW211507   4.627   3.321   1.848
 3761SOL     OW11508   4.385   3.652   2.815
 3761SOL    HW111509   4.339   3.740   2.802
 3761SOL    HW211510   4.484   3.664   2.808
 3762SOL     OW11511   4.583   2.818   2.723
 3762SOL    HW111512   4.637   2.749   2.771
 3762SOL    HW211513   4.551   2.887   2.789
 3763SOL     OW11514   4.807   2.846   1.949
 3763SOL    HW111515   4.784   2.899   1.867
 3763SOL    HW211516   4.888   2.790   1.930
 3764SOL     OW11517   3.945   3.176   3.706
 3764SOL    HW111518   3.880   3.103   3.685
 3764SOL    HW211519   3.949   3.190   3.804
 3765SOL     OW11520   3.803   3.102   2.515
 3765SOL    HW111521   3.802   3.055   2.603
 3765SOL    HW211522   3.885   3.074   2.464
 3766SOL     OW11523   4.396   3.253   3.486
 3766SOL    HW111524   4.318   3.203   3.524
 3766SOL    HW211525   4.393   3.348   3.517
 3767SOL     OW11526   4.152   2.286   2.382
 3767SOL    HW111527   4.182   2.214   2.320
 3767SOL    HW211528   4.113   2.246   2.465
 3768SOL     OW11529   4.041   2.409   3.142
 3768SOL    HW111530   4.079   2.350   3.214
 3768SOL    HW211531   4.081   2.383   3.054
 3769SOL     OW11532   4.536   3.448   2.549
 3769SOL    HW111533   4.568   3.458   2.455
 3769SOL    HW211534   4.457   3.386   2.551
 3770SOL     OW11535   4.725   1.896   3.016
 3770SOL    HW111536   4.662   1.824   2.985
 3770SOL    HW211537   4.818   1.860   3.016
 3771SOL     OW11538   4.494   3.192   2.163
 3771SOL    HW111539   4.448   3.105   2.180
 3771SOL    HW211540   4.585   3.189   2.204
 3772SOL     OW11541   4.342   3.429   3.146
 3772SOL    HW111542   4.337   3.511   3.203
 3772SOL    HW211543   4.431   3.426   3.101
 3773SOL     OW11544   5.076   1.914   2.030
 3773SOL    HW111545   5.111   1.873   1.946
 3773SOL    HW211546   4.986   1.876   2.050
 3774SOL     OW11547   3.763   2.939   2.162
 3774SOL    HW111548   3.862   2.928   2.153
 3774SOL    HW211549   3.723   2.853   2.194
 3775SOL     OW11550   4.599   3.508   2.199
 3775SOL    HW111551   4.522   3.473   2.145
 3775SOL    HW211552   4.567   3.579   2.261
 3776SOL     OW11553   3.954   2.490   3.837
 3776SOL    HW111554   3.861   2.488   3.874
 3776SOL    HW211555   3.955   2.451   3.745
 3777SOL     OW11556   3.949   2.137   4.720
 3777SOL    HW111557   3.984   2.120   4.812
 3777SOL    HW211558   3.861   2.092   4.708
 3778SOL     OW11559   3.743   2.230   4.371
 3778SOL    HW111560   3.661   2.273   4.410
 3778SOL    HW211561   3.715   2.157   4.308
 3779SOL     OW11562   4.293   3.137   4.889
 3779SOL    HW111563   4.200   3.130   4.852
 3779SOL    HW211564   4.304   3.226   4.933
 3780SOL     OW11565   4.859   2.565   4.441
 3780SOL    HW111566   4.916   2.643   4.416
 3780SOL    HW211567   4.799   2.591   4.517
 3781SOL     OW11568   4.492   3.006   4.747
 3781SOL    HW111569   4.414   3.023   4.807
 3781SOL    HW211570   4.526   3.093   4.711
 3782SOL     OW11571   4.409   2.874   4.389
 3782SOL    HW111572   4.478   2.858   4.459
 3782SOL    HW211573   4.336   2.931   4.427
 3783SOL     OW11574   4.059   3.297   4.785
 3783SOL    HW111575   3.981   3.266   4.732
 3783SOL    HW211576   4.117   3.355   4.728
 3784SOL     OW11577   3.955   3.575   4.207
 3784SOL    HW111578   3.989   3.652   4.261
 3784SOL    HW211579   3.999   3.575   4.117
 3785SOL     OW11580   3.954   3.296   4.262
 3785SOL    HW111581   3.928   3.392   4.262
 3785SOL    HW211582   3.883   3.242   4.307
 3786SOL     OW11583   3.964   2.953   4.610
 3786SOL    HW111584   3.978   2.869   4.662
 3786SOL    HW211585   3.909   3.017   4.665
 3787SOL     OW11586   4.344   3.648   5.163
 3787SOL    HW111587   4.252   3.631   5.198
 3787SOL    HW211588   4.372   3.740   5.189
 3788SOL     OW11589   4.330   2.826   3.847
 3788SOL    HW111590   4.337   2.910   3.793
 3788SOL    HW211591   4.376   2.839   3.935
 3789SOL     OW11592   3.846   2.505   4.287
 3789SOL    HW111593   3.801   2.417   4.304
 3789SOL    HW211594   3.845   2.559   4.371
 3790SOL     OW11595   3.751   3.458   3.841
 3790SOL    HW111596   3.732   3.362   3.862
 3790SOL    HW211597   3.718   3.516   3.916
 3791SOL     OW11598   4.337   3.227   4.450
 3791SOL    HW111599   4.288   3.140   4.459
 3791SOL    HW211600   4.314   3.270   4.363
 3792SOL     OW11601   4.533   1.866   4.226
 3792SOL    HW111602   4.573   1.957   4.217
 3792SOL    HW211603   4.433   1.874   4.232
 3793SOL     OW11604   3.921   2.838   4.988
 3793SOL    HW111605   4.010   2.793   4.974
 3793SOL    HW211606   3.848   2.773   4.969
 3794SOL     OW11607   4.322   2.591   3.994
 3794SOL    HW111608   4.346   2.660   3.926
 3794SOL    HW211609   4.244   2.624   4.048
 3795SOL     OW11610   5.005   2.207   4.668
 3795SOL    HW111611   4.919   2.157   4.655
 3795SOL    HW211612   5.067   2.153   4.724
 3796SOL     OW11613   4.715   2.272   4.966
 3796SOL    HW111614   4.638   2.306   5.020
 3796SOL    HW211615   4.681   2.221   4.887
 3797SOL     OW11616   4.765   2.563   4.153
 3797SOL    HW111617   4.791   2.559   4.249
 3797SOL    HW211618   4.680   2.512   4.139
 3798SOL     OW11619   3.800   2.673   4.513
 3798SOL    HW111620   3.899   2.661   4.522
 3798SOL    HW211621   3.776   2.768   4.534
 3799SOL     OW11622   4.589   2.210   3.919
 3799SOL    HW111623   4.648   2.273   3.870
 3799SOL    HW211624   4.608   2.116   3.890
 3800SOL     OW11625   4.274   2.058   4.609
 3800SOL    HW111626   4.269   2.053   4.709
 3800SOL    HW211627   4.276   2.154   4.580
 3801SOL     OW11628   4.732   3.318   4.201
 3801SOL    HW111629   4.686   3.390   4.149
 3801SOL    HW211630   4.728   3.338   4.299
 3802SOL     OW11631   4.075   3.663   4.577
 3802SOL    HW111632   4.125   3.577   4.583
 3802SOL    HW211633   4.140   3.740   4.574
 3803SOL     OW11634   4.045   2.805   3.966
 3803SOL    HW111635   4.127   2.844   3.924
 3803SOL    HW211636   4.018   2.723   3.917
 3804SOL     OW11637   4.835   3.638   3.961
 3804SOL    HW111638   4.775   3.576   4.011
 3804SOL    HW211639   4.866   3.594   3.876
 3805SOL     OW11640   4.188   3.605   4.047
 3805SOL    HW111641   4.221   3.644   4.133
 3805SOL    HW211642   4.264   3.598   3.982
 3806SOL     OW11643   3.973   3.647   4.965
 3806SOL    HW111644   4.030   3.582   5.015
 3806SOL    HW211645   3.957   3.614   4.872
 3807SOL     OW11646   4.664   3.560   4.628
 3807SOL    HW111647   4.744   3.503   4.649
 3807SOL    HW211648   4.615   3.520   4.551
 3808SOL     OW11649   4.106   2.562   4.204
 3808SOL    HW111650   4.151   2.472   4.201
 3808SOL    HW211651   4.012   2.551   4.237
 3809SOL     OW11652   4.338   1.984   3.841
 3809SOL    HW111653   4.436   1.962   3.848
 3809SOL    HW211654   4.307   1.967   3.748
 3810SOL     OW11655   4.527   3.264   4.648
 3810SOL    HW111656   4.617   3.278   4.606
 3810SOL    HW211657   4.456   3.266   4.577
 3811SOL     OW11658   4.646   2.365   4.623
 3811SOL    HW111659   4.621   2.356   4.527
 3811SOL    HW211660   4.694   2.283   4.654
 3812SOL     OW11661   4.263   1.926   4.236
 3812SOL    HW111662   4.182   1.927   4.294
 3812SOL    HW211663   4.266   2.009   4.181
 3813SOL     OW11664   4.021   1.897   3.895
 3813SOL    HW111665   4.070   1.981   3.874
 3813SOL    HW211666   4.083   1.832   3.940
 3814SOL     OW11667   4.659   2.098   4.204
 3814SOL    HW111668   4.611   2.139   4.126
 3814SOL    HW211669   4.758   2.096   4.185
 3815SOL     OW11670   4.951   3.432   4.517
 3815SOL    HW111671   4.972   3.506   4.452
 3815SOL    HW211672   5.019   3.432   4.590
 3816SOL     OW11673   4.183   3.014   4.465
 3816SOL    HW111674   4.112   2.987   4.530
 3816SOL    HW211675   4.157   2.986   4.372
 3817SOL     OW11676   4.995   3.659   4.315
 3817SOL    HW111677   5.039   3.723   4.251
 3817SOL    HW211678   4.945   3.711   4.385
 3818SOL     OW11679   4.756   2.411   3.740
 3818SOL    HW111680   4.715   2.493   3.701
 3818SOL    HW211681   4.820   2.437   3.813
 3819SOL     OW11682   4.285   2.084   4.871
 3819SOL    HW111683   4.323   2.000   4.908
 3819SOL    HW211684   4.197   2.103   4.915
 3820SOL     OW11685   4.590   2.316   4.366
 3820SOL    HW111686   4.558   2.388   4.304
 3820SOL    HW211687   4.614   2.235   4.313
 3821SOL     OW11688   4.741   1.901   4.477
 3821SOL    HW111689   4.669   1.906   4.408
 3821SOL    HW211690   4.717   1.832   4.546
 3822SOL     OW11691   4.212   3.247   3.898
 3822SOL    HW111692   4.125   3.232   3.945
 3822SOL    HW211693   4.195   3.273   3.803
 3823SOL     OW11694   5.388   3.142   4.381
 3823SOL    HW111695   5.487   3.150   4.395
 3823SOL    HW211696   5.343   3.226   4.412
 3824SOL     OW11697   4.251   2.118   4.052
 3824SOL    HW111698   4.278   2.059   3.977
 3824SOL    HW211699   4.251   2.213   4.021
 3825SOL     OW11700   5.316   3.491   5.349
 3825SOL    HW111701   5.343   3.525   5.259
 3825SOL    HW211702   5.395   3.453   5.395
 3826SOL     OW11703   4.835   3.057   4.824
 3826SOL    HW111704   4.795   3.101   4.905
 3826SOL    HW211705   4.794   3.094   4.741
 3827SOL     OW11706   4.429   2.912   4.092
 3827SOL    HW111707   4.415   2.919   4.191
 3827SOL    HW211708   4.513   2.861   4.074
 3828SOL     OW11709   4.134   2.675   4.975
 3828SOL    HW111710   4.220   2.687   5.025
 3828SOL    HW211711   4.092   2.588   5.002
 3829SOL     OW11712   4.091   2.962   4.225
 3829SOL    HW111713   4.084   3.045   4.169
 3829SOL    HW211714   4.095   2.882   4.165
 3830SOL     OW11715   4.290   2.399   4.589
 3830SOL    HW111716   4.302   2.465   4.515
 3830SOL    HW211717   4.336   2.433   4.672
 3831SOL     OW11718   4.976   3.210   4.112
 3831SOL    HW111719   5.026   3.287   4.152
 3831SOL    HW211720   4.881   3.212   4.144
 3832SOL     OW11721   4.078   3.372   5.053
 3832SOL    HW111722   4.057   3.328   4.966
 3832SOL    HW211723   4.175   3.398   5.056
 3833SOL     OW11724   4.297   2.732   4.753
 3833SOL    HW111725   4.341   2.821   4.744
 3833SOL    HW211726   4.234   2.732   4.830
 3834SOL     OW11727   5.084   2.724   4.769
 3834SOL    HW111728   5.009   2.724   4.703
 3834SOL    HW211729   5.121   2.632   4.778
 3835SOL     OW11730   4.933   2.387   3.999
 3835SOL    HW111731   4.946   2.303   4.053
 3835SOL    HW211732   4.904   2.461   4.059
 3836SOL     OW11733   4.031   2.075   4.955
 3836SOL    HW111734   4.008   2.112   5.045
 3836SOL    HW211735   4.001   1.980   4.949
 3837SOL     OW11736   3.761   3.172   5.006
 3837SOL    HW111737   3.814   3.123   5.074
 3837SOL    HW211738   3.783   3.270   5.011
 3838SOL     OW11739   4.456   2.496   4.788
 3838SOL    HW111740   4.515   2.470   4.712
 3838SOL    HW211741   4.428   2.592   4.777
 3839SOL     OW11742   4.031   1.925   4.342
 3839SOL    HW111743   4.020   2.019   4.375
 3839SOL    HW211744   4.026   1.862   4.419
 3840SOL     OW11745   5.346   2.229   4.098
 3840SOL    HW111746   5.348   2.153   4.162
 3840SOL    HW211747   5.298   2.306   4.138
 3841SOL     OW11748   4.747   2.628   4.690
 3841SOL    HW111749   4.762   2.649   4.786
 3841SOL    HW211750   4.717   2.533   4.681
 3842SOL     OW11751   5.027   2.700   3.766
 3842SOL    HW111752   5.061   2.607   3.781
 3842SOL    HW211753   5.045   2.727   3.671
 3843SOL     OW11754   4.792   3.195   4.573
 3843SOL    HW111755   4.799   3.111   4.518
 3843SOL    HW211756   4.854   3.264   4.537
 3844SOL     OW11757   4.043   2.672   4.673
 3844SOL    HW111758   4.136   2.708   4.678
 3844SOL    HW211759   4.037   2.587   4.725
 3845SOL     OW11760   4.063   2.371   4.730
 3845SOL    HW111761   4.011   2.288   4.713
 3845SOL    HW211762   4.140   2.376   4.666
 3846SOL     OW11763   4.884   2.069   5.201
 3846SOL    HW111764   4.884   2.133   5.278
 3846SOL    HW211765   4.912   2.117   5.118
 3847SOL     OW11766   3.732   3.188   3.924
 3847SOL    HW111767   3.639   3.209   3.893
 3847SOL    HW211768   3.742   3.089   3.937
 3848SOL     OW11769   3.812   3.663   4.651
 3848SOL    HW111770   3.770   3.577   4.624
 3848SOL    HW211771   3.906   3.666   4.617
 3849SOL     OW11772   4.228   3.430   4.634
 3849SOL    HW111773   4.294   3.504   4.643
 3849SOL    HW211774   4.272   3.351   4.592
 3850SOL     OW11775   4.726   2.658   4.962
 3850SOL    HW111776   4.767   2.626   5.048
 3850SOL    HW211777   4.630   2.631   4.959
 3851SOL     OW11778   3.764   2.406   4.838
 3851SOL    HW111779   3.849   2.373   4.797
 3851SOL    HW211780   3.777   2.421   4.936
 3852SOL     OW11781   4.539   2.434   4.049
 3852SOL    HW111782   4.546   2.345   4.003
 3852SOL    HW211783   4.445   2.468   4.041
 3853SOL     OW11784   4.395   2.326   4.993
 3853SOL    HW111785   4.361   2.237   4.963
 3853SOL    HW211786   4.421   2.380   4.913
 3854SOL     OW11787   4.654   3.540   5.189
 3854SOL    HW111788   4.630   3.522   5.094
 3854SOL    HW211789   4.684   3.634   5.199
 3855SOL     OW11790   4.197   2.362   3.915
 3855SOL    HW111791   4.258   2.442   3.919
 3855SOL    HW211792   4.102   2.393   3.922
 3856SOL     OW11793   5.071   2.921   4.958
 3856SOL    HW111794   5.095   2.858   4.884
 3856SOL    HW211795   4.981   2.961   4.940
 3857SOL     OW11796   4.976   3.593   4.852
 3857SOL    HW111797   5.060   3.598   4.798
 3857SOL    HW211798   4.953   3.497   4.870
 3858SOL     OW11799   3.807   3.120   4.746
 3858SOL    HW111800   3.802   3.119   4.846
 3858SOL    HW211801   3.724   3.079   4.708
 3859SOL     OW11802   5.112   3.435   4.201
 3859SOL    HW111803   5.179   3.447   4.127
 3859SOL    HW211804   5.072   3.524   4.224
 3860SOL     OW11805   5.004   2.789   4.396
 3860SOL    HW111806   5.064   2.708   4.398
 3860SOL    HW211807   5.044   2.858   4.336
 3861SOL     OW11808   4.396   3.478   3.878
 3861SOL    HW111809   4.405   3.488   3.779
 3861SOL    HW211810   4.356   3.389   3.899
 3862SOL     OW11811   3.987   2.188   4.444
 3862SOL    HW111812   3.908   2.239   4.410
 3862SOL    HW211813   3.978   2.173   4.542
 3863SOL     OW11814   4.918   3.474   3.755
 3863SOL    HW111815   4.924   3.381   3.792
 3863SOL    HW211816   4.859   3.474   3.675
 3864SOL     OW11817   4.546   2.864   5.096
 3864SOL    HW111818   4.586   2.863   5.004
 3864SOL    HW211819   4.556   2.956   5.136
 3865SOL     OW11820   4.640   2.772   4.015
 3865SOL    HW111821   4.703   2.810   3.947
 3865SOL    HW211822   4.680   2.689   4.054
 3866SOL     OW11823   4.763   2.960   4.420
 3866SOL    HW111824   4.693   2.913   4.474
 3866SOL    HW211825   4.822   2.892   4.377
 3867SOL     OW11826   4.738   2.098   4.695
 3867SOL    HW111827   4.730   2.062   4.602
 3867SOL    HW211828   4.736   2.022   4.760
 3868SOL     OW11829   4.314   3.349   4.215
 3868SOL    HW111830   4.356   3.291   4.145
 3868SOL    HW211831   4.270   3.428   4.171
 3869SOL     OW11832   3.979   3.210   4.014
 3869SOL    HW111833   3.883   3.211   3.987
 3869SOL    HW211834   3.991   3.263   4.098
 3870SOL     OW11835   3.799   2.207   3.757
 3870SOL    HW111836   3.707   2.179   3.728
 3870SOL    HW211837   3.830   2.284   3.701
 3871SOL     OW11838   3.796   2.028   4.042
 3871SOL    HW111839   3.779   2.111   3.988
 3871SOL    HW211840   3.886   1.991   4.020
 3872SOL     OW11841   4.949   2.187   4.173
 3872SOL    HW111842   5.014   2.113   4.162
 3872SOL    HW211843   4.969   2.237   4.257
 3873SOL     OW11844   4.318   2.607   4.376
 3873SOL    HW111845   4.368   2.692   4.357
 3873SOL    HW211846   4.230   2.609   4.328
 3874SOL     OW11847   4.583   3.236   3.740
 3874SOL    HW111848   4.537   3.251   3.828
 3874SOL    HW211849   4.627   3.321   3.710
 3875SOL     OW11850   4.385   3.652   4.677
 3875SOL    HW111851   4.339   3.740   4.664
 3875SOL    HW211852   4.484   3.664   4.670
 3876SOL     OW11853   4.583   2.818   4.585
 3876SOL    HW111854   4.637   2.749   4.633
 3876SOL    HW211855   4.551   2.887   4.651
 3877SOL     OW11856   4.807   2.846   3.811
 3877SOL    HW111857   4.784   2.899   3.729
 3877SOL    HW211858   4.888   2.790   3.792
 3878SOL     OW11859   3.803   3.102   4.377
 3878SOL    HW111860   3.802   3.055   4.465
 3878SOL    HW211861   3.885   3.074   4.326
 3879SOL     OW11862   4.152   2.286   4.244
 3879SOL    HW111863   4.182   2.214   4.182
 3879SOL    HW211864   4.113   2.246   4.327
 3880SOL     OW11865   4.536   3.448   4.411
 3880SOL    HW111866   4.568   3.458   4.317
 3880SOL    HW211867   4.457   3.386   4.413
 3881SOL     OW11868   4.725   1.896   4.878
 3881SOL    HW111869   4.662   1.824   4.847
 3881SOL    HW211870   4.818   1.860   4.878
 3882SOL     OW11871   4.494   3.192   4.025
 3882SOL    HW111872   4.448   3.105   4.042
 3882SOL    HW211873   4.585   3.189   4.066
 3883SOL     OW11874   5.076   1.914   3.892
 3883SOL    HW111875   5.111   1.873   3.808
 3883SOL    HW211876   4.986   1.876   3.912
 3884SOL     OW11877   3.763   2.939   4.024
 3884SOL    HW111878   3.862   2.928   4.015
 3884SOL    HW211879   3.723   2.853   4.056
 3885SOL     OW11880   4.599   3.508   4.061
 3885SOL    HW111881   4.522   3.473   4.007
 3885SOL    HW211882   4.567   3.579   4.123
 3886SOL     OW11883   3.954   4.352   0.113
 3886SOL    HW111884   3.861   4.350   0.150
 3886SOL    HW211885   3.955   4.313   0.021
 3887SOL     OW11886   3.949   3.999   0.996
 3887SOL    HW111887   3.984   3.982   1.088
 3887SOL    HW211888   3.861   3.954   0.984
 3888SOL     OW11889   3.743   4.092   0.647
 3888SOL    HW111890   3.661   4.135   0.686
 3888SOL    HW211891   3.715   4.019   0.584
 3889SOL     OW11892   4.293   4.999   1.165
 3889SOL    HW111893   4.200   4.992   1.128
 3889SOL    HW211894   4.304   5.088   1.209
 3890SOL     OW11895   4.859   4.427   0.717
 3890SOL    HW111896   4.916   4.505   0.692
 3890SOL    HW211897   4.799   4.453   0.793
 3891SOL     OW11898   4.492   4.868   1.023
 3891SOL    HW111899   4.414   4.885   1.083
 3891SOL    HW211900   4.526   4.955   0.987
 3892SOL     OW11901   4.574   4.522   1.823
 3892SOL    HW111902   4.570   4.598   1.888
 3892SOL    HW211903   4.596   4.558   1.732
 3893SOL     OW11904   4.409   4.736   0.665
 3893SOL    HW111905   4.478   4.720   0.735
 3893SOL    HW211906   4.336   4.793   0.703
 3894SOL     OW11907   4.410   4.885   1.803
 3894SOL    HW111908   4.470   4.964   1.817
 3894SOL    HW211909   4.324   4.916   1.762
 3895SOL     OW11910   4.059   5.159   1.061
 3895SOL    HW111911   3.981   5.128   1.008
 3895SOL    HW211912   4.117   5.217   1.004
 3896SOL     OW11913   4.162   4.116   1.499
 3896SOL    HW111914   4.244   4.060   1.508
 3896SOL    HW211915   4.081   4.058   1.503
 3897SOL     OW11916   3.964   4.815   0.886
 3897SOL    HW111917   3.978   4.731   0.938
 3897SOL    HW211918   3.909   4.879   0.941
 3898SOL     OW11919   3.846   4.367   0.563
 3898SOL    HW111920   3.801   4.279   0.580
 3898SOL    HW211921   3.845   4.421   0.647
 3899SOL     OW11922   3.837   4.461   1.597
 3899SOL    HW111923   3.925   4.448   1.642
 3899SOL    HW211924   3.824   4.558   1.575
 3900SOL     OW11925   5.017   4.952   1.423
 3900SOL    HW111926   5.054   4.879   1.365
 3900SOL    HW211927   5.069   4.957   1.508
 3901SOL     OW11928   4.533   3.728   0.502
 3901SOL    HW111929   4.573   3.819   0.493
 3901SOL    HW211930   4.433   3.736   0.508
 3902SOL     OW11931   3.921   4.700   1.264
 3902SOL    HW111932   4.010   4.655   1.250
 3902SOL    HW211933   3.848   4.635   1.245
 3903SOL     OW11934   4.041   3.975   1.801
 3903SOL    HW111935   4.112   4.046   1.807
 3903SOL    HW211936   3.953   4.014   1.829
 3904SOL     OW11937   5.005   4.069   0.944
 3904SOL    HW111938   4.919   4.019   0.931
 3904SOL    HW211939   5.067   4.015   1.000
 3905SOL     OW11940   4.531   4.329   1.465
 3905SOL    HW111941   4.484   4.326   1.554
 3905SOL    HW211942   4.480   4.274   1.399
 3906SOL     OW11943   4.697   4.614   1.572
 3906SOL    HW111944   4.743   4.530   1.543
 3906SOL    HW211945   4.641   4.648   1.497
 3907SOL     OW11946   4.715   4.134   1.242
 3907SOL    HW111947   4.638   4.168   1.296
 3907SOL    HW211948   4.681   4.083   1.163
 3908SOL     OW11949   4.765   4.425   0.429
 3908SOL    HW111950   4.791   4.421   0.525
 3908SOL    HW211951   4.680   4.374   0.415
 3909SOL     OW11952   3.800   4.535   0.789
 3909SOL    HW111953   3.899   4.523   0.798
 3909SOL    HW211954   3.776   4.630   0.810
 3910SOL     OW11955   4.589   4.072   0.195
 3910SOL    HW111956   4.648   4.135   0.146
 3910SOL    HW211957   4.608   3.978   0.166
 3911SOL     OW11958   4.274   3.920   0.885
 3911SOL    HW111959   4.269   3.915   0.985
 3911SOL    HW211960   4.276   4.016   0.856
 3912SOL     OW11961   3.926   4.009   1.498
 3912SOL    HW111962   3.846   4.069   1.485
 3912SOL    HW211963   3.916   3.960   1.584
 3913SOL     OW11964   4.106   4.424   0.480
 3913SOL    HW111965   4.151   4.334   0.477
 3913SOL    HW211966   4.012   4.413   0.513
 3914SOL     OW11967   4.505   3.988   1.749
 3914SOL    HW111968   4.572   3.927   1.792
 3914SOL    HW211969   4.432   4.007   1.814
 3915SOL     OW11970   4.527   5.126   0.924
 3915SOL    HW111971   4.617   5.140   0.882
 3915SOL    HW211972   4.456   5.128   0.853
 3916SOL     OW11973   4.646   4.227   0.899
 3916SOL    HW111974   4.621   4.218   0.803
 3916SOL    HW211975   4.694   4.145   0.930
 3917SOL     OW11976   4.263   3.788   0.512
 3917SOL    HW111977   4.182   3.789   0.570
 3917SOL    HW211978   4.266   3.871   0.457
 3918SOL     OW11979   4.021   3.759   0.171
 3918SOL    HW111980   4.070   3.843   0.150
 3918SOL    HW211981   4.083   3.694   0.216
 3919SOL     OW11982   4.659   3.960   0.480
 3919SOL    HW111983   4.611   4.001   0.402
 3919SOL    HW211984   4.758   3.958   0.461
 3920SOL     OW11985   4.800   4.407   1.464
 3920SOL    HW111986   4.720   4.346   1.467
 3920SOL    HW211987   4.881   4.354   1.440
 3921SOL     OW11988   4.951   5.294   0.793
 3921SOL    HW111989   4.972   5.368   0.728
 3921SOL    HW211990   5.019   5.294   0.866
 3922SOL     OW11991   4.183   4.876   0.741
 3922SOL    HW111992   4.112   4.849   0.806
 3922SOL    HW211993   4.157   4.848   0.648
 3923SOL     OW11994   4.756   4.273   0.016
 3923SOL    HW111995   4.715   4.355  -0.023
 3923SOL    HW211996   4.820   4.299   0.089
 3924SOL     OW11997   3.802   4.280   1.386
 3924SOL    HW111998   3.894   4.279   1.345
 3924SOL    HW211999   3.796   4.354   1.453
 3925SOL     OW12000   4.285   3.946   1.147
 3925SOL    HW112001   4.323   3.862   1.184
 3925SOL    HW212002   4.197   3.965   1.191
 3926SOL     OW12003   4.590   4.178   0.642
 3926SOL    HW112004   4.558   4.250   0.580
 3926SOL    HW212005   4.614   4.097   0.589
 3927SOL     OW12006   4.741   3.763   0.753
 3927SOL    HW112007   4.669   3.768   0.684
 3927SOL    HW212008   4.717   3.694   0.822
 3928SOL     OW12009   4.251   3.980   0.328
 3928SOL    HW112010   4.278   3.921   0.253
 3928SOL    HW212011   4.251   4.075   0.297
 3929SOL     OW12012   4.639   3.813   1.402
 3929SOL    HW112013   4.664   3.793   1.307
 3929SOL    HW212014   4.711   3.869   1.444
 3930SOL     OW12015   4.704   4.840   1.719
 3930SOL    HW112016   4.605   4.846   1.729
 3930SOL    HW212017   4.727   4.760   1.663
 3931SOL     OW12018   4.134   4.537   1.251
 3931SOL    HW112019   4.220   4.549   1.301
 3931SOL    HW212020   4.092   4.450   1.278
 3932SOL     OW12021   4.998   4.110   1.262
 3932SOL    HW112022   5.019   4.184   1.326
 3932SOL    HW212023   4.909   4.127   1.219
 3933SOL     OW12024   4.091   4.824   0.501
 3933SOL    HW112025   4.084   4.907   0.445
 3933SOL    HW212026   4.095   4.744   0.441
 3934SOL     OW12027   4.290   4.261   0.865
 3934SOL    HW112028   4.302   4.327   0.791
 3934SOL    HW212029   4.336   4.295   0.948
 3935SOL     OW12030   4.976   5.072   0.388
 3935SOL    HW112031   5.026   5.149   0.428
 3935SOL    HW212032   4.881   5.074   0.420
 3936SOL     OW12033   4.126   4.475   1.598
 3936SOL    HW112034   4.194   4.530   1.551
 3936SOL    HW212035   4.166   4.387   1.625
 3937SOL     OW12036   4.737   3.829   1.770
 3937SOL    HW112037   4.743   3.914   1.718
 3937SOL    HW212038   4.769   3.753   1.713
 3938SOL     OW12039   4.228   3.774   1.740
 3938SOL    HW112040   4.186   3.717   1.670
 3938SOL    HW212041   4.162   3.843   1.772
 3939SOL     OW12042   4.297   4.594   1.029
 3939SOL    HW112043   4.341   4.683   1.020
 3939SOL    HW212044   4.234   4.594   1.106
 3940SOL     OW12045   5.084   4.586   1.045
 3940SOL    HW112046   5.009   4.586   0.979
 3940SOL    HW212047   5.121   4.494   1.054
 3941SOL     OW12048   4.933   4.249   0.275
 3941SOL    HW112049   4.946   4.165   0.329
 3941SOL    HW212050   4.904   4.323   0.335
 3942SOL     OW12051   4.031   3.937   1.231
 3942SOL    HW112052   4.008   3.974   1.321
 3942SOL    HW212053   4.001   3.842   1.225
 3943SOL     OW12054   4.456   4.358   1.064
 3943SOL    HW112055   4.515   4.332   0.988
 3943SOL    HW212056   4.428   4.454   1.053
 3944SOL     OW12057   4.031   3.787   0.618
 3944SOL    HW112058   4.020   3.881   0.651
 3944SOL    HW212059   4.026   3.724   0.695
 3945SOL     OW12060   5.346   4.091   0.374
 3945SOL    HW112061   5.348   4.015   0.438
 3945SOL    HW212062   5.298   4.168   0.414
 3946SOL     OW12063   4.747   4.490   0.966
 3946SOL    HW112064   4.762   4.511   1.062
 3946SOL    HW212065   4.717   4.395   0.957
 3947SOL     OW12066   4.074   4.622   1.804
 3947SOL    HW112067   4.150   4.666   1.852
 3947SOL    HW212068   4.109   4.575   1.722
 3948SOL     OW12069   5.027   4.562   0.042
 3948SOL    HW112070   5.061   4.469   0.057
 3948SOL    HW212071   5.045   4.589  -0.053
 3949SOL     OW12072   4.043   4.534   0.949
 3949SOL    HW112073   4.136   4.570   0.954
 3949SOL    HW212074   4.037   4.449   1.001
 3950SOL     OW12075   4.063   4.233   1.006
 3950SOL    HW112076   4.011   4.150   0.989
 3950SOL    HW212077   4.140   4.238   0.942
 3951SOL     OW12078   4.862   4.104   1.678
 3951SOL    HW112079   4.817   4.167   1.742
 3951SOL    HW212080   4.955   4.135   1.661
 3952SOL     OW12081   4.884   3.931   1.477
 3952SOL    HW112082   4.884   3.995   1.554
 3952SOL    HW212083   4.912   3.979   1.394
 3953SOL     OW12084   4.726   4.520   1.238
 3953SOL    HW112085   4.767   4.488   1.324
 3953SOL    HW212086   4.630   4.493   1.235
 3954SOL     OW12087   3.764   4.268   1.114
 3954SOL    HW112088   3.849   4.235   1.073
 3954SOL    HW212089   3.777   4.283   1.212
 3955SOL     OW12090   3.913   4.244   1.722
 3955SOL    HW112091   3.972   4.204   1.652
 3955SOL    HW212092   3.855   4.315   1.681
 3956SOL     OW12093   4.539   4.296   0.325
 3956SOL    HW112094   4.546   4.207   0.279
 3956SOL    HW212095   4.445   4.330   0.317
 3957SOL     OW12096   4.395   4.188   1.269
 3957SOL    HW112097   4.361   4.099   1.239
 3957SOL    HW212098   4.421   4.242   1.189
 3958SOL     OW12099   4.197   4.224   0.191
 3958SOL    HW112100   4.258   4.304   0.195
 3958SOL    HW212101   4.102   4.255   0.198
 3959SOL     OW12102   3.883   4.861   1.466
 3959SOL    HW112103   3.905   4.800   1.542
 3959SOL    HW212104   3.893   4.812   1.380
 3960SOL     OW12105   5.071   4.783   1.234
 3960SOL    HW112106   5.095   4.720   1.160
 3960SOL    HW212107   4.981   4.823   1.216
 3961SOL     OW12108   3.807   4.982   1.022
 3961SOL    HW112109   3.802   4.981   1.122
 3961SOL    HW212110   3.724   4.941   0.984
 3962SOL     OW12111   4.627   3.810   0.133
 3962SOL    HW112112   4.678   3.811   0.047
 3962SOL    HW212113   4.683   3.768   0.204
 3963SOL     OW12114   5.004   4.651   0.672
 3963SOL    HW112115   5.064   4.570   0.674
 3963SOL    HW212116   5.044   4.720   0.612
 3964SOL     OW12117   4.554   4.997   1.422
 3964SOL    HW112118   4.549   5.030   1.517
 3964SOL    HW212119   4.468   5.016   1.376
 3965SOL     OW12120   3.987   4.050   0.720
 3965SOL    HW112121   3.908   4.101   0.686
 3965SOL    HW212122   3.978   4.035   0.818
 3966SOL     OW12123   4.546   4.726   1.372
 3966SOL    HW112124   4.586   4.725   1.280
 3966SOL    HW212125   4.556   4.818   1.412
 3967SOL     OW12126   4.640   4.634   0.291
 3967SOL    HW112127   4.703   4.672   0.223
 3967SOL    HW212128   4.680   4.551   0.330
 3968SOL     OW12129   4.096   5.012   1.490
 3968SOL    HW112130   4.083   5.105   1.456
 3968SOL    HW212131   4.012   4.960   1.477
 3969SOL     OW12132   4.763   4.822   0.696
 3969SOL    HW112133   4.693   4.775   0.750
 3969SOL    HW212134   4.822   4.754   0.653
 3970SOL     OW12135   4.738   3.960   0.971
 3970SOL    HW112136   4.730   3.924   0.878
 3970SOL    HW212137   4.736   3.884   1.036
 3971SOL     OW12138   3.829   4.737   1.726
 3971SOL    HW112139   3.752   4.704   1.780
 3971SOL    HW212140   3.914   4.707   1.768
 3972SOL     OW12141   4.396   3.927   1.489
 3972SOL    HW112142   4.486   3.911   1.449
 3972SOL    HW212143   4.404   3.932   1.588
 3973SOL     OW12144   5.164   4.580   1.398
 3973SOL    HW112145   5.107   4.632   1.335
 3973SOL    HW212146   5.260   4.592   1.374
 3974SOL     OW12147   3.796   3.890   0.318
 3974SOL    HW112148   3.779   3.973   0.264
 3974SOL    HW212149   3.886   3.853   0.296
 3975SOL     OW12150   4.337   4.566   1.431
 3975SOL    HW112151   4.393   4.647   1.414
 3975SOL    HW212152   4.396   4.486   1.434
 3976SOL     OW12153   4.440   4.289   1.708
 3976SOL    HW112154   4.459   4.354   1.782
 3976SOL    HW212155   4.500   4.209   1.717
 3977SOL     OW12156   5.174   4.944   1.633
 3977SOL    HW112157   5.165   4.934   1.732
 3977SOL    HW212158   5.270   4.937   1.607
 3978SOL     OW12159   4.949   4.049   0.449
 3978SOL    HW112160   5.014   3.975   0.438
 3978SOL    HW212161   4.969   4.099   0.533
 3979SOL     OW12162   4.318   4.469   0.652
 3979SOL    HW112163   4.368   4.554   0.633
 3979SOL    HW212164   4.230   4.471   0.604
 3980SOL     OW12165   4.583   4.680   0.861
 3980SOL    HW112166   4.637   4.611   0.909
 3980SOL    HW212167   4.551   4.749   0.927
 3981SOL     OW12168   4.807   4.708   0.087
 3981SOL    HW112169   4.784   4.761   0.005
 3981SOL    HW212170   4.888   4.652   0.068
 3982SOL     OW12171   3.803   4.964   0.653
 3982SOL    HW112172   3.802   4.917   0.741
 3982SOL    HW212173   3.885   4.936   0.602
 3983SOL     OW12174   4.152   4.148   0.520
 3983SOL    HW112175   4.182   4.076   0.458
 3983SOL    HW212176   4.113   4.108   0.603
 3984SOL     OW12177   4.041   4.271   1.280
 3984SOL    HW112178   4.079   4.212   1.352
 3984SOL    HW212179   4.081   4.245   1.192
 3985SOL     OW12180   4.725   3.758   1.154
 3985SOL    HW112181   4.662   3.686   1.123
 3985SOL    HW212182   4.818   3.722   1.154
 3986SOL     OW12183   3.763   4.801   0.300
 3986SOL    HW112184   3.862   4.790   0.291
 3986SOL    HW212185   3.723   4.715   0.332
 3987SOL     OW12186   3.954   4.352   1.975
 3987SOL    HW112187   3.861   4.350   2.012
 3987SOL    HW212188   3.955   4.313   1.883
 3988SOL     OW12189   3.949   3.999   2.858
 3988SOL    HW112190   3.984   3.982   2.950
 3988SOL    HW212191   3.861   3.954   2.846
 3989SOL     OW12192   3.743   4.092   2.509
 3989SOL    HW112193   3.661   4.135   2.548
 3989SOL    HW212194   3.715   4.019   2.446
 3990SOL     OW12195   4.293   4.999   3.027
 3990SOL    HW112196   4.200   4.992   2.990
 3990SOL    HW212197   4.304   5.088   3.071
 3991SOL     OW12198   4.859   4.427   2.579
 3991SOL    HW112199   4.916   4.505   2.554
 3991SOL    HW212200   4.799   4.453   2.655
 3992SOL     OW12201   4.492   4.868   2.885
 3992SOL    HW112202   4.414   4.885   2.945
 3992SOL    HW212203   4.526   4.955   2.849
 3993SOL     OW12204   4.574   4.522   3.685
 3993SOL    HW112205   4.570   4.598   3.750
 3993SOL    HW212206   4.596   4.558   3.594
 3994SOL     OW12207   4.409   4.736   2.527
 3994SOL    HW112208   4.478   4.720   2.597
 3994SOL    HW212209   4.336   4.793   2.565
 3995SOL     OW12210   4.410   4.885   3.665
 3995SOL    HW112211   4.470   4.964   3.679
 3995SOL    HW212212   4.324   4.916   3.624
 3996SOL     OW12213   4.059   5.159   2.923
 3996SOL    HW112214   3.981   5.128   2.870
 3996SOL    HW212215   4.117   5.217   2.866
 3997SOL     OW12216   4.162   4.116   3.361
 3997SOL    HW112217   4.244   4.060   3.370
 3997SOL    HW212218   4.081   4.058   3.365
 3998SOL     OW12219   3.964   4.815   2.748
 3998SOL    HW112220   3.978   4.731   2.800
 3998SOL    HW212221   3.909   4.879   2.803
 3999SOL     OW12222   4.330   4.688   1.985
 3999SOL    HW112223   4.337   4.772   1.931
 3999SOL    HW212224   4.376   4.701   2.073
 4000SOL     OW12225   3.846   4.367   2.425
 4000SOL    HW112226   3.801   4.279   2.442
 4000SOL    HW212227   3.845   4.421   2.509
 4001SOL     OW12228   3.837   4.461   3.459
 4001SOL    HW112229   3.925   4.448   3.504
 4001SOL    HW212230   3.824   4.558   3.437
 4002SOL     OW12231   5.017   4.952   3.285
 4002SOL    HW112232   5.054   4.879   3.227
 4002SOL    HW212233   5.069   4.957   3.370
 4003SOL     OW12234   4.533   3.728   2.364
 4003SOL    HW112235   4.573   3.819   2.355
 4003SOL    HW212236   4.433   3.736   2.370
 4004SOL     OW12237   3.921   4.700   3.126
 4004SOL    HW112238   4.010   4.655   3.112
 4004SOL    HW212239   3.848   4.635   3.107
 4005SOL     OW12240   4.041   3.975   3.663
 4005SOL    HW112241   4.112   4.046   3.669
 4005SOL    HW212242   3.953   4.014   3.691
 4006SOL     OW12243   4.322   4.453   2.132
 4006SOL    HW112244   4.346   4.522   2.064
 4006SOL    HW212245   4.244   4.486   2.186
 4007SOL     OW12246   5.005   4.069   2.806
 4007SOL    HW112247   4.919   4.019   2.793
 4007SOL    HW212248   5.067   4.015   2.862
 4008SOL     OW12249   4.531   4.329   3.327
 4008SOL    HW112250   4.484   4.326   3.416
 4008SOL    HW212251   4.480   4.274   3.261
 4009SOL     OW12252   4.697   4.614   3.434
 4009SOL    HW112253   4.743   4.530   3.405
 4009SOL    HW212254   4.641   4.648   3.359
 4010SOL     OW12255   4.715   4.134   3.104
 4010SOL    HW112256   4.638   4.168   3.158
 4010SOL    HW212257   4.681   4.083   3.025
 4011SOL     OW12258   4.765   4.425   2.291
 4011SOL    HW112259   4.791   4.421   2.387
 4011SOL    HW212260   4.680   4.374   2.277
 4012SOL     OW12261   3.800   4.535   2.651
 4012SOL    HW112262   3.899   4.523   2.660
 4012SOL    HW212263   3.776   4.630   2.672
 4013SOL     OW12264   4.589   4.072   2.057
 4013SOL    HW112265   4.648   4.135   2.008
 4013SOL    HW212266   4.608   3.978   2.028
 4014SOL     OW12267   4.274   3.920   2.747
 4014SOL    HW112268   4.269   3.915   2.847
 4014SOL    HW212269   4.276   4.016   2.718
 4015SOL     OW12270   4.045   4.667   2.104
 4015SOL    HW112271   4.127   4.706   2.062
 4015SOL    HW212272   4.018   4.585   2.055
 4016SOL     OW12273   3.926   4.009   3.360
 4016SOL    HW112274   3.846   4.069   3.347
 4016SOL    HW212275   3.916   3.960   3.446
 4017SOL     OW12276   4.106   4.424   2.342
 4017SOL    HW112277   4.151   4.334   2.339
 4017SOL    HW212278   4.012   4.413   2.375
 4018SOL     OW12279   4.338   3.846   1.979
 4018SOL    HW112280   4.436   3.824   1.986
 4018SOL    HW212281   4.307   3.829   1.886
 4019SOL     OW12282   4.505   3.988   3.611
 4019SOL    HW112283   4.572   3.927   3.654
 4019SOL    HW212284   4.432   4.007   3.676
 4020SOL     OW12285   4.527   5.126   2.786
 4020SOL    HW112286   4.617   5.140   2.744
 4020SOL    HW212287   4.456   5.128   2.715
 4021SOL     OW12288   4.646   4.227   2.761
 4021SOL    HW112289   4.621   4.218   2.665
 4021SOL    HW212290   4.694   4.145   2.792
 4022SOL     OW12291   4.263   3.788   2.374
 4022SOL    HW112292   4.182   3.789   2.432
 4022SOL    HW212293   4.266   3.871   2.319
 4023SOL     OW12294   5.158   4.912   1.903
 4023SOL    HW112295   5.190   4.836   1.960
 4023SOL    HW212296   5.066   4.939   1.933
 4024SOL     OW12297   4.021   3.759   2.033
 4024SOL    HW112298   4.070   3.843   2.012
 4024SOL    HW212299   4.083   3.694   2.078
 4025SOL     OW12300   4.659   3.960   2.342
 4025SOL    HW112301   4.611   4.001   2.264
 4025SOL    HW212302   4.758   3.958   2.323
 4026SOL     OW12303   4.800   4.407   3.326
 4026SOL    HW112304   4.720   4.346   3.329
 4026SOL    HW212305   4.881   4.354   3.302
 4027SOL     OW12306   4.951   5.294   2.655
 4027SOL    HW112307   4.972   5.368   2.590
 4027SOL    HW212308   5.019   5.294   2.728
 4028SOL     OW12309   4.183   4.876   2.603
 4028SOL    HW112310   4.112   4.849   2.668
 4028SOL    HW212311   4.157   4.848   2.510
 4029SOL     OW12312   4.756   4.273   1.878
 4029SOL    HW112313   4.715   4.355   1.839
 4029SOL    HW212314   4.820   4.299   1.951
 4030SOL     OW12315   3.802   4.280   3.248
 4030SOL    HW112316   3.894   4.279   3.207
 4030SOL    HW212317   3.796   4.354   3.315
 4031SOL     OW12318   4.285   3.946   3.009
 4031SOL    HW112319   4.323   3.862   3.046
 4031SOL    HW212320   4.197   3.965   3.053
 4032SOL     OW12321   4.590   4.178   2.504
 4032SOL    HW112322   4.558   4.250   2.442
 4032SOL    HW212323   4.614   4.097   2.451
 4033SOL     OW12324   4.741   3.763   2.615
 4033SOL    HW112325   4.669   3.768   2.546
 4033SOL    HW212326   4.717   3.694   2.684
 4034SOL     OW12327   4.251   3.980   2.190
 4034SOL    HW112328   4.278   3.921   2.115
 4034SOL    HW212329   4.251   4.075   2.159
 4035SOL     OW12330   4.639   3.813   3.264
 4035SOL    HW112331   4.664   3.793   3.169
 4035SOL    HW212332   4.711   3.869   3.306
 4036SOL     OW12333   4.704   4.840   3.581
 4036SOL    HW112334   4.605   4.846   3.591
 4036SOL    HW212335   4.727   4.760   3.525
 4037SOL     OW12336   4.429   4.774   2.230
 4037SOL    HW112337   4.415   4.781   2.329
 4037SOL    HW212338   4.513   4.723   2.212
 4038SOL     OW12339   4.134   4.537   3.113
 4038SOL    HW112340   4.220   4.549   3.163
 4038SOL    HW212341   4.092   4.450   3.140
 4039SOL     OW12342   4.998   4.110   3.124
 4039SOL    HW112343   5.019   4.184   3.188
 4039SOL    HW212344   4.909   4.127   3.081
 4040SOL     OW12345   4.091   4.824   2.363
 4040SOL    HW112346   4.084   4.907   2.307
 4040SOL    HW212347   4.095   4.744   2.303
 4041SOL     OW12348   4.290   4.261   2.727
 4041SOL    HW112349   4.302   4.327   2.653
 4041SOL    HW212350   4.336   4.295   2.810
 4042SOL     OW12351   4.976   5.072   2.250
 4042SOL    HW112352   5.026   5.149   2.290
 4042SOL    HW212353   4.881   5.074   2.282
 4043SOL     OW12354   4.126   4.475   3.460
 4043SOL    HW112355   4.194   4.530   3.413
 4043SOL    HW212356   4.166   4.387   3.487
 4044SOL     OW12357   4.737   3.829   3.632
 4044SOL    HW112358   4.743   3.914   3.580
 4044SOL    HW212359   4.769   3.753   3.575
 4045SOL     OW12360   4.228   3.774   3.602
 4045SOL    HW112361   4.186   3.717   3.532
 4045SOL    HW212362   4.162   3.843   3.634
 4046SOL     OW12363   4.297   4.594   2.891
 4046SOL    HW112364   4.341   4.683   2.882
 4046SOL    HW212365   4.234   4.594   2.968
 4047SOL     OW12366   5.084   4.586   2.907
 4047SOL    HW112367   5.009   4.586   2.841
 4047SOL    HW212368   5.121   4.494   2.916
 4048SOL     OW12369   4.933   4.249   2.137
 4048SOL    HW112370   4.946   4.165   2.191
 4048SOL    HW212371   4.904   4.323   2.197
 4049SOL     OW12372   4.031   3.937   3.093
 4049SOL    HW112373   4.008   3.974   3.183
 4049SOL    HW212374   4.001   3.842   3.087
 4050SOL     OW12375   4.456   4.358   2.926
 4050SOL    HW112376   4.515   4.332   2.850
 4050SOL    HW212377   4.428   4.454   2.915
 4051SOL     OW12378   4.031   3.787   2.480
 4051SOL    HW112379   4.020   3.881   2.513
 4051SOL    HW212380   4.026   3.724   2.557
 4052SOL     OW12381   5.346   4.091   2.236
 4052SOL    HW112382   5.348   4.015   2.300
 4052SOL    HW212383   5.298   4.168   2.276
 4053SOL     OW12384   4.747   4.490   2.828
 4053SOL    HW112385   4.762   4.511   2.924
 4053SOL    HW212386   4.717   4.395   2.819
 4054SOL     OW12387   4.074   4.622   3.666
 4054SOL    HW112388   4.150   4.666   3.714
 4054SOL    HW212389   4.109   4.575   3.584
 4055SOL     OW12390   5.027   4.562   1.904
 4055SOL    HW112391   5.061   4.469   1.919
 4055SOL    HW212392   5.045   4.589   1.809
 4056SOL     OW12393   4.043   4.534   2.811
 4056SOL    HW112394   4.136   4.570   2.816
 4056SOL    HW212395   4.037   4.449   2.863
 4057SOL     OW12396   4.063   4.233   2.868
 4057SOL    HW112397   4.011   4.150   2.851
 4057SOL    HW212398   4.140   4.238   2.804
 4058SOL     OW12399   4.862   4.104   3.540
 4058SOL    HW112400   4.817   4.167   3.604
 4058SOL    HW212401   4.955   4.135   3.523
 4059SOL     OW12402   4.884   3.931   3.339
 4059SOL    HW112403   4.884   3.995   3.416
 4059SOL    HW212404   4.912   3.979   3.256
 4060SOL     OW12405   3.732   5.050   2.062
 4060SOL    HW112406   3.639   5.071   2.031
 4060SOL    HW212407   3.742   4.951   2.075
 4061SOL     OW12408   4.726   4.520   3.100
 4061SOL    HW112409   4.767   4.488   3.186
 4061SOL    HW212410   4.630   4.493   3.097
 4062SOL     OW12411   3.764   4.268   2.976
 4062SOL    HW112412   3.849   4.235   2.935
 4062SOL    HW212413   3.777   4.283   3.074
 4063SOL     OW12414   3.913   4.244   3.584
 4063SOL    HW112415   3.972   4.204   3.514
 4063SOL    HW212416   3.855   4.315   3.543
 4064SOL     OW12417   4.539   4.296   2.187
 4064SOL    HW112418   4.546   4.207   2.141
 4064SOL    HW212419   4.445   4.330   2.179
 4065SOL     OW12420   4.395   4.188   3.131
 4065SOL    HW112421   4.361   4.099   3.101
 4065SOL    HW212422   4.421   4.242   3.051
 4066SOL     OW12423   4.197   4.224   2.053
 4066SOL    HW112424   4.258   4.304   2.057
 4066SOL    HW212425   4.102   4.255   2.060
 4067SOL     OW12426   3.883   4.861   3.328
 4067SOL    HW112427   3.905   4.800   3.404
 4067SOL    HW212428   3.893   4.812   3.242
 4068SOL     OW12429   5.071   4.783   3.096
 4068SOL    HW112430   5.095   4.720   3.022
 4068SOL    HW212431   4.981   4.823   3.078
 4069SOL     OW12432   3.807   4.982   2.884
 4069SOL    HW112433   3.802   4.981   2.984
 4069SOL    HW212434   3.724   4.941   2.846
 4070SOL     OW12435   5.004   4.651   2.534
 4070SOL    HW112436   5.064   4.570   2.536
 4070SOL    HW212437   5.044   4.720   2.474
 4071SOL     OW12438   4.554   4.997   3.284
 4071SOL    HW112439   4.549   5.030   3.379
 4071SOL    HW212440   4.468   5.016   3.238
 4072SOL     OW12441   3.987   4.050   2.582
 4072SOL    HW112442   3.908   4.101   2.548
 4072SOL    HW212443   3.978   4.035   2.680
 4073SOL     OW12444   4.918   5.336   1.893
 4073SOL    HW112445   4.924   5.243   1.930
 4073SOL    HW212446   4.859   5.336   1.813
 4074SOL     OW12447   4.546   4.726   3.234
 4074SOL    HW112448   4.586   4.725   3.142
 4074SOL    HW212449   4.556   4.818   3.274
 4075SOL     OW12450   4.640   4.634   2.153
 4075SOL    HW112451   4.703   4.672   2.085
 4075SOL    HW212452   4.680   4.551   2.192
 4076SOL     OW12453   4.096   5.012   3.352
 4076SOL    HW112454   4.083   5.105   3.318
 4076SOL    HW212455   4.012   4.960   3.339
 4077SOL     OW12456   4.763   4.822   2.558
 4077SOL    HW112457   4.693   4.775   2.612
 4077SOL    HW212458   4.822   4.754   2.515
 4078SOL     OW12459   4.738   3.960   2.833
 4078SOL    HW112460   4.730   3.924   2.740
 4078SOL    HW212461   4.736   3.884   2.898
 4079SOL     OW12462   3.829   4.737   3.588
 4079SOL    HW112463   3.752   4.704   3.642
 4079SOL    HW212464   3.914   4.707   3.630
 4080SOL     OW12465   4.396   3.927   3.351
 4080SOL    HW112466   4.486   3.911   3.311
 4080SOL    HW212467   4.404   3.932   3.450
 4081SOL     OW12468   3.799   4.069   1.895
 4081SOL    HW112469   3.707   4.041   1.866
 4081SOL    HW212470   3.830   4.146   1.839
 4082SOL     OW12471   5.164   4.580   3.260
 4082SOL    HW112472   5.107   4.632   3.197
 4082SOL    HW212473   5.260   4.592   3.236
 4083SOL     OW12474   3.796   3.890   2.180
 4083SOL    HW112475   3.779   3.973   2.126
 4083SOL    HW212476   3.886   3.853   2.158
 4084SOL     OW12477   4.337   4.566   3.293
 4084SOL    HW112478   4.393   4.647   3.276
 4084SOL    HW212479   4.396   4.486   3.296
 4085SOL     OW12480   4.440   4.289   3.570
 4085SOL    HW112481   4.459   4.354   3.644
 4085SOL    HW212482   4.500   4.209   3.579
 4086SOL     OW12483   5.174   4.944   3.495
 4086SOL    HW112484   5.165   4.934   3.594
 4086SOL    HW212485   5.270   4.937   3.469
 4087SOL     OW12486   4.949   4.049   2.311
 4087SOL    HW112487   5.014   3.975   2.300
 4087SOL    HW212488   4.969   4.099   2.395
 4088SOL     OW12489   4.318   4.469   2.514
 4088SOL    HW112490   4.368   4.554   2.495
 4088SOL    HW212491   4.230   4.471   2.466
 4089SOL     OW12492   4.583   4.680   2.723
 4089SOL    HW112493   4.637   4.611   2.771
 4089SOL    HW212494   4.551   4.749   2.789
 4090SOL     OW12495   4.807   4.708   1.949
 4090SOL    HW112496   4.784   4.761   1.867
 4090SOL    HW212497   4.888   4.652   1.930
 4091SOL     OW12498   3.803   4.964   2.515
 4091SOL    HW112499   3.802   4.917   2.603
 4091SOL    HW212500   3.885   4.936   2.464
 4092SOL     OW12501   4.152   4.148   2.382
 4092SOL    HW112502   4.182   4.076   2.320
 4092SOL    HW212503   4.113   4.108   2.465
 4093SOL     OW12504   4.041   4.271   3.142
 4093SOL    HW112505   4.079   4.212   3.214
 4093SOL    HW212506   4.081   4.245   3.054
 4094SOL     OW12507   4.725   3.758   3.016
 4094SOL    HW112508   4.662   3.686   2.985
 4094SOL    HW212509   4.818   3.722   3.016
 4095SOL     OW12510   4.494   5.054   2.163
 4095SOL    HW112511   4.448   4.967   2.180
 4095SOL    HW212512   4.585   5.051   2.204
 4096SOL     OW12513   5.076   3.776   2.030
 4096SOL    HW112514   5.111   3.735   1.946
 4096SOL    HW212515   4.986   3.738   2.050
 4097SOL     OW12516   3.763   4.801   2.162
 4097SOL    HW112517   3.862   4.790   2.153
 4097SOL    HW212518   3.723   4.715   2.194
 4098SOL     OW12519   3.954   4.352   3.837
 4098SOL    HW112520   3.861   4.350   3.874
 4098SOL    HW212521   3.955   4.313   3.745
 4099SOL     OW12522   3.949   3.999   4.720
 4099SOL    HW112523   3.984   3.982   4.812
 4099SOL    HW212524   3.861   3.954   4.708
 4100SOL     OW12525   3.743   4.092   4.371
 4100SOL    HW112526   3.661   4.135   4.410
 4100SOL    HW212527   3.715   4.019   4.308
 4101SOL     OW12528   4.859   4.427   4.441
 4101SOL    HW112529   4.916   4.505   4.416
 4101SOL    HW212530   4.799   4.453   4.517
 4102SOL     OW12531   4.492   4.868   4.747
 4102SOL    HW112532   4.414   4.885   4.807
 4102SOL    HW212533   4.526   4.955   4.711
 4103SOL     OW12534   4.409   4.736   4.389
 4103SOL    HW112535   4.478   4.720   4.459
 4103SOL    HW212536   4.336   4.793   4.427
 4104SOL     OW12537   3.964   4.815   4.610
 4104SOL    HW112538   3.978   4.731   4.662
 4104SOL    HW212539   3.909   4.879   4.665
 4105SOL     OW12540   4.330   4.688   3.847
 4105SOL    HW112541   4.337   4.772   3.793
 4105SOL    HW212542   4.376   4.701   3.935
 4106SOL     OW12543   3.846   4.367   4.287
 4106SOL    HW112544   3.801   4.279   4.304
 4106SOL    HW212545   3.845   4.421   4.371
 4107SOL     OW12546   4.533   3.728   4.226
 4107SOL    HW112547   4.573   3.819   4.217
 4107SOL    HW212548   4.433   3.736   4.232
 4108SOL     OW12549   4.322   4.453   3.994
 4108SOL    HW112550   4.346   4.522   3.926
 4108SOL    HW212551   4.244   4.486   4.048
 4109SOL     OW12552   5.005   4.069   4.668
 4109SOL    HW112553   4.919   4.019   4.655
 4109SOL    HW212554   5.067   4.015   4.724
 4110SOL     OW12555   4.715   4.134   4.966
 4110SOL    HW112556   4.638   4.168   5.020
 4110SOL    HW212557   4.681   4.083   4.887
 4111SOL     OW12558   4.765   4.425   4.153
 4111SOL    HW112559   4.791   4.421   4.249
 4111SOL    HW212560   4.680   4.374   4.139
 4112SOL     OW12561   3.800   4.535   4.513
 4112SOL    HW112562   3.899   4.523   4.522
 4112SOL    HW212563   3.776   4.630   4.534
 4113SOL     OW12564   4.589   4.072   3.919
 4113SOL    HW112565   4.648   4.135   3.870
 4113SOL    HW212566   4.608   3.978   3.890
 4114SOL     OW12567   4.274   3.920   4.609
 4114SOL    HW112568   4.269   3.915   4.709
 4114SOL    HW212569   4.276   4.016   4.580
 4115SOL     OW12570   4.045   4.667   3.966
 4115SOL    HW112571   4.127   4.706   3.924
 4115SOL    HW212572   4.018   4.585   3.917
 4116SOL     OW12573   4.106   4.424   4.204
 4116SOL    HW112574   4.151   4.334   4.201
 4116SOL    HW212575   4.012   4.413   4.237
 4117SOL     OW12576   4.338   3.846   3.841
 4117SOL    HW112577   4.436   3.824   3.848
 4117SOL    HW212578   4.307   3.829   3.748
 4118SOL     OW12579   4.527   5.126   4.648
 4118SOL    HW112580   4.617   5.140   4.606
 4118SOL    HW212581   4.456   5.128   4.577
 4119SOL     OW12582   4.646   4.227   4.623
 4119SOL    HW112583   4.621   4.218   4.527
 4119SOL    HW212584   4.694   4.145   4.654
 4120SOL     OW12585   4.263   3.788   4.236
 4120SOL    HW112586   4.182   3.789   4.294
 4120SOL    HW212587   4.266   3.871   4.181
 4121SOL     OW12588   5.158   4.912   3.765
 4121SOL    HW112589   5.190   4.836   3.822
 4121SOL    HW212590   5.066   4.939   3.795
 4122SOL     OW12591   4.021   3.759   3.895
 4122SOL    HW112592   4.070   3.843   3.874
 4122SOL    HW212593   4.083   3.694   3.940
 4123SOL     OW12594   4.659   3.960   4.204
 4123SOL    HW112595   4.611   4.001   4.126
 4123SOL    HW212596   4.758   3.958   4.185
 4124SOL     OW12597   4.951   5.294   4.517
 4124SOL    HW112598   4.972   5.368   4.452
 4124SOL    HW212599   5.019   5.294   4.590
 4125SOL     OW12600   4.183   4.876   4.465
 4125SOL    HW112601   4.112   4.849   4.530
 4125SOL    HW212602   4.157   4.848   4.372
 4126SOL     OW12603   4.756   4.273   3.740
 4126SOL    HW112604   4.715   4.355   3.701
 4126SOL    HW212605   4.820   4.299   3.813
 4127SOL     OW12606   4.285   3.946   4.871
 4127SOL    HW112607   4.323   3.862   4.908
 4127SOL    HW212608   4.197   3.965   4.915
 4128SOL     OW12609   4.590   4.178   4.366
 4128SOL    HW112610   4.558   4.250   4.304
 4128SOL    HW212611   4.614   4.097   4.313
 4129SOL     OW12612   4.741   3.763   4.477
 4129SOL    HW112613   4.669   3.768   4.408
 4129SOL    HW212614   4.717   3.694   4.546
 4130SOL     OW12615   4.251   3.980   4.052
 4130SOL    HW112616   4.278   3.921   3.977
 4130SOL    HW212617   4.251   4.075   4.021
 4131SOL     OW12618   4.429   4.774   4.092
 4131SOL    HW112619   4.415   4.781   4.191
 4131SOL    HW212620   4.513   4.723   4.074
 4132SOL     OW12621   4.091   4.824   4.225
 4132SOL    HW112622   4.084   4.907   4.169
 4132SOL    HW212623   4.095   4.744   4.165
 4133SOL     OW12624   4.290   4.261   4.589
 4133SOL    HW112625   4.302   4.327   4.515
 4133SOL    HW212626   4.336   4.295   4.672
 4134SOL     OW12627   4.976   5.072   4.112
 4134SOL    HW112628   5.026   5.149   4.152
 4134SOL    HW212629   4.881   5.074   4.144
 4135SOL     OW12630   4.297   4.594   4.753
 4135SOL    HW112631   4.341   4.683   4.744
 4135SOL    HW212632   4.234   4.594   4.830
 4136SOL     OW12633   5.084   4.586   4.769
 4136SOL    HW112634   5.009   4.586   4.703
 4136SOL    HW212635   5.121   4.494   4.778
 4137SOL     OW12636   4.933   4.249   3.999
 4137SOL    HW112637   4.946   4.165   4.053
 4137SOL    HW212638   4.904   4.323   4.059
 4138SOL     OW12639   4.031   3.937   4.955
 4138SOL    HW112640   4.008   3.974   5.045
 4138SOL    HW212641   4.001   3.842   4.949
 4139SOL     OW12642   4.456   4.358   4.788
 4139SOL    HW112643   4.515   4.332   4.712
 4139SOL    HW212644   4.428   4.454   4.777
 4140SOL     OW12645   4.031   3.787   4.342
 4140SOL    HW112646   4.020   3.881   4.375
 4140SOL    HW212647   4.026   3.724   4.419
 4141SOL     OW12648   5.346   4.091   4.098
 4141SOL    HW112649   5.348   4.015   4.162
 4141SOL    HW212650   5.298   4.168   4.138
 4142SOL     OW12651   4.747   4.490   4.690
 4142SOL    HW112652   4.762   4.511   4.786
 4142SOL    HW212653   4.717   4.395   4.681
 4143SOL     OW12654   5.027   4.562   3.766
 4143SOL    HW112655   5.061   4.469   3.781
 4143SOL    HW212656   5.045   4.589   3.671
 4144SOL     OW12657   4.043   4.534   4.673
 4144SOL    HW112658   4.136   4.570   4.678
 4144SOL    HW212659   4.037   4.449   4.725
 4145SOL     OW12660   4.063   4.233   4.730
 4145SOL    HW112661   4.011   4.150   4.713
 4145SOL    HW212662   4.140   4.238   4.666
 4146SOL     OW12663   4.884   3.931   5.201
 4146SOL    HW112664   4.884   3.995   5.278
 4146SOL    HW212665   4.912   3.979   5.118
 4147SOL     OW12666   3.732   5.050   3.924
 4147SOL    HW112667   3.639   5.071   3.893
 4147SOL    HW212668   3.742   4.951   3.937
 4148SOL     OW12669   4.726   4.520   4.962
 4148SOL    HW112670   4.767   4.488   5.048
 4148SOL    HW212671   4.630   4.493   4.959
 4149SOL     OW12672   3.764   4.268   4.838
 4149SOL    HW112673   3.849   4.235   4.797
 4149SOL    HW212674   3.777   4.283   4.936
 4150SOL     OW12675   4.539   4.296   4.049
 4150SOL    HW112676   4.546   4.207   4.003
 4150SOL    HW212677   4.445   4.330   4.041
 4151SOL     OW12678   4.395   4.188   4.993
 4151SOL    HW112679   4.361   4.099   4.963
 4151SOL    HW212680   4.421   4.242   4.913
 4152SOL     OW12681   4.197   4.224   3.915
 4152SOL    HW112682   4.258   4.304   3.919
 4152SOL    HW212683   4.102   4.255   3.922
 4153SOL     OW12684   5.071   4.783   4.958
 4153SOL    HW112685   5.095   4.720   4.884
 4153SOL    HW212686   4.981   4.823   4.940
 4154SOL     OW12687   3.807   4.982   4.746
 4154SOL    HW112688   3.802   4.981   4.846
 4154SOL    HW212689   3.724   4.941   4.708
 4155SOL     OW12690   5.004   4.651   4.396
 4155SOL    HW112691   5.064   4.570   4.398
 4155SOL    HW212692   5.044   4.720   4.336
 4156SOL     OW12693   3.987   4.050   4.444
 4156SOL    HW112694   3.908   4.101   4.410
 4156SOL    HW212695   3.978   4.035   4.542
 4157SOL     OW12696   4.918   5.336   3.755
 4157SOL    HW112697   4.924   5.243   3.792
 4157SOL    HW212698   4.859   5.336   3.675
 4158SOL     OW12699   4.640   4.634   4.015
 4158SOL    HW112700   4.703   4.672   3.947
 4158SOL    HW212701   4.680   4.551   4.054
 4159SOL     OW12702   4.763   4.822   4.420
 4159SOL    HW112703   4.693   4.775   4.474
 4159SOL    HW212704   4.822   4.754   4.377
 4160SOL     OW12705   4.738   3.960   4.695
 4160SOL    HW112706   4.730   3.924   4.602
 4160SOL    HW212707   4.736   3.884   4.760
 4161SOL     OW12708   3.799   4.069   3.757
 4161SOL    HW112709   3.707   4.041   3.728
 4161SOL    HW212710   3.830   4.146   3.701
 4162SOL     OW12711   3.796   3.890   4.042
 4162SOL    HW112712   3.779   3.973   3.988
 4162SOL    HW212713   3.886   3.853   4.020
 4163SOL     OW12714   4.949   4.049   4.173
 4163SOL    HW112715   5.014   3.975   4.162
 4163SOL    HW212716   4.969   4.099   4.257
 4164SOL     OW12717   4.318   4.469   4.376
 4164SOL    HW112718   4.368   4.554   4.357
 4164SOL    HW212719   4.230   4.471   4.328
 4165SOL     OW12720   4.583   4.680   4.585
 4165SOL    HW112721   4.637   4.611   4.633
 4165SOL    HW212722   4.551   4.749   4.651
 4166SOL     OW12723   4.807   4.708   3.811
 4166SOL    HW112724   4.784   4.761   3.729
 4166SOL    HW212725   4.888   4.652   3.792
 4167SOL     OW12726   3.803   4.964   4.377
 4167SOL    HW112727   3.802   4.917   4.465
 4167SOL    HW212728   3.885   4.936   4.326
 4168SOL     OW12729   4.152   4.148   4.244
 4168SOL    HW112730   4.182   4.076   4.182
 4168SOL    HW212731   4.113   4.108   4.327
 4169SOL     OW12732   4.725   3.758   4.878
 4169SOL    HW112733   4.662   3.686   4.847
 4169SOL    HW212734   4.818   3.722   4.878
 4170SOL     OW12735   4.494   5.054   4.025
 4170SOL    HW112736   4.448   4.967   4.042
 4170SOL    HW212737   4.585   5.051   4.066
 4171SOL     OW12738   5.076   3.776   3.892
 4171SOL    HW112739   5.111   3.735   3.808
 4171SOL    HW212740   4.986   3.738   3.912
 4172SOL     OW12741   3.763   4.801   4.024
 4172SOL    HW112742   3.862   4.790   4.015
 4172SOL    HW212743   3.723   4.715   4.056
   5.08970   5.08970   5.08970
