256-Lipid DPPC Bilayer in water
38829
    1DPPC    C1    1   5.861   5.488   5.694
    1DPPC    C2    2   5.873   5.646   5.529
    1DPPC    C3    3   5.735   5.466   5.477
    1DPPC    N4    4   5.779   5.551   5.589
    1DPPC    C5    5   5.672   5.624   5.658
    1DPPC    C6    6   5.583   5.722   5.583
    1DPPC    O7    7   5.638   5.849   5.548
    1DPPC    P8    8   5.515   5.952   5.541
    1DPPC    O9    9   5.600   6.072   5.531
    1DPPC   O10   10   5.442   5.913   5.664
    1DPPC   O11   11   5.432   5.925   5.405
    1DPPC   C12   12   5.458   6.036   5.319
    1DPPC   C13   13   5.414   6.014   5.174
    1DPPC   O14   14   5.279   6.054   5.146
    1DPPC   C15   15   5.261   6.186   5.122
    1DPPC   O16   16   5.348   6.261   5.167
    1DPPC   C17   17   5.125   6.234   5.072
    1DPPC   C18   18   5.129   6.352   4.975
    1DPPC   C19   19   5.014   6.361   4.875
    1DPPC   C20   20   5.016   6.484   4.783
    1DPPC   C21   21   5.131   6.468   4.683
    1DPPC   C22   22   5.126   6.570   4.569
    1DPPC   C23   23   5.236   6.517   4.476
    1DPPC   C24   24   5.228   6.599   4.348
    1DPPC   C25   25   5.310   6.520   4.245
    1DPPC   C26   26   5.294   6.596   4.113
    1DPPC   C27   27   5.353   6.527   3.990
    1DPPC   C28   28   5.320   6.604   3.861
    1DPPC   C29   29   5.378   6.535   3.738
    1DPPC   C30   30   5.328   6.585   3.603
    1DPPC   C31   31   5.355   6.736   3.594
    1DPPC   C32   32   5.461   5.874   5.132
    1DPPC   O33   33   5.555   5.883   5.026
    1DPPC   C34   34   5.644   5.780   5.013
    1DPPC   O35   35   5.644   5.697   5.104
    1DPPC   C36   36   5.735   5.778   4.890
    1DPPC   C37   37   5.717   5.645   4.817
    1DPPC   C38   38   5.804   5.634   4.692
    1DPPC   C39   39   5.948   5.632   4.745
    1DPPC   C40   40   6.054   5.627   4.635
    1DPPC   C41   41   6.047   5.502   4.548
    1DPPC   C42   42   6.100   5.540   4.409
    1DPPC   C43   43   6.085   5.416   4.321
    1DPPC   C44   44   6.140   5.445   4.181
    1DPPC   C45   45   6.117   5.336   4.076
    1DPPC   C46   46   6.158   5.400   3.943
    1DPPC   C47   47   6.070   5.516   3.895
    1DPPC   C48   48   6.134   5.583   3.773
    1DPPC   C49   49   6.043   5.683   3.701
    1DPPC   C50   50   6.018   5.793   3.805
    2DPPC    C1   51   3.525   0.767   1.841
    2DPPC    C2   52   3.681   0.875   1.712
    2DPPC    C3   53   3.476   0.981   1.768
    2DPPC    N4   54   3.586   0.900   1.822
    2DPPC    C5   55   3.635   0.951   1.950
    2DPPC    C6   56   3.699   1.090   1.950
    2DPPC    O7   57   3.720   1.138   2.083
    2DPPC    P8   58   3.814   1.268   2.090
    2DPPC    O9   59   3.750   1.358   1.992
    2DPPC   O10   60   3.957   1.233   2.105
    2DPPC   O11   61   3.763   1.308   2.238
    2DPPC   C12   62   3.833   1.236   2.341
    2DPPC   C13   63   3.815   1.274   2.488
    2DPPC   O14   64   3.920   1.210   2.563
    2DPPC   C15   65   4.044   1.258   2.537
    2DPPC   O16   66   4.059   1.376   2.506
    2DPPC   C17   67   4.158   1.176   2.597
    2DPPC   C18   68   4.125   1.110   2.731
    2DPPC   C19   69   4.226   1.000   2.763
    2DPPC   C20   70   4.204   0.939   2.902
    2DPPC   C21   71   4.326   0.849   2.920
    2DPPC   C22   72   4.302   0.772   3.050
    2DPPC   C23   73   4.257   0.860   3.167
    2DPPC   C24   74   4.233   0.759   3.280
    2DPPC   C25   75   4.205   0.839   3.407
    2DPPC   C26   76   4.102   0.765   3.492
    2DPPC   C27   77   4.047   0.868   3.592
    2DPPC   C28   78   3.966   0.787   3.693
    2DPPC   C29   79   3.959   0.879   3.815
    2DPPC   C30   80   3.879   0.810   3.925
    2DPPC   C31   81   3.735   0.796   3.875
    2DPPC   C32   82   3.671   1.237   2.522
    2DPPC   O33   83   3.646   1.277   2.657
    2DPPC   C34   84   3.519   1.256   2.701
    2DPPC   O35   85   3.425   1.237   2.624
    2DPPC   C36   86   3.490   1.295   2.846
    2DPPC   C37   87   3.358   1.244   2.905
    2DPPC   C38   88   3.348   1.287   3.051
    2DPPC   C39   89   3.476   1.246   3.124
    2DPPC   C40   90   3.469   1.331   3.251
    2DPPC   C41   91   3.467   1.480   3.216
    2DPPC   C42   92   3.503   1.579   3.327
    2DPPC   C43   93   3.460   1.721   3.290
    2DPPC   C44   94   3.308   1.725   3.271
    2DPPC   C45   95   3.259   1.869   3.255
    2DPPC   C46   96   3.123   1.870   3.185
    2DPPC   C47   97   3.088   2.012   3.141
    2DPPC   C48   98   2.962   1.984   3.060
    2DPPC   C49   99   2.837   1.927   3.127
    2DPPC   C50  100   2.735   1.887   3.020
    3DPPC    C1  101   6.493   4.410   5.290
    3DPPC    C2  102   6.517   4.420   5.530
    3DPPC    C3  103   6.587   4.237   5.412
    3DPPC    N4  104   6.582   4.384   5.404
    3DPPC    C5  105   6.703   4.463   5.377
    3DPPC    C6  106   6.704   4.608   5.425
    3DPPC    O7  107   6.616   4.698   5.358
    3DPPC    P8  108   6.629   4.847   5.419
    3DPPC    O9  109   6.678   4.829   5.557
    3DPPC   O10  110   6.512   4.929   5.378
    3DPPC   O11  111   6.763   4.890   5.340
    3DPPC   C12  112   6.719   4.914   5.206
    3DPPC   C13  113   6.831   4.963   5.113
    3DPPC   O14  114   6.777   5.006   4.987
    3DPPC   C15  115   6.842   5.088   4.900
    3DPPC   O16  116   6.926   5.163   4.950
    3DPPC   C17  117   6.778   5.110   4.763
    3DPPC   C18  118   6.864   5.095   4.638
    3DPPC   C19  119   6.799   5.074   4.501
    3DPPC   C20  120   6.879   5.147   4.393
    3DPPC   C21  121   6.850   5.073   4.262
    3DPPC   C22  122   6.917   5.138   4.141
    3DPPC   C23  123   6.882   5.055   4.018
    3DPPC   C24  124   6.929   4.910   4.035
    3DPPC   C25  125   6.876   4.825   3.920
    3DPPC   C26  126   6.942   4.688   3.904
    3DPPC   C27  127   6.885   4.598   3.794
    3DPPC   C28  128   6.930   4.452   3.804
    3DPPC   C29  129   6.890   4.395   3.940
    3DPPC   C30  130   6.939   4.252   3.961
    3DPPC   C31  131   6.862   4.169   3.858
    3DPPC   C32  132   6.926   4.843   5.116
    3DPPC   O33  133   6.869   4.740   5.034
    3DPPC   C34  134   6.941   4.627   5.015
    3DPPC   O35  135   7.055   4.624   5.062
    3DPPC   C36  136   6.904   4.520   4.912
    3DPPC   C37  137   6.803   4.427   4.978
    3DPPC   C38  138   6.764   4.308   4.889
    3DPPC   C39  139   6.718   4.368   4.756
    3DPPC   C40  140   6.703   4.257   4.651
    3DPPC   C41  141   6.699   4.309   4.507
    3DPPC   C42  142   6.828   4.386   4.479
    3DPPC   C43  143   6.850   4.434   4.335
    3DPPC   C44  144   6.905   4.575   4.313
    3DPPC   C45  145   7.056   4.581   4.338
    3DPPC   C46  146   7.110   4.723   4.351
    3DPPC   C47  147   7.251   4.730   4.409
    3DPPC   C48  148   7.254   4.685   4.555
    3DPPC   C49  149   7.215   4.800   4.649
    3DPPC   C50  150   7.218   4.758   4.796
    4DPPC    C1  151   8.584   4.002   1.827
    4DPPC    C2  152   8.492   4.130   1.683
    4DPPC    C3  153   8.399   3.904   1.687
    4DPPC    N4  154   8.451   4.016   1.767
    4DPPC    C5  155   8.355   4.060   1.870
    4DPPC    C6  156   8.217   4.095   1.814
    4DPPC    O7  157   8.196   4.200   1.719
    4DPPC    P8  158   8.044   4.195   1.665
    4DPPC    O9  159   7.994   4.056   1.676
    4DPPC   O10  160   8.037   4.276   1.542
    4DPPC   O11  161   7.958   4.271   1.777
    4DPPC   C12  162   8.021   4.399   1.794
    4DPPC   C13  163   7.935   4.513   1.739
    4DPPC   O14  164   7.992   4.642   1.769
    4DPPC   C15  165   7.923   4.752   1.730
    4DPPC   O16  166   7.838   4.739   1.641
    4DPPC   C17  167   7.979   4.885   1.778
    4DPPC   C18  168   7.896   4.940   1.894
    4DPPC   C19  169   7.871   4.842   2.009
    4DPPC   C20  170   7.998   4.818   2.091
    4DPPC   C21  171   7.953   4.743   2.217
    4DPPC   C22  172   7.874   4.853   2.289
    4DPPC   C23  173   7.817   4.794   2.418
    4DPPC   C24  174   7.751   4.905   2.500
    4DPPC   C25  175   7.673   4.848   2.618
    4DPPC   C26  176   7.550   4.776   2.561
    4DPPC   C27  177   7.464   4.710   2.669
    4DPPC   C28  178   7.394   4.812   2.759
    4DPPC   C29  179   7.327   4.724   2.865
    4DPPC   C30  180   7.228   4.821   2.929
    4DPPC   C31  181   7.109   4.735   2.971
    4DPPC   C32  182   7.796   4.481   1.796
    4DPPC   O33  183   7.782   4.503   1.936
    4DPPC   C34  184   7.671   4.446   1.989
    4DPPC   O35  185   7.619   4.346   1.939
    4DPPC   C36  186   7.630   4.493   2.128
    4DPPC   C37  187   7.577   4.372   2.206
    4DPPC   C38  188   7.593   4.375   2.358
    4DPPC   C39  189   7.548   4.235   2.400
    4DPPC   C40  190   7.558   4.211   2.551
    4DPPC   C41  191   7.478   4.297   2.650
    4DPPC   C42  192   7.498   4.250   2.794
    4DPPC   C43  193   7.400   4.332   2.878
    4DPPC   C44  194   7.406   4.286   3.023
    4DPPC   C45  195   7.374   4.137   3.038
    4DPPC   C46  196   7.357   4.099   3.185
    4DPPC   C47  197   7.467   4.141   3.283
    4DPPC   C48  198   7.467   4.080   3.423
    4DPPC   C49  199   7.326   4.087   3.482
    4DPPC   C50  200   7.331   4.110   3.633
    5DPPC    C1  201   8.717   4.684   5.687
    5DPPC    C2  202   8.894   4.839   5.701
    5DPPC    C3  203   8.875   4.670   5.859
    5DPPC    N4  204   8.861   4.697   5.715
    5DPPC    C5  205   8.946   4.612   5.630
    5DPPC    C6  206   8.893   4.472   5.600
    5DPPC    O7  207   8.877   4.384   5.711
    5DPPC    P8  208   8.803   4.249   5.665
    5DPPC    O9  209   8.765   4.145   5.763
    5DPPC   O10  210   8.830   4.215   5.523
    5DPPC   O11  211   8.667   4.335   5.661
    5DPPC   C12  212   8.582   4.245   5.588
    5DPPC   C13  213   8.451   4.302   5.536
    5DPPC   O14  214   8.371   4.195   5.483
    5DPPC   C15  215   8.242   4.212   5.443
    5DPPC   O16  216   8.191   4.323   5.428
    5DPPC   C17  217   8.170   4.087   5.392
    5DPPC   C18  218   8.204   4.066   5.244
    5DPPC   C19  219   8.131   3.942   5.191
    5DPPC   C20  220   8.168   3.917   5.045
    5DPPC   C21  221   8.315   3.874   5.049
    5DPPC   C22  222   8.365   3.861   4.905
    5DPPC   C23  223   8.356   3.999   4.840
    5DPPC   C24  224   8.351   3.987   4.687
    5DPPC   C25  225   8.495   3.957   4.643
    5DPPC   C26  226   8.481   3.964   4.491
    5DPPC   C27  227   8.608   3.919   4.419
    5DPPC   C28  228   8.576   3.917   4.269
    5DPPC   C29  229   8.690   3.848   4.194
    5DPPC   C30  230   8.651   3.825   4.048
    5DPPC   C31  231   8.736   3.719   3.976
    5DPPC   C32  232   8.501   4.416   5.446
    5DPPC   O33  233   8.565   4.368   5.328
    5DPPC   C34  234   8.648   4.454   5.264
    5DPPC   O35  235   8.696   4.544   5.333
    5DPPC   C36  236   8.709   4.413   5.130
    5DPPC   C37  237   8.858   4.432   5.104
    5DPPC   C38  238   8.897   4.399   4.959
    5DPPC   C39  239   9.049   4.394   4.942
    5DPPC   C40  240   9.101   4.330   4.814
    5DPPC   C41  241   9.072   4.180   4.807
    5DPPC   C42  242   9.175   4.115   4.716
    5DPPC   C43  243   9.179   4.178   4.576
    5DPPC   C44  244   9.073   4.118   4.483
    5DPPC   C45  245   9.073   4.212   4.362
    5DPPC   C46  246   8.950   4.177   4.279
    5DPPC   C47  247   8.966   4.240   4.140
    5DPPC   C48  248   8.961   4.125   4.038
    5DPPC   C49  249   8.944   4.186   3.899
    5DPPC   C50  250   8.940   4.087   3.782
    6DPPC    C1  251   6.251   0.553   5.612
    6DPPC    C2  252   6.255   0.736   5.472
    6DPPC    C3  253   6.446   0.603   5.478
    6DPPC    N4  254   6.299   0.597   5.480
    6DPPC    C5  255   6.257   0.518   5.364
    6DPPC    C6  256   6.223   0.371   5.389
    6DPPC    O7  257   6.342   0.302   5.427
    6DPPC    P8  258   6.303   0.147   5.450
    6DPPC    O9  259   6.229   0.091   5.335
    6DPPC   O10  260   6.236   0.160   5.582
    6DPPC   O11  261   6.445   0.074   5.468
    6DPPC   C12  262   6.474   0.005   5.346
    6DPPC   C13  263   6.614  -0.057   5.348
    6DPPC   O14  264   6.707   0.007   5.260
    6DPPC   C15  265   6.839   0.011   5.291
    6DPPC   O16  266   6.885  -0.027   5.399
    6DPPC   C17  267   6.916   0.109   5.201
    6DPPC   C18  268   7.068   0.092   5.204
    6DPPC   C19  269   7.132   0.178   5.096
    6DPPC   C20  270   7.283   0.187   5.119
    6DPPC   C21  271   7.361   0.262   5.011
    6DPPC   C22  272   7.470   0.349   5.074
    6DPPC   C23  273   7.519   0.450   4.970
    6DPPC   C24  274   7.567   0.387   4.839
    6DPPC   C25  275   7.602   0.507   4.751
    6DPPC   C26  276   7.648   0.470   4.609
    6DPPC   C27  277   7.704   0.589   4.530
    6DPPC   C28  278   7.839   0.631   4.587
    6DPPC   C29  279   7.910   0.748   4.519
    6DPPC   C30  280   8.038   0.770   4.600
    6DPPC   C31  281   8.008   0.836   4.735
    6DPPC   C32  282   6.588  -0.208   5.337
    6DPPC   O33  283   6.513  -0.229   5.217
    6DPPC   C34  284   6.497  -0.359   5.179
    6DPPC   O35  285   6.538  -0.446   5.255
    6DPPC   C36  286   6.413  -0.393   5.056
    6DPPC   C37  287   6.453  -0.340   4.918
    6DPPC   C38  288   6.353  -0.402   4.820
    6DPPC   C39  289   6.379  -0.372   4.673
    6DPPC   C40  290   6.263  -0.405   4.579
    6DPPC   C41  291   6.307  -0.457   4.442
    6DPPC   C42  292   6.395  -0.582   4.436
    6DPPC   C43  293   6.524  -0.559   4.358
    6DPPC   C44  294   6.553  -0.671   4.258
    6DPPC   C45  295   6.654  -0.636   4.149
    6DPPC   C46  296   6.684  -0.771   4.084
    6DPPC   C47  297   6.816  -0.766   4.006
    6DPPC   C48  298   6.815  -0.671   3.886
    6DPPC   C49  299   6.961  -0.651   3.844
    6DPPC   C50  300   6.956  -0.547   3.732
    7DPPC    C1  301   2.983   1.500   5.640
    7DPPC    C2  302   2.791   1.458   5.770
    7DPPC    C3  303   2.805   1.442   5.518
    7DPPC    N4  304   2.865   1.414   5.650
    7DPPC    C5  305   2.910   1.275   5.659
    7DPPC    C6  306   2.806   1.169   5.698
    7DPPC    O7  307   2.726   1.149   5.581
    7DPPC    P8  308   2.603   1.055   5.624
    7DPPC    O9  309   2.513   1.160   5.678
    7DPPC   O10  310   2.668   0.954   5.710
    7DPPC   O11  311   2.581   1.007   5.472
    7DPPC   C12  312   2.531   1.108   5.385
    7DPPC   C13  313   2.541   1.056   5.241
    7DPPC   O14  314   2.432   0.977   5.194
    7DPPC   C15  315   2.310   1.031   5.166
    7DPPC   O16  316   2.268   1.134   5.217
    7DPPC   C17  317   2.210   0.935   5.100
    7DPPC   C18  318   2.258   0.930   4.955
    7DPPC   C19  319   2.199   0.815   4.873
    7DPPC   C20  320   2.050   0.848   4.866
    7DPPC   C21  321   1.976   0.760   4.765
    7DPPC   C22  322   2.044   0.761   4.628
    7DPPC   C23  323   2.054   0.894   4.553
    7DPPC   C24  324   2.124   0.886   4.417
    7DPPC   C25  325   2.141   1.025   4.354
    7DPPC   C26  326   2.003   1.076   4.311
    7DPPC   C27  327   2.013   1.196   4.216
    7DPPC   C28  328   2.092   1.166   4.089
    7DPPC   C29  329   2.018   1.060   4.006
    7DPPC   C30  330   2.099   1.054   3.877
    7DPPC   C31  331   2.068   1.173   3.787
    7DPPC   C32  332   2.678   0.987   5.234
    7DPPC   O33  333   2.774   1.092   5.249
    7DPPC   C34  334   2.902   1.047   5.244
    7DPPC   O35  335   2.940   0.930   5.255
    7DPPC   C36  336   3.011   1.155   5.242
    7DPPC   C37  337   2.995   1.247   5.121
    7DPPC   C38  338   3.096   1.361   5.124
    7DPPC   C39  339   3.079   1.446   4.997
    7DPPC   C40  340   2.937   1.501   5.003
    7DPPC   C41  341   2.903   1.556   4.864
    7DPPC   C42  342   2.916   1.448   4.757
    7DPPC   C43  343   2.885   1.473   4.609
    7DPPC   C44  344   2.893   1.349   4.519
    7DPPC   C45  345   2.854   1.392   4.377
    7DPPC   C46  346   2.877   1.280   4.276
    7DPPC   C47  347   2.834   1.327   4.137
    7DPPC   C48  348   2.858   1.230   4.020
    7DPPC   C49  349   2.822   1.284   3.882
    7DPPC   C50  350   2.826   1.175   3.774
    8DPPC    C1  351   8.534   5.777   4.752
    8DPPC    C2  352   8.723   5.714   4.888
    8DPPC    C3  353   8.575   5.894   4.945
    8DPPC    N4  354   8.583   5.758   4.889
    8DPPC    C5  355   8.492   5.672   4.966
    8DPPC    C6  356   8.501   5.626   5.111
    8DPPC    O7  357   8.620   5.553   5.145
    8DPPC    P8  358   8.605   5.498   5.295
    8DPPC    O9  359   8.546   5.606   5.379
    8DPPC   O10  360   8.726   5.423   5.337
    8DPPC   O11  361   8.483   5.396   5.276
    8DPPC   C12  362   8.520   5.309   5.169
    8DPPC   C13  363   8.428   5.194   5.128
    8DPPC   O14  364   8.489   5.095   5.044
    8DPPC   C15  365   8.533   4.978   5.096
    8DPPC   O16  366   8.555   4.959   5.216
    8DPPC   C17  367   8.564   4.877   4.986
    8DPPC   C18  368   8.444   4.826   4.905
    8DPPC   C19  369   8.367   4.933   4.827
    8DPPC   C20  370   8.292   4.865   4.712
    8DPPC   C21  371   8.146   4.842   4.750
    8DPPC   C22  372   8.074   4.815   4.618
    8DPPC   C23  373   8.113   4.922   4.516
    8DPPC   C24  374   8.041   4.906   4.383
    8DPPC   C25  375   8.077   5.029   4.299
    8DPPC   C26  376   8.025   5.024   4.156
    8DPPC   C27  377   8.074   5.146   4.078
    8DPPC   C28  378   8.225   5.139   4.057
    8DPPC   C29  379   8.263   5.025   3.962
    8DPPC   C30  380   8.402   5.029   3.898
    8DPPC   C31  381   8.455   4.891   3.862
    8DPPC   C32  382   8.302   5.253   5.064
    8DPPC   O33  383   8.307   5.367   4.977
    8DPPC   C34  384   8.185   5.407   4.934
    8DPPC   O35  385   8.077   5.377   4.984
    8DPPC   C36  386   8.193   5.496   4.810
    8DPPC   C37  387   8.263   5.437   4.687
    8DPPC   C38  388   8.295   5.531   4.571
    8DPPC   C39  389   8.193   5.494   4.463
    8DPPC   C40  390   8.244   5.558   4.334
    8DPPC   C41  391   8.147   5.526   4.219
    8DPPC   C42  392   8.214   5.585   4.094
    8DPPC   C43  393   8.130   5.567   3.968
    8DPPC   C44  394   8.198   5.632   3.847
    8DPPC   C45  395   8.117   5.583   3.728
    8DPPC   C46  396   8.067   5.439   3.741
    8DPPC   C47  397   8.023   5.376   3.608
    8DPPC   C48  398   7.950   5.246   3.641
    8DPPC   C49  399   7.923   5.165   3.514
    8DPPC   C50  400   7.895   5.018   3.544
    9DPPC    C1  401   3.202   2.903   6.179
    9DPPC    C2  402   3.066   2.742   6.307
    9DPPC    C3  403   2.995   2.965   6.270
    9DPPC    N4  404   3.067   2.852   6.210
    9DPPC    C5  405   3.002   2.799   6.089
    9DPPC    C6  406   2.943   2.903   5.995
    9DPPC    O7  407   3.033   2.960   5.900
    9DPPC    P8  408   2.947   3.007   5.772
    9DPPC    O9  409   3.018   3.127   5.726
    9DPPC   O10  410   2.808   3.014   5.823
    9DPPC   O11  411   2.949   2.877   5.677
    9DPPC   C12  412   3.072   2.902   5.608
    9DPPC   C13  413   3.134   2.767   5.568
    9DPPC   O14  414   3.260   2.785   5.504
    9DPPC   C15  415   3.345   2.679   5.499
    9DPPC   O16  416   3.356   2.608   5.599
    9DPPC   C17  417   3.458   2.693   5.397
    9DPPC   C18  418   3.422   2.653   5.254
    9DPPC   C19  419   3.545   2.644   5.164
    9DPPC   C20  420   3.508   2.641   5.016
    9DPPC   C21  421   3.630   2.615   4.927
    9DPPC   C22  422   3.604   2.586   4.779
    9DPPC   C23  423   3.737   2.577   4.704
    9DPPC   C24  424   3.729   2.500   4.572
    9DPPC   C25  425   3.867   2.487   4.508
    9DPPC   C26  426   3.847   2.369   4.413
    9DPPC   C27  427   3.964   2.360   4.315
    9DPPC   C28  428   3.950   2.244   4.216
    9DPPC   C29  429   4.079   2.247   4.133
    9DPPC   C30  430   4.206   2.209   4.209
    9DPPC   C31  431   4.310   2.190   4.098
    9DPPC   C32  432   3.025   2.706   5.480
    9DPPC   O33  433   2.999   2.782   5.361
    9DPPC   C34  434   2.903   2.738   5.276
    9DPPC   O35  435   2.817   2.651   5.295
    9DPPC   C36  436   2.914   2.816   5.145
    9DPPC   C37  437   2.897   2.720   5.027
    9DPPC   C38  438   2.904   2.800   4.897
    9DPPC   C39  439   2.799   2.911   4.905
    9DPPC   C40  440   2.802   2.994   4.777
    9DPPC   C41  441   2.682   3.088   4.778
    9DPPC   C42  442   2.669   3.177   4.654
    9DPPC   C43  443   2.558   3.281   4.670
    9DPPC   C44  444   2.539   3.374   4.550
    9DPPC   C45  445   2.440   3.327   4.443
    9DPPC   C46  446   2.297   3.306   4.494
    9DPPC   C47  447   2.216   3.246   4.379
    9DPPC   C48  448   2.273   3.110   4.339
    9DPPC   C49  449   2.161   3.005   4.338
    9DPPC   C50  450   2.210   2.867   4.296
   10DPPC    C1  451   8.413   6.181   5.554
   10DPPC    C2  452   8.522   6.374   5.497
   10DPPC    C3  453   8.520   6.203   5.340
   10DPPC    N4  454   8.435   6.271   5.439
   10DPPC    C5  455   8.315   6.339   5.388
   10DPPC    C6  456   8.206   6.255   5.320
   10DPPC    O7  457   8.095   6.334   5.276
   10DPPC    P8  458   8.001   6.223   5.207
   10DPPC    O9  459   7.909   6.313   5.133
   10DPPC   O10  460   7.961   6.110   5.294
   10DPPC   O11  461   8.109   6.165   5.103
   10DPPC   C12  462   8.104   6.249   4.987
   10DPPC   C13  463   8.232   6.232   4.905
   10DPPC   O14  464   8.261   6.351   4.830
   10DPPC   C15  465   8.383   6.370   4.773
   10DPPC   O16  466   8.479   6.311   4.821
   10DPPC   C17  467   8.388   6.459   4.649
   10DPPC   C18  468   8.398   6.369   4.526
   10DPPC   C19  469   8.524   6.284   4.512
   10DPPC   C20  470   8.494   6.191   4.394
   10DPPC   C21  471   8.442   6.057   4.447
   10DPPC   C22  472   8.440   5.968   4.322
   10DPPC   C23  473   8.581   5.964   4.262
   10DPPC   C24  474   8.574   5.910   4.119
   10DPPC   C25  475   8.709   5.924   4.051
   10DPPC   C26  476   8.711   5.843   3.921
   10DPPC   C27  477   8.848   5.844   3.852
   10DPPC   C28  478   8.953   5.787   3.947
   10DPPC   C29  479   9.094   5.812   3.894
   10DPPC   C30  480   9.146   5.955   3.912
   10DPPC   C31  481   9.292   5.965   3.867
   10DPPC   C32  482   8.233   6.095   4.837
   10DPPC   O33  483   8.114   6.074   4.759
   10DPPC   C34  484   8.114   5.963   4.681
   10DPPC   O35  485   8.216   5.897   4.663
   10DPPC   C36  486   8.009   5.970   4.570
   10DPPC   C37  487   8.001   5.860   4.464
   10DPPC   C38  488   7.885   5.893   4.370
   10DPPC   C39  489   7.887   5.793   4.254
   10DPPC   C40  490   7.807   5.864   4.143
   10DPPC   C41  491   7.812   5.778   4.017
   10DPPC   C42  492   7.714   5.858   3.932
   10DPPC   C43  493   7.703   5.796   3.792
   10DPPC   C44  494   7.759   5.885   3.682
   10DPPC   C45  495   7.739   5.813   3.549
   10DPPC   C46  496   7.786   5.667   3.554
   10DPPC   C47  497   7.767   5.605   3.416
   10DPPC   C48  498   7.863   5.654   3.308
   10DPPC   C49  499   7.822   5.599   3.171
   10DPPC   C50  500   7.933   5.610   3.066
   11DPPC    C1  501   6.458   7.581   5.641
   11DPPC    C2  502   6.540   7.658   5.847
   11DPPC    C3  503   6.578   7.425   5.785
   11DPPC    N4  504   6.568   7.564   5.738
   11DPPC    C5  505   6.684   7.590   5.652
   11DPPC    C6  506   6.768   7.717   5.670
   11DPPC    O7  507   6.697   7.820   5.601
   11DPPC    P8  508   6.754   7.960   5.657
   11DPPC    O9  509   6.804   7.936   5.794
   11DPPC   O10  510   6.649   8.064   5.643
   11DPPC   O11  511   6.868   7.971   5.545
   11DPPC   C12  512   6.809   8.023   5.425
   11DPPC   C13  513   6.912   8.027   5.312
   11DPPC   O14  514   6.889   8.126   5.212
   11DPPC   C15  515   7.001   8.165   5.145
   11DPPC   O16  516   7.109   8.166   5.205
   11DPPC   C17  517   6.971   8.264   5.033
   11DPPC   C18  518   6.844   8.229   4.955
   11DPPC   C19  519   6.827   8.318   4.831
   11DPPC   C20  520   6.832   8.461   4.884
   11DPPC   C21  521   6.866   8.552   4.766
   11DPPC   C22  522   6.830   8.700   4.786
   11DPPC   C23  523   6.848   8.774   4.654
   11DPPC   C24  524   6.808   8.922   4.664
   11DPPC   C25  525   6.794   8.993   4.529
   11DPPC   C26  526   6.698   9.112   4.527
   11DPPC   C27  527   6.561   9.045   4.513
   11DPPC   C28  528   6.525   8.961   4.390
   11DPPC   C29  529   6.381   8.909   4.395
   11DPPC   C30  530   6.357   8.821   4.272
   11DPPC   C31  531   6.211   8.776   4.266
   11DPPC   C32  532   6.938   7.878   5.289
   11DPPC   O33  533   6.815   7.822   5.243
   11DPPC   C34  534   6.827   7.694   5.200
   11DPPC   O35  535   6.919   7.622   5.238
   11DPPC   C36  536   6.716   7.649   5.104
   11DPPC   C37  537   6.721   7.740   4.980
   11DPPC   C38  538   6.603   7.722   4.886
   11DPPC   C39  539   6.626   7.822   4.772
   11DPPC   C40  540   6.771   7.855   4.733
   11DPPC   C41  541   6.763   7.958   4.621
   11DPPC   C42  542   6.904   8.004   4.582
   11DPPC   C43  543   6.946   7.907   4.471
   11DPPC   C44  544   7.090   7.953   4.444
   11DPPC   C45  545   7.088   8.098   4.396
   11DPPC   C46  546   7.013   8.102   4.263
   11DPPC   C47  547   7.025   8.248   4.217
   11DPPC   C48  548   7.170   8.275   4.176
   11DPPC   C49  549   7.173   8.426   4.155
   11DPPC   C50  550   7.314   8.486   4.148
   12DPPC    C1  551   9.341   1.756   5.146
   12DPPC    C2  552   9.556   1.831   5.149
   12DPPC    C3  553   9.450   1.786   5.355
   12DPPC    N4  554   9.468   1.736   5.218
   12DPPC    C5  555   9.517   1.598   5.198
   12DPPC    C6  556   9.453   1.474   5.259
   12DPPC    O7  557   9.476   1.367   5.166
   12DPPC    P8  558   9.423   1.234   5.240
   12DPPC    O9  559   9.429   1.241   5.388
   12DPPC   O10  560   9.476   1.118   5.166
   12DPPC   O11  561   9.266   1.262   5.213
   12DPPC   C12  562   9.229   1.193   5.093
   12DPPC   C13  563   9.080   1.209   5.062
   12DPPC   O14  564   9.030   1.129   4.954
   12DPPC   C15  565   9.001   0.998   4.977
   12DPPC   O16  566   8.996   0.955   5.092
   12DPPC   C17  567   8.937   0.929   4.856
   12DPPC   C18  568   8.894   1.006   4.732
   12DPPC   C19  569   8.787   1.113   4.755
   12DPPC   C20  570   8.766   1.180   4.619
   12DPPC   C21  571   8.665   1.295   4.622
   12DPPC   C22  572   8.643   1.373   4.492
   12DPPC   C23  573   8.580   1.284   4.384
   12DPPC   C24  574   8.525   1.370   4.270
   12DPPC   C25  575   8.415   1.465   4.320
   12DPPC   C26  576   8.385   1.557   4.201
   12DPPC   C27  577   8.297   1.510   4.086
   12DPPC   C28  578   8.153   1.468   4.115
   12DPPC   C29  579   8.074   1.404   4.001
   12DPPC   C30  580   7.933   1.369   4.049
   12DPPC   C31  581   7.944   1.267   4.163
   12DPPC   C32  582   9.051   1.356   5.034
   12DPPC   O33  583   9.127   1.391   4.918
   12DPPC   C34  584   9.109   1.517   4.869
   12DPPC   O35  585   9.057   1.608   4.933
   12DPPC   C36  586   9.200   1.556   4.752
   12DPPC   C37  587   9.147   1.505   4.617
   12DPPC   C38  588   9.029   1.585   4.561
   12DPPC   C39  589   9.024   1.554   4.412
   12DPPC   C40  590   8.908   1.603   4.324
   12DPPC   C41  591   8.919   1.585   4.172
   12DPPC   C42  592   8.823   1.673   4.092
   12DPPC   C43  593   8.815   1.618   3.950
   12DPPC   C44  594   8.704   1.693   3.875
   12DPPC   C45  595   8.740   1.836   3.836
   12DPPC   C46  596   8.627   1.917   3.773
   12DPPC   C47  597   8.500   1.930   3.858
   12DPPC   C48  598   8.420   2.055   3.822
   12DPPC   C49  599   8.286   2.039   3.894
   12DPPC   C50  600   8.213   1.912   3.848
   13DPPC    C1  601   1.648   1.571   5.193
   13DPPC    C2  602   1.780   1.431   5.348
   13DPPC    C3  603   1.617   1.550   5.439
   13DPPC    N4  604   1.647   1.484   5.311
   13DPPC    C5  605   1.568   1.361   5.298
   13DPPC    C6  606   1.418   1.377   5.322
   13DPPC    O7  607   1.323   1.287   5.265
   13DPPC    P8  608   1.175   1.344   5.294
   13DPPC    O9  609   1.166   1.367   5.440
   13DPPC   O10  610   1.085   1.246   5.229
   13DPPC   O11  611   1.178   1.491   5.229
   13DPPC   C12  612   1.084   1.498   5.122
   13DPPC   C13  613   1.083   1.637   5.059
   13DPPC   O14  614   0.996   1.657   4.947
   13DPPC   C15  615   0.862   1.656   4.969
   13DPPC   O16  616   0.818   1.642   5.083
   13DPPC   C17  617   0.771   1.656   4.845
   13DPPC   C18  618   0.753   1.516   4.788
   13DPPC   C19  619   0.660   1.534   4.668
   13DPPC   C20  620   0.610   1.401   4.612
   13DPPC   C21  621   0.500   1.422   4.508
   13DPPC   C22  622   0.357   1.435   4.561
   13DPPC   C23  623   0.253   1.440   4.449
   13DPPC   C24  624   0.114   1.409   4.506
   13DPPC   C25  625   0.020   1.435   4.388
   13DPPC   C26  626   0.038   1.575   4.329
   13DPPC   C27  627  -0.054   1.573   4.206
   13DPPC   C28  628  -0.041   1.697   4.119
   13DPPC   C29  629  -0.175   1.720   4.048
   13DPPC   C30  630  -0.147   1.819   3.935
   13DPPC   C31  631  -0.102   1.956   3.985
   13DPPC   C32  632   1.231   1.655   5.023
   13DPPC   O33  633   1.289   1.547   4.950
   13DPPC   C34  634   1.401   1.582   4.881
   13DPPC   O35  635   1.476   1.669   4.923
   13DPPC   C36  636   1.439   1.487   4.766
   13DPPC   C37  637   1.365   1.527   4.638
   13DPPC   C38  638   1.234   1.449   4.625
   13DPPC   C39  639   1.159   1.481   4.496
   13DPPC   C40  640   1.027   1.403   4.488
   13DPPC   C41  641   0.948   1.441   4.363
   13DPPC   C42  642   0.828   1.346   4.358
   13DPPC   C43  643   0.794   1.334   4.210
   13DPPC   C44  644   0.671   1.244   4.198
   13DPPC   C45  645   0.698   1.105   4.256
   13DPPC   C46  646   0.775   1.015   4.159
   13DPPC   C47  647   0.793   0.880   4.230
   13DPPC   C48  648   0.848   0.775   4.134
   13DPPC   C49  649   0.854   0.630   4.184
   13DPPC   C50  650   0.930   0.617   4.316
   14DPPC    C1  651   8.520   3.350   5.698
   14DPPC    C2  652   8.483   3.518   5.867
   14DPPC    C3  653   8.696   3.445   5.810
   14DPPC    N4  654   8.565   3.479   5.752
   14DPPC    C5  655   8.566   3.594   5.660
   14DPPC    C6  656   8.637   3.581   5.526
   14DPPC    O7  657   8.775   3.545   5.540
   14DPPC    P8  658   8.819   3.452   5.416
   14DPPC    O9  659   8.715   3.346   5.416
   14DPPC   O10  660   8.963   3.419   5.417
   14DPPC   O11  661   8.804   3.574   5.312
   14DPPC   C12  662   8.732   3.526   5.197
   14DPPC   C13  663   8.606   3.610   5.176
   14DPPC   O14  664   8.522   3.550   5.076
   14DPPC   C15  665   8.423   3.469   5.121
   14DPPC   O16  666   8.400   3.461   5.242
   14DPPC   C17  667   8.348   3.392   5.013
   14DPPC   C18  668   8.439   3.286   4.951
   14DPPC   C19  669   8.388   3.219   4.823
   14DPPC   C20  670   8.384   3.315   4.704
   14DPPC   C21  671   8.332   3.261   4.571
   14DPPC   C22  672   8.308   3.372   4.469
   14DPPC   C23  673   8.436   3.452   4.443
   14DPPC   C24  674   8.411   3.561   4.338
   14DPPC   C25  675   8.357   3.494   4.212
   14DPPC   C26  676   8.364   3.599   4.101
   14DPPC   C27  677   8.334   3.546   3.961
   14DPPC   C28  678   8.320   3.651   3.849
   14DPPC   C29  679   8.219   3.758   3.889
   14DPPC   C30  680   8.190   3.829   3.757
   14DPPC   C31  681   8.325   3.879   3.705
   14DPPC   C32  682   8.660   3.742   5.122
   14DPPC   O33  683   8.772   3.737   5.033
   14DPPC   C34  684   8.810   3.861   4.992
   14DPPC   O35  685   8.761   3.960   5.046
   14DPPC   C36  686   8.931   3.860   4.899
   14DPPC   C37  687   8.937   3.744   4.799
   14DPPC   C38  688   8.841   3.780   4.686
   14DPPC   C39  689   8.881   3.699   4.563
   14DPPC   C40  690   8.859   3.548   4.576
   14DPPC   C41  691   8.928   3.478   4.458
   14DPPC   C42  692   8.876   3.335   4.437
   14DPPC   C43  693   8.925   3.272   4.307
   14DPPC   C44  694   8.835   3.163   4.248
   14DPPC   C45  695   8.905   3.034   4.206
   14DPPC   C46  696   8.809   2.957   4.115
   14DPPC   C47  697   8.880   2.825   4.085
   14DPPC   C48  698   8.924   2.818   3.939
   14DPPC   C49  699   9.004   2.690   3.909
   14DPPC   C50  700   9.031   2.659   3.762
   15DPPC    C1  701   5.316   8.107   5.130
   15DPPC    C2  702   5.489   8.220   5.004
   15DPPC    C3  703   5.260   8.300   5.048
   15DPPC    N4  704   5.380   8.236   5.102
   15DPPC    C5  705   5.408   8.296   5.233
   15DPPC    C6  706   5.487   8.211   5.331
   15DPPC    O7  707   5.626   8.201   5.301
   15DPPC    P8  708   5.691   8.067   5.361
   15DPPC    O9  709   5.600   7.961   5.313
   15DPPC   O10  710   5.692   8.110   5.503
   15DPPC   O11  711   5.831   8.080   5.282
   15DPPC   C12  712   5.785   8.066   5.148
   15DPPC   C13  713   5.895   8.122   5.057
   15DPPC   O14  714   5.858   8.139   4.919
   15DPPC   C15  715   5.942   8.203   4.833
   15DPPC   O16  716   6.027   8.275   4.884
   15DPPC   C17  717   5.881   8.231   4.695
   15DPPC   C18  718   5.883   8.380   4.661
   15DPPC   C19  719   5.810   8.461   4.769
   15DPPC   C20  720   5.814   8.610   4.733
   15DPPC   C21  721   5.960   8.654   4.717
   15DPPC   C22  722   5.976   8.801   4.677
   15DPPC   C23  723   5.909   8.822   4.541
   15DPPC   C24  724   5.942   8.966   4.502
   15DPPC   C25  725   5.873   8.998   4.369
   15DPPC   C26  726   5.721   8.999   4.383
   15DPPC   C27  727   5.672   9.041   4.244
   15DPPC   C28  728   5.523   9.074   4.249
   15DPPC   C29  729   5.489   9.153   4.122
   15DPPC   C30  730   5.343   9.192   4.102
   15DPPC   C31  731   5.300   9.277   4.221
   15DPPC   C32  732   6.019   8.036   5.080
   15DPPC   O33  733   6.026   7.916   5.003
   15DPPC   C34  734   6.130   7.831   5.026
   15DPPC   O35  735   6.207   7.855   5.119
   15DPPC   C36  736   6.131   7.706   4.939
   15DPPC   C37  737   6.095   7.577   5.014
   15DPPC   C38  738   6.079   7.455   4.924
   15DPPC   C39  739   5.995   7.492   4.801
   15DPPC   C40  740   5.945   7.374   4.718
   15DPPC   C41  741   6.053   7.271   4.686
   15DPPC   C42  742   5.974   7.160   4.617
   15DPPC   C43  743   6.055   7.078   4.517
   15DPPC   C44  744   5.959   6.981   4.448
   15DPPC   C45  745   6.043   6.885   4.363
   15DPPC   C46  746   6.084   6.962   4.238
   15DPPC   C47  747   5.973   7.023   4.152
   15DPPC   C48  748   6.028   7.093   4.028
   15DPPC   C49  749   5.919   7.158   3.943
   15DPPC   C50  750   5.860   7.274   4.022
   16DPPC    C1  751   9.271   0.832   5.199
   16DPPC    C2  752   9.217   0.835   5.439
   16DPPC    C3  753   9.096   0.692   5.276
   16DPPC    N4  754   9.222   0.756   5.315
   16DPPC    C5  755   9.313   0.642   5.331
   16DPPC    C6  756   9.294   0.550   5.453
   16DPPC    O7  757   9.355   0.421   5.451
   16DPPC    P8  758   9.254   0.314   5.516
   16DPPC    O9  759   9.196   0.396   5.625
   16DPPC   O10  760   9.315   0.183   5.546
   16DPPC   O11  761   9.164   0.291   5.385
   16DPPC   C12  762   9.245   0.223   5.289
   16DPPC   C13  763   9.211   0.263   5.145
   16DPPC   O14  764   9.273   0.384   5.100
   16DPPC   C15  765   9.397   0.372   5.044
   16DPPC   O16  766   9.472   0.285   5.086
   16DPPC   C17  767   9.458   0.483   4.958
   16DPPC   C18  768   9.379   0.613   4.943
   16DPPC   C19  769   9.415   0.685   4.812
   16DPPC   C20  770   9.332   0.625   4.699
   16DPPC   C21  771   9.185   0.642   4.739
   16DPPC   C22  772   9.083   0.584   4.641
   16DPPC   C23  773   9.055   0.670   4.517
   16DPPC   C24  774   8.950   0.594   4.436
   16DPPC   C25  775   8.873   0.652   4.317
   16DPPC   C26  776   8.811   0.541   4.232
   16DPPC   C27  777   8.751   0.608   4.107
   16DPPC   C28  778   8.622   0.530   4.082
   16DPPC   C29  779   8.540   0.559   3.956
   16DPPC   C30  780   8.626   0.507   3.840
   16DPPC   C31  781   8.571   0.533   3.699
   16DPPC   C32  782   9.058   0.270   5.142
   16DPPC   O33  783   8.999   0.140   5.145
   16DPPC   C34  784   8.866   0.133   5.118
   16DPPC   O35  785   8.793   0.208   5.183
   16DPPC   C36  786   8.819  -0.009   5.084
   16DPPC   C37  787   8.768   0.007   4.941
   16DPPC   C38  788   8.793  -0.125   4.868
   16DPPC   C39  789   8.773  -0.118   4.716
   16DPPC   C40  790   8.838  -0.236   4.643
   16DPPC   C41  791   8.819  -0.231   4.491
   16DPPC   C42  792   8.675  -0.264   4.450
   16DPPC   C43  793   8.678  -0.294   4.300
   16DPPC   C44  794   8.549  -0.375   4.285
   16DPPC   C45  795   8.509  -0.401   4.139
   16DPPC   C46  796   8.368  -0.456   4.161
   16DPPC   C47  797   8.290  -0.501   4.037
   16DPPC   C48  798   8.160  -0.549   4.103
   16DPPC   C49  799   8.065  -0.623   4.009
   16DPPC   C50  800   7.946  -0.685   4.082
   17DPPC    C1  801   1.621   0.537   5.484
   17DPPC    C2  802   1.680   0.540   5.261
   17DPPC    C3  803   1.544   0.373   5.334
   17DPPC    N4  804   1.565   0.517   5.349
   17DPPC    C5  805   1.446   0.596   5.315
   17DPPC    C6  806   1.474   0.746   5.304
   17DPPC    O7  807   1.356   0.826   5.301
   17DPPC    P8  808   1.375   0.986   5.297
   17DPPC    O9  809   1.520   1.001   5.319
   17DPPC   O10  810   1.271   1.037   5.389
   17DPPC   O11  811   1.338   0.999   5.141
   17DPPC   C12  812   1.459   1.056   5.090
   17DPPC   C13  813   1.434   1.095   4.944
   17DPPC   O14  814   1.541   1.165   4.879
   17DPPC   C15  815   1.628   1.084   4.813
   17DPPC   O16  816   1.592   0.970   4.785
   17DPPC   C17  817   1.757   1.146   4.757
   17DPPC   C18  818   1.779   1.280   4.828
   17DPPC   C19  819   1.865   1.373   4.742
   17DPPC   C20  820   1.983   1.295   4.684
   17DPPC   C21  821   2.063   1.396   4.602
   17DPPC   C22  822   2.196   1.331   4.564
   17DPPC   C23  823   2.283   1.439   4.500
   17DPPC   C24  824   2.417   1.382   4.453
   17DPPC   C25  825   2.388   1.284   4.339
   17DPPC   C26  826   2.502   1.204   4.276
   17DPPC   C27  827   2.445   1.128   4.156
   17DPPC   C28  828   2.545   1.019   4.117
   17DPPC   C29  829   2.490   0.933   4.003
   17DPPC   C30  830   2.487   1.004   3.867
   17DPPC   C31  831   2.455   0.903   3.757
   17DPPC   C32  832   1.306   1.179   4.942
   17DPPC   O33  833   1.221   1.176   4.826
   17DPPC   C34  834   1.152   1.067   4.784
   17DPPC   O35  835   1.177   0.956   4.831
   17DPPC   C36  836   1.092   1.073   4.644
   17DPPC   C37  837   1.182   1.005   4.541
   17DPPC   C38  838   1.094   0.937   4.437
   17DPPC   C39  839   1.171   0.892   4.312
   17DPPC   C40  840   1.204   1.019   4.234
   17DPPC   C41  841   1.262   0.982   4.097
   17DPPC   C42  842   1.339   1.100   4.037
   17DPPC   C43  843   1.404   1.089   3.899
   17DPPC   C44  844   1.473   1.218   3.854
   17DPPC   C45  845   1.524   1.204   3.710
   17DPPC   C46  846   1.571   1.340   3.656
   17DPPC   C47  847   1.697   1.385   3.729
   17DPPC   C48  848   1.749   1.524   3.691
   17DPPC   C49  849   1.869   1.581   3.767
   17DPPC   C50  850   1.882   1.731   3.738
   18DPPC    C1  851   1.943   7.142   5.611
   18DPPC    C2  852   2.013   6.941   5.686
   18DPPC    C3  853   1.800   6.954   5.570
   18DPPC    N4  854   1.940   7.000   5.573
   18DPPC    C5  855   2.006   6.995   5.442
   18DPPC    C6  856   2.035   6.852   5.396
   18DPPC    O7  857   2.105   6.849   5.272
   18DPPC    P8  858   2.104   6.700   5.210
   18DPPC    O9  859   1.966   6.657   5.241
   18DPPC   O10  860   2.218   6.619   5.258
   18DPPC   O11  861   2.115   6.724   5.051
   18DPPC   C12  862   2.158   6.606   4.984
   18DPPC   C13  863   2.181   6.617   4.833
   18DPPC   O14  864   2.184   6.493   4.761
   18DPPC   C15  865   2.067   6.431   4.731
   18DPPC   O16  866   1.964   6.433   4.798
   18DPPC   C17  867   2.076   6.309   4.640
   18DPPC   C18  868   1.954   6.306   4.547
   18DPPC   C19  869   1.997   6.245   4.413
   18DPPC   C20  870   1.874   6.227   4.324
   18DPPC   C21  871   1.903   6.141   4.200
   18DPPC   C22  872   1.772   6.130   4.123
   18DPPC   C23  873   1.793   6.037   4.003
   18DPPC   C24  874   1.664   6.037   3.921
   18DPPC   C25  875   1.532   6.007   3.994
   18DPPC   C26  876   1.514   5.864   4.045
   18DPPC   C27  877   1.391   5.873   4.136
   18DPPC   C28  878   1.265   5.910   4.058
   18DPPC   C29  879   1.217   5.806   3.957
   18DPPC   C30  880   1.087   5.846   3.888
   18DPPC   C31  881   1.056   5.726   3.797
   18DPPC   C32  882   2.298   6.714   4.817
   18DPPC   O33  883   2.330   6.744   4.680
   18DPPC   C34  884   2.460   6.778   4.659
   18DPPC   O35  885   2.537   6.782   4.754
   18DPPC   C36  886   2.484   6.808   4.510
   18DPPC   C37  887   2.537   6.684   4.437
   18DPPC   C38  888   2.559   6.725   4.291
   18DPPC   C39  889   2.639   6.627   4.204
   18DPPC   C40  890   2.783   6.604   4.248
   18DPPC   C41  891   2.849   6.510   4.147
   18DPPC   C42  892   2.934   6.400   4.210
   18DPPC   C43  893   3.001   6.320   4.098
   18DPPC   C44  894   3.048   6.183   4.146
   18DPPC   C45  895   3.162   6.204   4.245
   18DPPC   C46  896   3.208   6.090   4.336
   18DPPC   C47  897   3.315   6.138   4.434
   18DPPC   C48  898   3.254   6.226   4.544
   18DPPC   C49  899   3.370   6.265   4.636
   18DPPC   C50  900   3.330   6.345   4.760
   19DPPC    C1  901   2.670   5.687   5.746
   19DPPC    C2  902   2.457   5.739   5.688
   19DPPC    C3  903   2.628   5.747   5.517
   19DPPC    N4  904   2.576   5.674   5.634
   19DPPC    C5  905   2.537   5.537   5.597
   19DPPC    C6  906   2.642   5.433   5.559
   19DPPC    O7  907   2.715   5.455   5.438
   19DPPC    P8  908   2.845   5.360   5.436
   19DPPC    O9  909   2.884   5.356   5.579
   19DPPC   O10  910   2.926   5.421   5.328
   19DPPC   O11  911   2.778   5.233   5.364
   19DPPC   C12  912   2.816   5.216   5.227
   19DPPC   C13  913   2.734   5.100   5.170
   19DPPC   O14  914   2.809   5.019   5.079
   19DPPC   C15  915   2.774   4.887   5.080
   19DPPC   O16  916   2.698   4.833   5.160
   19DPPC   C17  917   2.848   4.802   4.976
   19DPPC   C18  918   2.981   4.740   5.020
   19DPPC   C19  919   3.042   4.672   4.898
   19DPPC   C20  920   2.961   4.546   4.869
   19DPPC   C21  921   3.025   4.469   4.753
   19DPPC   C22  922   2.943   4.344   4.719
   19DPPC   C23  923   3.010   4.287   4.594
   19DPPC   C24  924   3.153   4.235   4.608
   19DPPC   C25  925   3.212   4.195   4.473
   19DPPC   C26  926   3.181   4.304   4.370
   19DPPC   C27  927   3.244   4.260   4.237
   19DPPC   C28  928   3.192   4.349   4.125
   19DPPC   C29  929   3.260   4.315   3.992
   19DPPC   C30  930   3.182   4.364   3.871
   19DPPC   C31  931   3.177   4.516   3.884
   19DPPC   C32  932   2.594   5.152   5.135
   19DPPC   O33  933   2.600   5.251   5.033
   19DPPC   C34  934   2.490   5.281   4.958
   19DPPC   O35  935   2.384   5.223   4.981
   19DPPC   C36  936   2.500   5.385   4.846
   19DPPC   C37  937   2.392   5.352   4.743
   19DPPC   C38  938   2.426   5.398   4.601
   19DPPC   C39  939   2.319   5.394   4.492
   19DPPC   C40  940   2.357   5.478   4.370
   19DPPC   C41  941   2.259   5.501   4.255
   19DPPC   C42  942   2.314   5.603   4.155
   19DPPC   C43  943   2.460   5.563   4.131
   19DPPC   C44  944   2.523   5.653   4.025
   19DPPC   C45  945   2.667   5.602   4.011
   19DPPC   C46  946   2.727   5.662   3.884
   19DPPC   C47  947   2.878   5.636   3.873
   19DPPC   C48  948   2.947   5.690   3.998
   19DPPC   C49  949   3.100   5.695   3.982
   19DPPC   C50  950   3.175   5.739   4.108
   20DPPC    C1  951   6.820   5.430   5.169
   20DPPC    C2  952   6.637   5.388   5.028
   20DPPC    C3  953   6.622   5.299   5.237
   20DPPC    N4  954   6.674   5.417   5.167
   20DPPC    C5  955   6.595   5.532   5.216
   20DPPC    C6  956   6.666   5.652   5.277
   20DPPC    O7  957   6.742   5.736   5.189
   20DPPC    P8  958   6.826   5.845   5.270
   20DPPC    O9  959   6.904   5.748   5.350
   20DPPC   O10  960   6.733   5.944   5.329
   20DPPC   O11  961   6.924   5.924   5.169
   20DPPC   C12  962   7.021   5.827   5.130
   20DPPC   C13  963   7.149   5.875   5.060
   20DPPC   O14  964   7.137   5.961   4.946
   20DPPC   C15  965   7.138   6.097   4.934
   20DPPC   O16  966   7.178   6.161   5.030
   20DPPC   C17  967   7.114   6.162   4.797
   20DPPC   C18  968   7.189   6.291   4.761
   20DPPC   C19  969   7.134   6.332   4.624
   20DPPC   C20  970   6.983   6.355   4.637
   20DPPC   C21  971   6.932   6.399   4.500
   20DPPC   C22  972   7.007   6.522   4.448
   20DPPC   C23  973   6.997   6.540   4.296
   20DPPC   C24  974   7.083   6.650   4.234
   20DPPC   C25  975   7.090   6.624   4.083
   20DPPC   C26  976   7.171   6.719   3.994
   20DPPC   C27  977   7.318   6.707   4.036
   20DPPC   C28  978   7.407   6.799   3.954
   20DPPC   C29  979   7.556   6.764   3.955
   20DPPC   C30  980   7.645   6.849   3.864
   20DPPC   C31  981   7.785   6.787   3.864
   20DPPC   C32  982   7.235   5.751   5.038
   20DPPC   O33  983   7.160   5.640   4.990
   20DPPC   C34  984   7.218   5.517   4.990
   20DPPC   O35  985   7.318   5.486   5.055
   20DPPC   C36  986   7.162   5.429   4.878
   20DPPC   C37  987   7.277   5.359   4.806
   20DPPC   C38  988   7.222   5.299   4.676
   20DPPC   C39  989   7.323   5.222   4.590
   20DPPC   C40  990   7.279   5.203   4.445
   20DPPC   C41  991   7.383   5.141   4.351
   20DPPC   C42  992   7.303   5.131   4.221
   20DPPC   C43  993   7.394   5.075   4.111
   20DPPC   C44  994   7.312   5.018   3.995
   20DPPC   C45  995   7.401   4.945   3.895
   20DPPC   C46  996   7.314   4.897   3.779
   20DPPC   C47  997   7.244   5.009   3.702
   20DPPC   C48  998   7.148   4.948   3.600
   20DPPC   C49  999   7.055   5.044   3.526
   20DPPC   C50 1000   7.136   5.132   3.430
   21DPPC    C1 1001   3.275   2.187   6.312
   21DPPC    C2 1002   3.440   2.136   6.145
   21DPPC    C3 1003   3.485   2.081   6.365
   21DPPC    N4 1004   3.375   2.089   6.268
   21DPPC    C5 1005   3.325   1.951   6.258
   21DPPC    C6 1006   3.188   1.925   6.193
   21DPPC    O7 1007   3.184   1.938   6.051
   21DPPC    P8 1008   3.037   1.974   5.994
   21DPPC    O9 1009   2.968   2.065   6.087
   21DPPC   O10 1010   2.996   1.839   5.950
   21DPPC   O11 1011   3.084   2.047   5.858
   21DPPC   C12 1012   3.093   1.943   5.761
   21DPPC   C13 1013   3.091   2.001   5.619
   21DPPC   O14 1014   3.079   1.907   5.511
   21DPPC   C15 1015   2.953   1.871   5.478
   21DPPC   O16 1016   2.863   1.863   5.563
   21DPPC   C17 1017   2.948   1.805   5.340
   21DPPC   C18 1018   3.044   1.882   5.248
   21DPPC   C19 1019   3.013   1.849   5.102
   21DPPC   C20 1020   3.085   1.950   5.013
   21DPPC   C21 1021   3.023   1.930   4.875
   21DPPC   C22 1022   3.081   2.029   4.773
   21DPPC   C23 1023   3.027   2.003   4.632
   21DPPC   C24 1024   3.111   2.065   4.521
   21DPPC   C25 1025   3.024   2.070   4.395
   21DPPC   C26 1026   3.099   2.111   4.268
   21DPPC   C27 1027   3.018   2.099   4.139
   21DPPC   C28 1028   3.107   2.133   4.020
   21DPPC   C29 1029   3.039   2.118   3.884
   21DPPC   C30 1030   3.150   2.081   3.786
   21DPPC   C31 1031   3.116   2.089   3.637
   21DPPC   C32 1032   3.219   2.084   5.614
   21DPPC   O33 1033   3.248   2.167   5.501
   21DPPC   C34 1034   3.180   2.283   5.479
   21DPPC   O35 1035   3.084   2.318   5.548
   21DPPC   C36 1036   3.220   2.359   5.352
   21DPPC   C37 1037   3.138   2.324   5.228
   21DPPC   C38 1038   3.185   2.411   5.112
   21DPPC   C39 1039   3.102   2.374   4.988
   21DPPC   C40 1040   3.133   2.457   4.864
   21DPPC   C41 1041   3.047   2.416   4.744
   21DPPC   C42 1042   3.100   2.474   4.613
   21DPPC   C43 1043   3.252   2.471   4.594
   21DPPC   C44 1044   3.306   2.556   4.479
   21DPPC   C45 1045   3.259   2.503   4.343
   21DPPC   C46 1046   3.289   2.595   4.224
   21DPPC   C47 1047   3.246   2.535   4.091
   21DPPC   C48 1048   3.300   2.622   3.977
   21DPPC   C49 1049   3.229   2.571   3.852
   21DPPC   C50 1050   3.237   2.669   3.735
   22DPPC    C1 1051   1.696   1.982   5.695
   22DPPC    C2 1052   1.880   2.076   5.575
   22DPPC    C3 1053   1.915   1.971   5.794
   22DPPC    N4 1054   1.839   1.969   5.667
   22DPPC    C5 1055   1.855   1.843   5.594
   22DPPC    C6 1056   1.982   1.811   5.514
   22DPPC    O7 1057   1.970   1.692   5.436
   22DPPC    P8 1058   2.117   1.656   5.380
   22DPPC    O9 1059   2.106   1.532   5.300
   22DPPC   O10 1060   2.211   1.668   5.493
   22DPPC   O11 1061   2.121   1.787   5.286
   22DPPC   C12 1062   2.067   1.765   5.155
   22DPPC   C13 1063   2.049   1.900   5.087
   22DPPC   O14 1064   1.989   1.890   4.956
   22DPPC   C15 1065   1.855   1.873   4.949
   22DPPC   O16 1066   1.787   1.859   5.051
   22DPPC   C17 1067   1.795   1.877   4.808
   22DPPC   C18 1068   1.856   1.772   4.716
   22DPPC   C19 1069   1.791   1.776   4.578
   22DPPC   C20 1070   1.833   1.663   4.484
   22DPPC   C21 1071   1.730   1.645   4.372
   22DPPC   C22 1072   1.751   1.516   4.291
   22DPPC   C23 1073   1.622   1.485   4.215
   22DPPC   C24 1074   1.577   1.594   4.117
   22DPPC   C25 1075   1.460   1.522   4.049
   22DPPC   C26 1076   1.410   1.622   3.945
   22DPPC   C27 1077   1.276   1.576   3.887
   22DPPC   C28 1078   1.174   1.546   3.996
   22DPPC   C29 1079   1.047   1.487   3.934
   22DPPC   C30 1080   1.072   1.356   3.859
   22DPPC   C31 1081   0.951   1.293   3.790
   22DPPC   C32 1082   2.181   1.978   5.093
   22DPPC   O33 1083   2.297   1.904   5.057
   22DPPC   C34 1084   2.408   1.981   5.047
   22DPPC   O35 1085   2.391   2.103   5.052
   22DPPC   C36 1086   2.529   1.927   4.971
   22DPPC   C37 1087   2.499   1.812   4.875
   22DPPC   C38 1088   2.602   1.825   4.763
   22DPPC   C39 1089   2.578   1.729   4.646
   22DPPC   C40 1090   2.660   1.772   4.525
   22DPPC   C41 1091   2.632   1.692   4.397
   22DPPC   C42 1092   2.717   1.732   4.277
   22DPPC   C43 1093   2.680   1.660   4.147
   22DPPC   C44 1094   2.779   1.716   4.045
   22DPPC   C45 1095   2.755   1.664   3.903
   22DPPC   C46 1096   2.814   1.748   3.789
   22DPPC   C47 1097   2.776   1.688   3.653
   22DPPC   C48 1098   2.849   1.559   3.614
   22DPPC   C49 1099   2.824   1.504   3.473
   22DPPC   C50 1100   2.860   1.607   3.365
   23DPPC    C1 1101   1.454   7.284   5.177
   23DPPC    C2 1102   1.549   7.086   5.239
   23DPPC    C3 1103   1.400   7.070   5.066
   23DPPC    N4 1104   1.504   7.158   5.119
   23DPPC    C5 1105   1.616   7.170   5.025
   23DPPC    C6 1106   1.612   7.245   4.891
   23DPPC    O7 1107   1.535   7.198   4.780
   23DPPC    P8 1108   1.471   7.320   4.696
   23DPPC    O9 1109   1.516   7.448   4.757
   23DPPC   O10 1110   1.331   7.286   4.667
   23DPPC   O11 1111   1.561   7.294   4.566
   23DPPC   C12 1112   1.515   7.175   4.501
   23DPPC   C13 1113   1.543   7.165   4.351
   23DPPC   O14 1114   1.683   7.168   4.323
   23DPPC   C15 1115   1.728   7.058   4.256
   23DPPC   O16 1116   1.663   6.954   4.260
   23DPPC   C17 1117   1.873   7.082   4.211
   23DPPC   C18 1118   1.889   7.176   4.092
   23DPPC   C19 1119   2.027   7.238   4.075
   23DPPC   C20 1120   2.033   7.354   3.976
   23DPPC   C21 1121   2.015   7.487   4.050
   23DPPC   C22 1122   2.002   7.585   3.934
   23DPPC   C23 1123   1.976   7.729   3.979
   23DPPC   C24 1124   1.953   7.827   3.864
   23DPPC   C25 1125   1.926   7.962   3.930
   23DPPC   C26 1126   1.933   8.077   3.828
   23DPPC   C27 1127   1.888   8.217   3.870
   23DPPC   C28 1128   1.737   8.213   3.891
   23DPPC   C29 1129   1.684   8.197   3.749
   23DPPC   C30 1130   1.533   8.173   3.760
   23DPPC   C31 1131   1.472   8.165   3.619
   23DPPC   C32 1132   1.471   7.290   4.299
   23DPPC   O33 1133   1.501   7.315   4.162
   23DPPC   C34 1134   1.441   7.418   4.097
   23DPPC   O35 1135   1.362   7.487   4.160
   23DPPC   C36 1136   1.493   7.444   3.955
   23DPPC   C37 1137   1.607   7.546   3.952
   23DPPC   C38 1138   1.661   7.567   3.810
   23DPPC   C39 1139   1.718   7.434   3.761
   23DPPC   C40 1140   1.748   7.451   3.612
   23DPPC   C41 1141   1.801   7.325   3.543
   23DPPC   C42 1142   1.685   7.228   3.518
   23DPPC   C43 1143   1.722   7.080   3.527
   23DPPC   C44 1144   1.610   6.996   3.466
   23DPPC   C45 1145   1.583   7.053   3.326
   23DPPC   C46 1146   1.481   6.960   3.261
   23DPPC   C47 1147   1.451   6.998   3.115
   23DPPC   C48 1148   1.362   6.908   3.030
   23DPPC   C49 1149   1.229   6.868   3.094
   23DPPC   C50 1150   1.113   6.915   3.007
   24DPPC    C1 1151   3.259   5.336   5.299
   24DPPC    C2 1152   3.419   5.373   5.468
   24DPPC    C3 1153   3.262   5.539   5.421
   24DPPC    N4 1154   3.277   5.394   5.433
   24DPPC    C5 1155   3.194   5.333   5.538
   24DPPC    C6 1156   3.209   5.183   5.563
   24DPPC    O7 1157   3.111   5.106   5.492
   24DPPC    P8 1158   3.147   4.952   5.521
   24DPPC    O9 1159   3.041   4.874   5.453
   24DPPC   O10 1160   3.181   4.948   5.665
   24DPPC   O11 1161   3.286   4.937   5.442
   24DPPC   C12 1162   3.248   4.916   5.305
   24DPPC   C13 1163   3.367   4.910   5.209
   24DPPC   O14 1164   3.308   4.923   5.079
   24DPPC   C15 1165   3.280   5.044   5.024
   24DPPC   O16 1166   3.338   5.146   5.061
   24DPPC   C17 1167   3.212   5.037   4.887
   24DPPC   C18 1168   3.305   5.080   4.774
   24DPPC   C19 1169   3.402   4.972   4.726
   24DPPC   C20 1170   3.544   5.031   4.734
   24DPPC   C21 1171   3.631   4.934   4.653
   24DPPC   C22 1172   3.773   4.982   4.623
   24DPPC   C23 1173   3.836   4.896   4.514
   24DPPC   C24 1174   3.974   4.943   4.470
   24DPPC   C25 1175   4.031   4.882   4.341
   24DPPC   C26 1176   4.158   4.960   4.308
   24DPPC   C27 1177   4.221   4.914   4.176
   24DPPC   C28 1178   4.328   5.016   4.138
   24DPPC   C29 1179   4.424   4.957   4.034
   24DPPC   C30 1180   4.537   5.054   4.001
   24DPPC   C31 1181   4.638   5.099   4.107
   24DPPC   C32 1182   3.420   4.769   5.230
   24DPPC   O33 1183   3.332   4.657   5.222
   24DPPC   C34 1184   3.385   4.532   5.231
   24DPPC   O35 1185   3.500   4.518   5.272
   24DPPC   C36 1186   3.309   4.412   5.175
   24DPPC   C37 1187   3.365   4.364   5.041
   24DPPC   C38 1188   3.359   4.473   4.934
   24DPPC   C39 1189   3.408   4.423   4.798
   24DPPC   C40 1190   3.446   4.535   4.700
   24DPPC   C41 1191   3.468   4.478   4.560
   24DPPC   C42 1192   3.532   4.585   4.472
   24DPPC   C43 1193   3.585   4.530   4.339
   24DPPC   C44 1194   3.670   4.638   4.273
   24DPPC   C45 1195   3.744   4.606   4.142
   24DPPC   C46 1196   3.840   4.715   4.095
   24DPPC   C47 1197   3.935   4.660   3.988
   24DPPC   C48 1198   3.996   4.764   3.894
   24DPPC   C49 1199   4.069   4.703   3.774
   24DPPC   C50 1200   4.157   4.591   3.829
   25DPPC    C1 1201   3.988   5.365   5.421
   25DPPC    C2 1202   3.941   5.527   5.254
   25DPPC    C3 1203   3.798   5.335   5.309
   25DPPC    N4 1204   3.881   5.445   5.360
   25DPPC    C5 1205   3.826   5.522   5.473
   25DPPC    C6 1206   3.760   5.657   5.442
   25DPPC    O7 1207   3.647   5.636   5.356
   25DPPC    P8 1208   3.551   5.761   5.327
   25DPPC    O9 1209   3.652   5.848   5.262
   25DPPC   O10 1210   3.472   5.810   5.443
   25DPPC   O11 1211   3.462   5.678   5.222
   25DPPC   C12 1212   3.556   5.644   5.120
   25DPPC   C13 1213   3.517   5.584   4.985
   25DPPC   O14 1214   3.622   5.520   4.911
   25DPPC   C15 1215   3.679   5.401   4.944
   25DPPC   O16 1216   3.655   5.352   5.054
   25DPPC   C17 1217   3.769   5.337   4.838
   25DPPC   C18 1218   3.846   5.449   4.769
   25DPPC   C19 1219   3.881   5.390   4.632
   25DPPC   C20 1220   3.994   5.287   4.642
   25DPPC   C21 1221   4.139   5.336   4.651
   25DPPC   C22 1222   4.234   5.228   4.600
   25DPPC   C23 1223   4.368   5.250   4.671
   25DPPC   C24 1224   4.485   5.179   4.604
   25DPPC   C25 1225   4.608   5.155   4.692
   25DPPC   C26 1226   4.726   5.130   4.598
   25DPPC   C27 1227   4.823   5.248   4.592
   25DPPC   C28 1228   4.940   5.202   4.505
   25DPPC   C29 1229   5.023   5.328   4.478
   25DPPC   C30 1230   5.121   5.279   4.371
   25DPPC   C31 1231   5.050   5.210   4.255
   25DPPC   C32 1232   3.456   5.706   4.915
   25DPPC   O33 1233   3.548   5.814   4.898
   25DPPC   C34 1234   3.491   5.928   4.849
   25DPPC   O35 1235   3.377   5.964   4.879
   25DPPC   C36 1236   3.594   6.030   4.802
   25DPPC   C37 1237   3.609   6.015   4.651
   25DPPC   C38 1238   3.707   5.901   4.618
   25DPPC   C39 1239   3.767   5.904   4.477
   25DPPC   C40 1240   3.673   5.843   4.373
   25DPPC   C41 1241   3.730   5.839   4.231
   25DPPC   C42 1242   3.860   5.760   4.223
   25DPPC   C43 1243   3.854   5.612   4.261
   25DPPC   C44 1244   3.973   5.521   4.230
   25DPPC   C45 1245   3.992   5.494   4.081
   25DPPC   C46 1246   4.111   5.408   4.038
   25DPPC   C47 1247   4.096   5.348   3.898
   25DPPC   C48 1248   4.213   5.260   3.853
   25DPPC   C49 1249   4.182   5.176   3.729
   25DPPC   C50 1250   4.313   5.109   3.686
   26DPPC    C1 1251   3.677   2.632   5.958
   26DPPC    C2 1252   3.672   2.483   5.784
   26DPPC    C3 1253   3.671   2.700   5.723
   26DPPC    N4 1254   3.732   2.611   5.822
   26DPPC    C5 1255   3.877   2.602   5.805
   26DPPC    C6 1256   3.953   2.731   5.839
   26DPPC    O7 1257   3.966   2.826   5.732
   26DPPC    P8 1258   4.024   2.961   5.797
   26DPPC    O9 1259   3.994   2.957   5.942
   26DPPC   O10 1260   4.025   3.087   5.719
   26DPPC   O11 1261   4.175   2.904   5.798
   26DPPC   C12 1262   4.262   2.955   5.697
   26DPPC   C13 1263   4.399   2.888   5.699
   26DPPC   O14 1264   4.475   2.923   5.582
   26DPPC   C15 1265   4.542   3.039   5.560
   26DPPC   O16 1266   4.526   3.125   5.646
   26DPPC   C17 1267   4.588   3.069   5.417
   26DPPC   C18 1268   4.738   3.099   5.421
   26DPPC   C19 1269   4.791   3.122   5.279
   26DPPC   C20 1270   4.939   3.159   5.267
   26DPPC   C21 1271   4.966   3.148   5.116
   26DPPC   C22 1272   4.964   3.001   5.074
   26DPPC   C23 1273   4.977   3.000   4.922
   26DPPC   C24 1274   4.947   2.870   4.846
   26DPPC   C25 1275   4.979   2.870   4.696
   26DPPC   C26 1276   4.942   2.738   4.628
   26DPPC   C27 1277   4.956   2.748   4.476
   26DPPC   C28 1278   4.917   2.629   4.388
   26DPPC   C29 1279   4.904   2.675   4.243
   26DPPC   C30 1280   4.879   2.554   4.153
   26DPPC   C31 1281   4.900   2.580   4.004
   26DPPC   C32 1282   4.366   2.739   5.699
   26DPPC   O33 1283   4.279   2.695   5.595
   26DPPC   C34 1284   4.223   2.571   5.607
   26DPPC   O35 1285   4.226   2.528   5.722
   26DPPC   C36 1286   4.147   2.526   5.482
   26DPPC   C37 1287   4.228   2.439   5.385
   26DPPC   C38 1288   4.143   2.414   5.261
   26DPPC   C39 1289   4.097   2.546   5.200
   26DPPC   C40 1290   4.078   2.515   5.051
   26DPPC   C41 1291   4.050   2.643   4.972
   26DPPC   C42 1292   4.053   2.610   4.823
   26DPPC   C43 1293   4.055   2.742   4.747
   26DPPC   C44 1294   4.195   2.802   4.751
   26DPPC   C45 1295   4.193   2.925   4.661
   26DPPC   C46 1296   4.140   2.887   4.522
   26DPPC   C47 1297   4.096   3.001   4.430
   26DPPC   C48 1298   4.044   2.964   4.291
   26DPPC   C49 1299   4.014   3.081   4.196
   26DPPC   C50 1300   3.925   3.190   4.257
   27DPPC    C1 1301   3.775   0.169   5.507
   27DPPC    C2 1302   3.663   0.355   5.436
   27DPPC    C3 1303   3.845   0.285   5.301
   27DPPC    N4 1304   3.734   0.236   5.383
   27DPPC    C5 1305   3.637   0.146   5.320
   27DPPC    C6 1306   3.681   0.007   5.274
   27DPPC    O7 1307   3.793   0.000   5.185
   27DPPC    P8 1308   3.842  -0.153   5.195
   27DPPC    O9 1309   3.732  -0.233   5.254
   27DPPC   O10 1310   3.979  -0.149   5.251
   27DPPC   O11 1311   3.849  -0.196   5.040
   27DPPC   C12 1312   3.958  -0.123   4.983
   27DPPC   C13 1313   3.953  -0.105   4.831
   27DPPC   O14 1314   3.883   0.015   4.796
   27DPPC   C15 1315   3.959   0.107   4.731
   27DPPC   O16 1316   4.073   0.131   4.772
   27DPPC   C17 1317   3.874   0.223   4.678
   27DPPC   C18 1318   3.935   0.291   4.555
   27DPPC   C19 1319   3.850   0.412   4.514
   27DPPC   C20 1320   3.917   0.471   4.390
   27DPPC   C21 1321   3.896   0.378   4.270
   27DPPC   C22 1322   4.005   0.400   4.164
   27DPPC   C23 1323   4.005   0.342   4.023
   27DPPC   C24 1324   4.106   0.412   3.932
   27DPPC   C25 1325   4.107   0.333   3.801
   27DPPC   C26 1326   4.188   0.208   3.834
   27DPPC   C27 1327   4.174   0.104   3.723
   27DPPC   C28 1328   4.245  -0.030   3.741
   27DPPC   C29 1329   4.225  -0.144   3.640
   27DPPC   C30 1330   4.074  -0.145   3.616
   27DPPC   C31 1331   4.017  -0.284   3.645
   27DPPC   C32 1332   3.883  -0.230   4.778
   27DPPC   O33 1333   3.954  -0.353   4.786
   27DPPC   C34 1334   3.884  -0.467   4.761
   27DPPC   O35 1335   3.762  -0.483   4.753
   27DPPC   C36 1336   3.976  -0.589   4.752
   27DPPC   C37 1337   4.024  -0.637   4.615
   27DPPC   C38 1338   4.107  -0.527   4.549
   27DPPC   C39 1339   4.146  -0.574   4.409
   27DPPC   C40 1340   4.255  -0.473   4.370
   27DPPC   C41 1341   4.312  -0.512   4.233
   27DPPC   C42 1342   4.397  -0.396   4.180
   27DPPC   C43 1343   4.469  -0.436   4.051
   27DPPC   C44 1344   4.566  -0.328   4.002
   27DPPC   C45 1345   4.625  -0.383   3.871
   27DPPC   C46 1346   4.523  -0.370   3.758
   27DPPC   C47 1347   4.590  -0.425   3.632
   27DPPC   C48 1348   4.505  -0.424   3.505
   27DPPC   C49 1349   4.613  -0.472   3.409
   27DPPC   C50 1350   4.632  -0.624   3.397
   28DPPC    C1 1351   8.748   2.453   5.587
   28DPPC    C2 1352   8.806   2.455   5.816
   28DPPC    C3 1353   8.754   2.659   5.705
   28DPPC    N4 1354   8.718   2.517   5.716
   28DPPC    C5 1355   8.588   2.463   5.759
   28DPPC    C6 1356   8.463   2.527   5.698
   28DPPC    O7 1357   8.416   2.620   5.796
   28DPPC    P8 1358   8.289   2.708   5.751
   28DPPC    O9 1359   8.300   2.824   5.842
   28DPPC   O10 1360   8.183   2.605   5.757
   28DPPC   O11 1361   8.361   2.736   5.610
   28DPPC   C12 1362   8.265   2.761   5.507
   28DPPC   C13 1363   8.339   2.825   5.389
   28DPPC   O14 1364   8.254   2.884   5.289
   28DPPC   C15 1365   8.292   3.000   5.229
   28DPPC   O16 1366   8.408   3.039   5.244
   28DPPC   C17 1367   8.203   3.048   5.114
   28DPPC   C18 1368   8.063   3.087   5.162
   28DPPC   C19 1369   7.955   3.090   5.054
   28DPPC   C20 1370   7.987   3.188   4.942
   28DPPC   C21 1371   7.899   3.163   4.819
   28DPPC   C22 1372   7.933   3.270   4.716
   28DPPC   C23 1373   7.848   3.231   4.595
   28DPPC   C24 1374   7.842   3.351   4.501
   28DPPC   C25 1375   7.789   3.314   4.362
   28DPPC   C26 1376   7.839   3.423   4.267
   28DPPC   C27 1377   7.772   3.413   4.130
   28DPPC   C28 1378   7.791   3.543   4.051
   28DPPC   C29 1379   7.679   3.556   3.948
   28DPPC   C30 1380   7.702   3.677   3.857
   28DPPC   C31 1381   7.594   3.672   3.748
   28DPPC   C32 1382   8.438   2.720   5.338
   28DPPC   O33 1383   8.374   2.599   5.299
   28DPPC   C34 1384   8.447   2.492   5.255
   28DPPC   O35 1385   8.562   2.477   5.296
   28DPPC   C36 1386   8.368   2.375   5.195
   28DPPC   C37 1387   8.342   2.396   5.046
   28DPPC   C38 1388   8.235   2.501   5.015
   28DPPC   C39 1389   8.218   2.511   4.864
   28DPPC   C40 1390   8.128   2.629   4.826
   28DPPC   C41 1391   8.098   2.635   4.676
   28DPPC   C42 1392   8.028   2.769   4.652
   28DPPC   C43 1393   7.980   2.788   4.508
   28DPPC   C44 1394   8.051   2.907   4.444
   28DPPC   C45 1395   8.021   2.929   4.295
   28DPPC   C46 1396   8.074   3.063   4.242
   28DPPC   C47 1397   8.038   3.052   4.093
   28DPPC   C48 1398   8.069   3.188   4.031
   28DPPC   C49 1399   8.013   3.182   3.889
   28DPPC   C50 1400   8.051   3.299   3.798
   29DPPC    C1 1401   0.549   4.779   5.290
   29DPPC    C2 1402   0.486   4.690   5.090
   29DPPC    C3 1403   0.321   4.783   5.189
   29DPPC    N4 1404   0.465   4.809   5.174
   29DPPC    C5 1405   0.504   4.928   5.097
   29DPPC    C6 1406   0.482   5.061   5.169
   29DPPC    O7 1407   0.549   5.166   5.099
   29DPPC    P8 1408   0.497   5.310   5.150
   29DPPC    O9 1409   0.606   5.355   5.240
   29DPPC   O10 1410   0.367   5.279   5.213
   29DPPC   O11 1411   0.514   5.381   5.007
   29DPPC   C12 1412   0.425   5.329   4.908
   29DPPC   C13 1413   0.448   5.393   4.772
   29DPPC   O14 1414   0.345   5.355   4.679
   29DPPC   C15 1415   0.237   5.435   4.658
   29DPPC   O16 1416   0.215   5.535   4.726
   29DPPC   C17 1417   0.151   5.408   4.534
   29DPPC   C18 1418   0.228   5.447   4.408
   29DPPC   C19 1419   0.157   5.386   4.287
   29DPPC   C20 1420   0.255   5.371   4.170
   29DPPC   C21 1421   0.187   5.348   4.035
   29DPPC   C22 1422   0.071   5.443   4.004
   29DPPC   C23 1423  -0.017   5.417   3.882
   29DPPC   C24 1424  -0.098   5.537   3.833
   29DPPC   C25 1425  -0.159   5.535   3.693
   29DPPC   C26 1426  -0.281   5.444   3.677
   29DPPC   C27 1427  -0.362   5.455   3.548
   29DPPC   C28 1428  -0.486   5.365   3.537
   29DPPC   C29 1429  -0.554   5.385   3.402
   29DPPC   C30 1430  -0.613   5.526   3.412
   29DPPC   C31 1431  -0.694   5.571   3.290
   29DPPC   C32 1432   0.592   5.358   4.734
   29DPPC   O33 1433   0.630   5.220   4.730
   29DPPC   C34 1434   0.757   5.199   4.688
   29DPPC   O35 1435   0.821   5.294   4.641
   29DPPC   C36 1436   0.810   5.057   4.708
   29DPPC   C37 1437   0.894   5.020   4.586
   29DPPC   C38 1438   0.979   4.894   4.597
   29DPPC   C39 1439   1.068   4.876   4.474
   29DPPC   C40 1440   0.995   4.866   4.340
   29DPPC   C41 1441   1.091   4.831   4.226
   29DPPC   C42 1442   1.022   4.855   4.091
   29DPPC   C43 1443   1.112   4.842   3.968
   29DPPC   C44 1444   1.039   4.879   3.839
   29DPPC   C45 1445   1.120   4.855   3.711
   29DPPC   C46 1446   1.049   4.928   3.597
   29DPPC   C47 1447   1.119   4.902   3.464
   29DPPC   C48 1448   1.072   4.992   3.350
   29DPPC   C49 1449   1.166   4.981   3.230
   29DPPC   C50 1450   1.120   5.062   3.109
   30DPPC    C1 1451   6.835   1.892   6.171
   30DPPC    C2 1452   7.019   1.870   6.011
   30DPPC    C3 1453   6.823   1.945   5.928
   30DPPC    N4 1454   6.901   1.947   6.052
   30DPPC    C5 1455   6.955   2.082   6.076
   30DPPC    C6 1456   6.858   2.183   6.137
   30DPPC    O7 1457   6.914   2.315   6.145
   30DPPC    P8 1458   6.816   2.414   6.064
   30DPPC    O9 1459   6.863   2.552   6.087
   30DPPC   O10 1460   6.673   2.385   6.087
   30DPPC   O11 1461   6.845   2.379   5.910
   30DPPC   C12 1462   6.800   2.494   5.838
   30DPPC   C13 1463   6.876   2.499   5.706
   30DPPC   O14 1464   6.831   2.595   5.609
   30DPPC   C15 1465   6.909   2.706   5.598
   30DPPC   O16 1466   6.987   2.743   5.686
   30DPPC   C17 1467   6.882   2.793   5.474
   30DPPC   C18 1468   6.824   2.933   5.497
   30DPPC   C19 1469   6.805   3.019   5.373
   30DPPC   C20 1470   6.939   3.076   5.325
   30DPPC   C21 1471   6.927   3.146   5.189
   30DPPC   C22 1472   7.057   3.220   5.156
   30DPPC   C23 1473   7.030   3.311   5.036
   30DPPC   C24 1474   6.906   3.400   5.051
   30DPPC   C25 1475   6.912   3.486   4.925
   30DPPC   C26 1476   6.980   3.618   4.962
   30DPPC   C27 1477   7.013   3.692   4.832
   30DPPC   C28 1478   6.891   3.724   4.746
   30DPPC   C29 1479   6.812   3.828   4.825
   30DPPC   C30 1480   6.661   3.805   4.811
   30DPPC   C31 1481   6.625   3.821   4.664
   30DPPC   C32 1482   6.870   2.361   5.639
   30DPPC   O33 1483   6.948   2.336   5.522
   30DPPC   C34 1484   6.972   2.208   5.482
   30DPPC   O35 1485   6.881   2.137   5.524
   30DPPC   C36 1486   7.095   2.176   5.397
   30DPPC   C37 1487   7.064   2.150   5.250
   30DPPC   C38 1488   7.040   2.274   5.162
   30DPPC   C39 1489   7.041   2.235   5.014
   30DPPC   C40 1490   7.019   2.362   4.932
   30DPPC   C41 1491   6.985   2.317   4.790
   30DPPC   C42 1492   6.876   2.413   4.741
   30DPPC   C43 1493   6.846   2.421   4.591
   30DPPC   C44 1494   6.728   2.515   4.568
   30DPPC   C45 1495   6.714   2.544   4.418
   30DPPC   C46 1496   6.587   2.622   4.387
   30DPPC   C47 1497   6.572   2.740   4.483
   30DPPC   C48 1498   6.458   2.834   4.444
   30DPPC   C49 1499   6.466   2.957   4.536
   30DPPC   C50 1500   6.357   3.050   4.484
   31DPPC    C1 1501   6.008   7.057   5.299
   31DPPC    C2 1502   6.142   7.053   5.101
   31DPPC    C3 1503   6.227   7.079   5.329
   31DPPC    N4 1504   6.134   7.007   5.241
   31DPPC    C5 1505   6.146   6.864   5.273
   31DPPC    C6 1506   6.082   6.759   5.183
   31DPPC    O7 1507   5.940   6.771   5.189
   31DPPC    P8 1508   5.858   6.693   5.303
   31DPPC    O9 1509   5.847   6.792   5.413
   31DPPC   O10 1510   5.941   6.574   5.333
   31DPPC   O11 1511   5.717   6.664   5.232
   31DPPC   C12 1512   5.746   6.597   5.109
   31DPPC   C13 1513   5.653   6.480   5.076
   31DPPC   O14 1514   5.692   6.397   4.965
   31DPPC   C15 1515   5.683   6.264   4.989
   31DPPC   O16 1516   5.712   6.230   5.104
   31DPPC   C17 1517   5.699   6.175   4.865
   31DPPC   C18 1518   5.563   6.147   4.802
   31DPPC   C19 1519   5.593   6.106   4.657
   31DPPC   C20 1520   5.473   6.099   4.563
   31DPPC   C21 1521   5.516   6.046   4.426
   31DPPC   C22 1522   5.386   6.014   4.352
   31DPPC   C23 1523   5.295   6.137   4.350
   31DPPC   C24 1524   5.184   6.112   4.249
   31DPPC   C25 1525   5.104   6.242   4.235
   31DPPC   C26 1526   5.031   6.233   4.101
   31DPPC   C27 1527   4.986   6.377   4.074
   31DPPC   C28 1528   4.881   6.412   4.180
   31DPPC   C29 1529   4.809   6.541   4.138
   31DPPC   C30 1530   4.693   6.564   4.234
   31DPPC   C31 1531   4.754   6.603   4.369
   31DPPC   C32 1532   5.513   6.541   5.075
   31DPPC   O33 1533   5.495   6.643   4.977
   31DPPC   C34 1534   5.385   6.723   4.981
   31DPPC   O35 1535   5.290   6.692   5.053
   31DPPC   C36 1536   5.393   6.842   4.886
   31DPPC   C37 1537   5.356   6.806   4.742
   31DPPC   C38 1538   5.372   6.932   4.657
   31DPPC   C39 1539   5.335   6.884   4.516
   31DPPC   C40 1540   5.356   6.987   4.405
   31DPPC   C41 1541   5.481   7.069   4.435
   31DPPC   C42 1542   5.503   7.173   4.325
   31DPPC   C43 1543   5.643   7.236   4.321
   31DPPC   C44 1544   5.673   7.335   4.433
   31DPPC   C45 1545   5.575   7.451   4.410
   31DPPC   C46 1546   5.596   7.551   4.524
   31DPPC   C47 1547   5.544   7.497   4.657
   31DPPC   C48 1548   5.399   7.450   4.646
   31DPPC   C49 1549   5.330   7.466   4.781
   31DPPC   C50 1550   5.198   7.388   4.786
   32DPPC    C1 1551   1.144   7.575   4.844
   32DPPC    C2 1552   1.027   7.780   4.826
   32DPPC    C3 1553   1.012   7.601   4.659
   32DPPC    N4 1554   1.017   7.635   4.802
   32DPPC    C5 1555   0.913   7.565   4.879
   32DPPC    C6 1556   0.781   7.636   4.907
   32DPPC    O7 1557   0.707   7.661   4.787
   32DPPC    P8 1558   0.595   7.775   4.808
   32DPPC    O9 1559   0.665   7.905   4.816
   32DPPC   O10 1560   0.493   7.735   4.907
   32DPPC   O11 1561   0.534   7.753   4.660
   32DPPC   C12 1562   0.630   7.792   4.563
   32DPPC   C13 1563   0.596   7.734   4.425
   32DPPC   O14 1564   0.693   7.752   4.320
   32DPPC   C15 1565   0.670   7.669   4.216
   32DPPC   O16 1566   0.615   7.562   4.241
   32DPPC   C17 1567   0.736   7.698   4.081
   32DPPC   C18 1568   0.849   7.600   4.052
   32DPPC   C19 1569   0.930   7.630   3.926
   32DPPC   C20 1570   1.080   7.637   3.954
   32DPPC   C21 1571   1.168   7.651   3.830
   32DPPC   C22 1572   1.146   7.533   3.735
   32DPPC   C23 1573   1.240   7.532   3.615
   32DPPC   C24 1574   1.212   7.425   3.509
   32DPPC   C25 1575   1.217   7.292   3.585
   32DPPC   C26 1576   1.192   7.183   3.481
   32DPPC   C27 1577   1.051   7.202   3.424
   32DPPC   C28 1578   1.013   7.087   3.330
   32DPPC   C29 1579   1.003   6.956   3.409
   32DPPC   C30 1580   0.871   6.951   3.486
   32DPPC   C31 1581   0.862   6.805   3.533
   32DPPC   C32 1582   0.455   7.782   4.390
   32DPPC   O33 1583   0.447   7.920   4.354
   32DPPC   C34 1584   0.320   7.962   4.329
   32DPPC   O35 1585   0.226   7.883   4.318
   32DPPC   C36 1586   0.300   8.113   4.312
   32DPPC   C37 1587   0.196   8.157   4.209
   32DPPC   C38 1588   0.209   8.306   4.179
   32DPPC   C39 1589   0.086   8.339   4.094
   32DPPC   C40 1590   0.093   8.483   4.041
   32DPPC   C41 1591   0.037   8.497   3.899
   32DPPC   C42 1592   0.032   8.641   3.850
   32DPPC   C43 1593   0.013   8.652   3.698
   32DPPC   C44 1594  -0.122   8.603   3.647
   32DPPC   C45 1595  -0.112   8.620   3.496
   32DPPC   C46 1596  -0.242   8.593   3.419
   32DPPC   C47 1597  -0.220   8.608   3.268
   32DPPC   C48 1598  -0.345   8.568   3.188
   32DPPC   C49 1599  -0.327   8.549   3.038
   32DPPC   C50 1600  -0.217   8.443   3.026
   33DPPC    C1 1601   2.357   2.323   5.359
   33DPPC    C2 1602   2.238   2.511   5.316
   33DPPC    C3 1603   2.354   2.418   5.133
   33DPPC    N4 1604   2.276   2.384   5.253
   33DPPC    C5 1605   2.166   2.302   5.199
   33DPPC    C6 1606   2.053   2.254   5.290
   33DPPC    O7 1607   1.938   2.194   5.230
   33DPPC    P8 1608   1.814   2.293   5.202
   33DPPC    O9 1609   1.838   2.398   5.303
   33DPPC   O10 1610   1.696   2.204   5.199
   33DPPC   O11 1611   1.856   2.348   5.057
   33DPPC   C12 1612   1.812   2.260   4.953
   33DPPC   C13 1613   1.824   2.325   4.815
   33DPPC   O14 1614   1.749   2.254   4.714
   33DPPC   C15 1615   1.626   2.309   4.694
   33DPPC   O16 1616   1.603   2.415   4.751
   33DPPC   C17 1617   1.549   2.263   4.570
   33DPPC   C18 1618   1.471   2.374   4.498
   33DPPC   C19 1619   1.413   2.345   4.360
   33DPPC   C20 1620   1.332   2.464   4.309
   33DPPC   C21 1621   1.248   2.430   4.185
   33DPPC   C22 1622   1.147   2.317   4.205
   33DPPC   C23 1623   1.074   2.307   4.071
   33DPPC   C24 1624   1.169   2.262   3.960
   33DPPC   C25 1625   1.084   2.262   3.833
   33DPPC   C26 1626   1.157   2.176   3.730
   33DPPC   C27 1627   1.301   2.225   3.750
   33DPPC   C28 1628   1.393   2.153   3.651
   33DPPC   C29 1629   1.544   2.162   3.671
   33DPPC   C30 1630   1.616   2.078   3.564
   33DPPC   C31 1631   1.701   2.155   3.462
   33DPPC   C32 1632   1.975   2.334   4.793
   33DPPC   O33 1633   2.054   2.215   4.805
   33DPPC   C34 1634   2.189   2.229   4.796
   33DPPC   O35 1635   2.237   2.341   4.814
   33DPPC   C36 1636   2.286   2.122   4.746
   33DPPC   C37 1637   2.214   1.997   4.694
   33DPPC   C38 1638   2.195   2.005   4.542
   33DPPC   C39 1639   2.145   1.871   4.487
   33DPPC   C40 1640   2.140   1.874   4.335
   33DPPC   C41 1641   2.124   1.734   4.275
   33DPPC   C42 1642   2.117   1.751   4.123
   33DPPC   C43 1643   2.244   1.826   4.081
   33DPPC   C44 1644   2.260   1.825   3.928
   33DPPC   C45 1645   2.179   1.947   3.884
   33DPPC   C46 1646   2.213   1.984   3.739
   33DPPC   C47 1647   2.138   2.105   3.682
   33DPPC   C48 1648   2.189   2.143   3.543
   33DPPC   C49 1649   2.091   2.251   3.496
   33DPPC   C50 1650   2.107   2.275   3.345
   34DPPC    C1 1651   2.988   4.358   5.541
   34DPPC    C2 1652   2.910   4.491   5.379
   34DPPC    C3 1653   2.922   4.600   5.591
   34DPPC    N4 1654   2.987   4.500   5.504
   34DPPC    C5 1655   3.120   4.553   5.472
   34DPPC    C6 1656   3.222   4.538   5.585
   34DPPC    O7 1657   3.328   4.630   5.560
   34DPPC    P8 1658   3.431   4.621   5.683
   34DPPC    O9 1659   3.354   4.618   5.810
   34DPPC   O10 1660   3.563   4.687   5.674
   34DPPC   O11 1661   3.455   4.463   5.663
   34DPPC   C12 1662   3.557   4.437   5.565
   34DPPC   C13 1663   3.621   4.299   5.568
   34DPPC   O14 1664   3.716   4.261   5.467
   34DPPC   C15 1665   3.840   4.315   5.473
   34DPPC   O16 1666   3.868   4.410   5.546
   34DPPC   C17 1667   3.951   4.263   5.381
   34DPPC   C18 1668   3.988   4.338   5.252
   34DPPC   C19 1669   3.870   4.355   5.157
   34DPPC   C20 1670   3.896   4.443   5.035
   34DPPC   C21 1671   3.767   4.484   4.964
   34DPPC   C22 1672   3.795   4.550   4.830
   34DPPC   C23 1673   3.847   4.453   4.724
   34DPPC   C24 1674   3.890   4.536   4.603
   34DPPC   C25 1675   3.938   4.446   4.488
   34DPPC   C26 1676   4.074   4.489   4.434
   34DPPC   C27 1677   4.144   4.376   4.358
   34DPPC   C28 1678   4.277   4.431   4.306
   34DPPC   C29 1679   4.350   4.340   4.207
   34DPPC   C30 1680   4.498   4.372   4.180
   34DPPC   C31 1681   4.509   4.511   4.116
   34DPPC   C32 1682   3.503   4.204   5.594
   34DPPC   O33 1683   3.398   4.203   5.496
   34DPPC   C34 1684   3.307   4.103   5.500
   34DPPC   O35 1685   3.273   4.074   5.615
   34DPPC   C36 1686   3.228   4.085   5.370
   34DPPC   C37 1687   3.229   3.938   5.327
   34DPPC   C38 1688   3.169   3.942   5.186
   34DPPC   C39 1689   3.274   3.992   5.087
   34DPPC   C40 1690   3.218   3.982   4.945
   34DPPC   C41 1691   3.302   3.894   4.853
   34DPPC   C42 1692   3.213   3.855   4.735
   34DPPC   C43 1693   3.310   3.804   4.628
   34DPPC   C44 1694   3.252   3.788   4.487
   34DPPC   C45 1695   3.363   3.722   4.406
   34DPPC   C46 1696   3.318   3.715   4.259
   34DPPC   C47 1697   3.335   3.852   4.194
   34DPPC   C48 1698   3.302   3.845   4.045
   34DPPC   C49 1699   3.349   3.977   3.983
   34DPPC   C50 1700   3.339   3.970   3.830
   35DPPC    C1 1701   1.508   2.674   1.494
   35DPPC    C2 1702   1.409   2.877   1.580
   35DPPC    C3 1703   1.472   2.695   1.726
   35DPPC    N4 1704   1.507   2.770   1.605
   35DPPC    C5 1705   1.642   2.827   1.617
   35DPPC    C6 1706   1.700   2.904   1.498
   35DPPC    O7 1707   1.817   2.978   1.533
   35DPPC    P8 1708   1.817   3.112   1.445
   35DPPC    O9 1709   1.737   3.096   1.322
   35DPPC   O10 1710   1.932   3.205   1.455
   35DPPC   O11 1711   1.695   3.174   1.530
   35DPPC   C12 1712   1.750   3.237   1.647
   35DPPC   C13 1713   1.625   3.299   1.709
   35DPPC   O14 1714   1.656   3.415   1.788
   35DPPC   C15 1715   1.723   3.520   1.734
   35DPPC   O16 1716   1.705   3.539   1.614
   35DPPC   C17 1717   1.776   3.624   1.834
   35DPPC   C18 1718   1.664   3.664   1.930
   35DPPC   C19 1719   1.727   3.692   2.067
   35DPPC   C20 1720   1.628   3.741   2.173
   35DPPC   C21 1721   1.707   3.754   2.303
   35DPPC   C22 1722   1.612   3.779   2.421
   35DPPC   C23 1723   1.695   3.807   2.547
   35DPPC   C24 1724   1.598   3.872   2.646
   35DPPC   C25 1725   1.675   3.970   2.735
   35DPPC   C26 1726   1.577   4.059   2.812
   35DPPC   C27 1727   1.517   3.972   2.923
   35DPPC   C28 1728   1.423   4.053   3.013
   35DPPC   C29 1729   1.385   3.965   3.132
   35DPPC   C30 1730   1.314   4.052   3.236
   35DPPC   C31 1731   1.402   4.173   3.267
   35DPPC   C32 1732   1.542   3.198   1.789
   35DPPC   O33 1733   1.622   3.098   1.853
   35DPPC   C34 1734   1.550   3.001   1.914
   35DPPC   O35 1735   1.438   2.971   1.871
   35DPPC   C36 1736   1.623   2.908   2.011
   35DPPC   C37 1737   1.727   2.979   2.098
   35DPPC   C38 1738   1.656   3.084   2.183
   35DPPC   C39 1739   1.759   3.137   2.283
   35DPPC   C40 1740   1.692   3.246   2.368
   35DPPC   C41 1741   1.729   3.252   2.516
   35DPPC   C42 1742   1.638   3.363   2.570
   35DPPC   C43 1743   1.632   3.360   2.722
   35DPPC   C44 1744   1.538   3.460   2.789
   35DPPC   C45 1745   1.539   3.452   2.942
   35DPPC   C46 1746   1.453   3.575   2.974
   35DPPC   C47 1747   1.308   3.532   2.951
   35DPPC   C48 1748   1.214   3.652   2.936
   35DPPC   C49 1749   1.072   3.595   2.931
   35DPPC   C50 1750   1.017   3.546   3.065
   36DPPC    C1 1751   6.184   6.357   1.849
   36DPPC    C2 1752   6.345   6.358   2.009
   36DPPC    C3 1753   6.361   6.520   1.825
   36DPPC    N4 1754   6.273   6.450   1.920
   36DPPC    C5 1755   6.196   6.542   2.006
   36DPPC    C6 1756   6.114   6.658   1.948
   36DPPC    O7 1757   6.187   6.765   1.888
   36DPPC    P8 1758   6.075   6.878   1.863
   36DPPC    O9 1759   5.949   6.806   1.833
   36DPPC   O10 1760   6.132   6.975   1.767
   36DPPC   O11 1761   6.065   6.936   2.013
   36DPPC   C12 1762   6.196   6.957   2.067
   36DPPC   C13 1763   6.211   7.030   2.201
   36DPPC   O14 1764   6.341   7.003   2.255
   36DPPC   C15 1765   6.434   7.100   2.233
   36DPPC   O16 1766   6.431   7.180   2.139
   36DPPC   C17 1767   6.568   7.096   2.306
   36DPPC   C18 1768   6.528   7.090   2.454
   36DPPC   C19 1769   6.653   7.082   2.541
   36DPPC   C20 1770   6.626   7.095   2.691
   36DPPC   C21 1771   6.742   7.092   2.791
   36DPPC   C22 1772   6.690   7.108   2.934
   36DPPC   C23 1773   6.809   7.096   3.028
   36DPPC   C24 1774   6.782   7.153   3.167
   36DPPC   C25 1775   6.906   7.217   3.230
   36DPPC   C26 1776   6.867   7.280   3.364
   36DPPC   C27 1777   6.793   7.177   3.451
   36DPPC   C28 1778   6.725   7.228   3.578
   36DPPC   C29 1779   6.817   7.292   3.682
   36DPPC   C30 1780   6.745   7.337   3.809
   36DPPC   C31 1781   6.857   7.389   3.899
   36DPPC   C32 1782   6.092   6.975   2.279
   36DPPC   O33 1783   6.048   7.056   2.388
   36DPPC   C34 1784   5.969   7.005   2.486
   36DPPC   O35 1785   5.903   6.905   2.458
   36DPPC   C36 1786   5.948   7.083   2.616
   36DPPC   C37 1787   6.069   7.063   2.708
   36DPPC   C38 1788   6.052   7.111   2.852
   36DPPC   C39 1789   5.938   7.033   2.916
   36DPPC   C40 1790   5.989   7.012   3.059
   36DPPC   C41 1791   5.873   6.961   3.144
   36DPPC   C42 1792   5.893   6.959   3.296
   36DPPC   C43 1793   5.805   6.853   3.364
   36DPPC   C44 1794   5.840   6.845   3.513
   36DPPC   C45 1795   5.729   6.783   3.598
   36DPPC   C46 1796   5.787   6.746   3.734
   36DPPC   C47 1797   5.687   6.799   3.838
   36DPPC   C48 1798   5.699   6.717   3.967
   36DPPC   C49 1799   5.616   6.788   4.074
   36DPPC   C50 1800   5.656   6.718   4.203
   37DPPC    C1 1801   8.502   3.015   1.725
   37DPPC    C2 1802   8.581   3.003   1.506
   37DPPC    C3 1803   8.390   3.133   1.535
   37DPPC    N4 1804   8.515   3.093   1.601
   37DPPC    C5 1805   8.609   3.204   1.619
   37DPPC    C6 1806   8.558   3.313   1.713
   37DPPC    O7 1807   8.652   3.421   1.719
   37DPPC    P8 1808   8.579   3.547   1.787
   37DPPC    O9 1809   8.474   3.486   1.871
   37DPPC   O10 1810   8.546   3.613   1.658
   37DPPC   O11 1811   8.707   3.614   1.858
   37DPPC   C12 1812   8.729   3.537   1.976
   37DPPC   C13 1813   8.793   3.612   2.093
   37DPPC   O14 1814   8.850   3.530   2.196
   37DPPC   C15 1815   8.958   3.450   2.173
   37DPPC   O16 1816   9.014   3.454   2.063
   37DPPC   C17 1817   9.009   3.361   2.286
   37DPPC   C18 1818   9.110   3.253   2.247
   37DPPC   C19 1819   9.143   3.176   2.376
   37DPPC   C20 1820   9.221   3.053   2.331
   37DPPC   C21 1821   9.245   2.947   2.439
   37DPPC   C22 1822   9.350   2.850   2.386
   37DPPC   C23 1823   9.378   2.757   2.504
   37DPPC   C24 1824   9.445   2.817   2.628
   37DPPC   C25 1825   9.589   2.860   2.603
   37DPPC   C26 1826   9.661   2.894   2.733
   37DPPC   C27 1827   9.706   2.777   2.820
   37DPPC   C28 1828   9.737   2.827   2.961
   37DPPC   C29 1829   9.754   2.710   3.058
   37DPPC   C30 1830   9.817   2.729   3.197
   37DPPC   C31 1831   9.725   2.814   3.284
   37DPPC   C32 1832   8.686   3.714   2.133
   37DPPC   O33 1833   8.564   3.648   2.167
   37DPPC   C34 1834   8.457   3.702   2.104
   37DPPC   O35 1835   8.464   3.773   2.003
   37DPPC   C36 1836   8.316   3.660   2.146
   37DPPC   C37 1837   8.307   3.657   2.298
   37DPPC   C38 1838   8.358   3.784   2.368
   37DPPC   C39 1839   8.300   3.813   2.506
   37DPPC   C40 1840   8.344   3.703   2.602
   37DPPC   C41 1841   8.256   3.706   2.727
   37DPPC   C42 1842   8.345   3.635   2.831
   37DPPC   C43 1843   8.298   3.652   2.976
   37DPPC   C44 1844   8.416   3.598   3.057
   37DPPC   C45 1845   8.396   3.636   3.204
   37DPPC   C46 1846   8.513   3.579   3.284
   37DPPC   C47 1847   8.514   3.617   3.432
   37DPPC   C48 1848   8.624   3.544   3.509
   37DPPC   C49 1849   8.732   3.648   3.538
   37DPPC   C50 1850   8.856   3.572   3.586
   38DPPC    C1 1851   3.461   4.251   1.547
   38DPPC    C2 1852   3.457   4.485   1.487
   38DPPC    C3 1853   3.277   4.352   1.421
   38DPPC    N4 1854   3.376   4.369   1.528
   38DPPC    C5 1855   3.298   4.412   1.645
   38DPPC    C6 1856   3.205   4.316   1.720
   38DPPC    O7 1857   3.277   4.212   1.787
   38DPPC    P8 1858   3.174   4.098   1.834
   38DPPC    O9 1859   3.243   3.997   1.917
   38DPPC   O10 1860   3.107   4.061   1.707
   38DPPC   O11 1861   3.076   4.192   1.921
   38DPPC   C12 1862   3.115   4.200   2.059
   38DPPC   C13 1863   3.213   4.314   2.083
   38DPPC   O14 1864   3.290   4.287   2.201
   38DPPC   C15 1865   3.381   4.370   2.257
   38DPPC   O16 1866   3.440   4.457   2.192
   38DPPC   C17 1867   3.425   4.320   2.395
   38DPPC   C18 1868   3.422   4.436   2.495
   38DPPC   C19 1869   3.484   4.392   2.627
   38DPPC   C20 1870   3.479   4.513   2.721
   38DPPC   C21 1871   3.542   4.470   2.853
   38DPPC   C22 1872   3.464   4.366   2.934
   38DPPC   C23 1873   3.523   4.312   3.064
   38DPPC   C24 1874   3.568   4.430   3.151
   38DPPC   C25 1875   3.451   4.522   3.186
   38DPPC   C26 1876   3.514   4.628   3.278
   38DPPC   C27 1877   3.409   4.735   3.307
   38DPPC   C28 1878   3.464   4.848   3.395
   38DPPC   C29 1879   3.366   4.965   3.398
   38DPPC   C30 1880   3.415   5.066   3.502
   38DPPC   C31 1881   3.300   5.162   3.533
   38DPPC   C32 1882   3.139   4.448   2.073
   38DPPC   O33 1883   3.028   4.457   2.162
   38DPPC   C34 1884   2.968   4.579   2.171
   38DPPC   O35 1885   3.015   4.688   2.138
   38DPPC   C36 1886   2.844   4.570   2.261
   38DPPC   C37 1887   2.859   4.543   2.411
   38DPPC   C38 1888   2.763   4.433   2.455
   38DPPC   C39 1889   2.815   4.370   2.584
   38DPPC   C40 1890   2.708   4.272   2.635
   38DPPC   C41 1891   2.757   4.179   2.746
   38DPPC   C42 1892   2.820   4.248   2.867
   38DPPC   C43 1893   2.836   4.156   2.988
   38DPPC   C44 1894   2.900   4.246   3.094
   38DPPC   C45 1895   3.053   4.254   3.085
   38DPPC   C46 1896   3.104   4.348   3.194
   38DPPC   C47 1897   3.070   4.295   3.334
   38DPPC   C48 1898   3.136   4.385   3.439
   38DPPC   C49 1899   3.070   4.523   3.429
   38DPPC   C50 1900   3.102   4.616   3.546
   39DPPC    C1 1901   4.261   7.986   2.060
   39DPPC    C2 1902   4.342   8.004   1.828
   39DPPC    C3 1903   4.298   7.792   1.944
   39DPPC    N4 1904   4.256   7.931   1.923
   39DPPC    C5 1905   4.123   7.933   1.863
   39DPPC    C6 1906   4.031   8.054   1.880
   39DPPC    O7 1907   3.902   8.034   1.821
   39DPPC    P8 1908   3.783   8.112   1.896
   39DPPC    O9 1909   3.670   8.127   1.802
   39DPPC   O10 1910   3.830   8.241   1.953
   39DPPC   O11 1911   3.743   7.999   2.004
   39DPPC   C12 1912   3.601   7.994   2.017
   39DPPC   C13 1913   3.546   7.938   2.149
   39DPPC   O14 1914   3.404   7.947   2.165
   39DPPC   C15 1915   3.341   7.828   2.178
   39DPPC   O16 1916   3.384   7.736   2.108
   39DPPC   C17 1917   3.198   7.840   2.230
   39DPPC   C18 1918   3.153   7.705   2.287
   39DPPC   C19 1919   3.002   7.705   2.314
   39DPPC   C20 1920   2.941   7.575   2.367
   39DPPC   C21 1921   2.808   7.602   2.438
   39DPPC   C22 1922   2.767   7.472   2.507
   39DPPC   C23 1923   2.624   7.492   2.559
   39DPPC   C24 1924   2.531   7.532   2.444
   39DPPC   C25 1925   2.395   7.572   2.501
   39DPPC   C26 1926   2.332   7.461   2.585
   39DPPC   C27 1927   2.186   7.444   2.542
   39DPPC   C28 1928   2.105   7.323   2.590
   39DPPC   C29 1929   1.959   7.338   2.545
   39DPPC   C30 1930   1.939   7.349   2.394
   39DPPC   C31 1931   1.792   7.337   2.353
   39DPPC   C32 1932   3.641   8.004   2.250
   39DPPC   O33 1933   3.632   8.146   2.262
   39DPPC   C34 1934   3.693   8.192   2.374
   39DPPC   O35 1935   3.781   8.129   2.432
   39DPPC   C36 1936   3.661   8.330   2.432
   39DPPC   C37 1937   3.534   8.336   2.517
   39DPPC   C38 1938   3.560   8.260   2.648
   39DPPC   C39 1939   3.433   8.253   2.733
   39DPPC   C40 1940   3.438   8.210   2.880
   39DPPC   C41 1941   3.311   8.240   2.960
   39DPPC   C42 1942   3.292   8.164   3.092
   39DPPC   C43 1943   3.156   8.204   3.150
   39DPPC   C44 1944   3.161   8.172   3.299
   39DPPC   C45 1945   3.038   8.236   3.364
   39DPPC   C46 1946   2.992   8.162   3.490
   39DPPC   C47 1947   2.867   8.229   3.548
   39DPPC   C48 1948   2.809   8.147   3.664
   39DPPC   C49 1949   2.884   8.172   3.795
   39DPPC   C50 1950   2.841   8.080   3.910
   40DPPC    C1 1951   3.192   7.147   2.245
   40DPPC    C2 1952   3.311   7.053   2.077
   40DPPC    C3 1953   3.283   6.933   2.288
   40DPPC    N4 1954   3.218   7.016   2.186
   40DPPC    C5 1955   3.095   6.955   2.135
   40DPPC    C6 1956   3.086   6.857   2.017
   40DPPC    O7 1957   3.170   6.743   2.037
   40DPPC    P8 1958   3.144   6.625   1.931
   40DPPC    O9 1959   3.258   6.532   1.945
   40DPPC   O10 1960   3.085   6.654   1.799
   40DPPC   O11 1961   3.026   6.574   2.029
   40DPPC   C12 1962   3.091   6.485   2.121
   40DPPC   C13 1963   3.006   6.453   2.244
   40DPPC   O14 1964   2.900   6.365   2.204
   40DPPC   C15 1965   2.925   6.232   2.186
   40DPPC   O16 1966   3.034   6.175   2.176
   40DPPC   C17 1967   2.793   6.156   2.181
   40DPPC   C18 1968   2.729   6.155   2.320
   40DPPC   C19 1969   2.594   6.084   2.317
   40DPPC   C20 1970   2.547   6.065   2.461
   40DPPC   C21 1971   2.536   6.190   2.549
   40DPPC   C22 1972   2.489   6.149   2.689
   40DPPC   C23 1973   2.488   6.263   2.791
   40DPPC   C24 1974   2.429   6.214   2.923
   40DPPC   C25 1975   2.421   6.334   3.018
   40DPPC   C26 1976   2.314   6.428   2.962
   40DPPC   C27 1977   2.271   6.507   3.086
   40DPPC   C28 1978   2.198   6.421   3.188
   40DPPC   C29 1979   2.250   6.415   3.332
   40DPPC   C30 1980   2.193   6.316   3.433
   40DPPC   C31 1981   2.217   6.355   3.579
   40DPPC   C32 1982   2.958   6.584   2.306
   40DPPC   O33 1983   3.031   6.613   2.426
   40DPPC   C34 1984   3.017   6.743   2.464
   40DPPC   O35 1985   2.985   6.837   2.392
   40DPPC   C36 1986   3.062   6.774   2.607
   40DPPC   C37 1987   3.022   6.914   2.655
   40DPPC   C38 1988   3.056   6.926   2.804
   40DPPC   C39 1989   2.925   6.952   2.879
   40DPPC   C40 1990   2.948   6.967   3.030
   40DPPC   C41 1991   2.802   6.997   3.065
   40DPPC   C42 1992   2.789   7.054   3.207
   40DPPC   C43 1993   2.861   6.958   3.302
   40DPPC   C44 1994   2.855   7.021   3.441
   40DPPC   C45 1995   2.711   7.062   3.475
   40DPPC   C46 1996   2.695   7.112   3.619
   40DPPC   C47 1997   2.559   7.179   3.636
   40DPPC   C48 1998   2.551   7.252   3.771
   40DPPC   C49 1999   2.415   7.316   3.799
   40DPPC   C50 2000   2.375   7.432   3.708
   41DPPC    C1 2001   3.148   5.712   1.918
   41DPPC    C2 2002   3.039   5.905   1.947
   41DPPC    C3 2003   3.267   5.905   1.871
   41DPPC    N4 2004   3.135   5.844   1.854
   41DPPC    C5 2005   3.104   5.832   1.710
   41DPPC    C6 2006   3.002   5.737   1.648
   41DPPC    O7 2007   2.864   5.760   1.679
   41DPPC    P8 2008   2.769   5.687   1.571
   41DPPC    O9 2009   2.851   5.665   1.450
   41DPPC   O10 2010   2.646   5.768   1.568
   41DPPC   O11 2011   2.743   5.544   1.641
   41DPPC   C12 2012   2.650   5.543   1.750
   41DPPC   C13 2013   2.580   5.410   1.777
   41DPPC   O14 2014   2.454   5.409   1.846
   41DPPC   C15 2015   2.335   5.462   1.806
   41DPPC   O16 2016   2.341   5.532   1.705
   41DPPC   C17 2017   2.230   5.472   1.917
   41DPPC   C18 2018   2.223   5.332   1.978
   41DPPC   C19 2019   2.113   5.323   2.083
   41DPPC   C20 2020   2.100   5.194   2.164
   41DPPC   C21 2021   1.965   5.208   2.234
   41DPPC   C22 2022   1.919   5.074   2.292
   41DPPC   C23 2023   1.794   5.106   2.375
   41DPPC   C24 2024   1.724   4.985   2.437
   41DPPC   C25 2025   1.612   5.021   2.535
   41DPPC   C26 2026   1.561   4.888   2.592
   41DPPC   C27 2027   1.470   4.930   2.707
   41DPPC   C28 2028   1.565   5.003   2.802
   41DPPC   C29 2029   1.493   5.038   2.932
   41DPPC   C30 2030   1.592   5.063   3.045
   41DPPC   C31 2031   1.522   5.066   3.181
   41DPPC   C32 2032   2.687   5.327   1.849
   41DPPC   O33 2033   2.765   5.408   1.938
   41DPPC   C34 2034   2.870   5.342   1.992
   41DPPC   O35 2035   2.913   5.230   1.965
   41DPPC   C36 2036   2.941   5.415   2.106
   41DPPC   C37 2037   2.923   5.319   2.224
   41DPPC   C38 2038   2.991   5.372   2.351
   41DPPC   C39 2039   2.970   5.287   2.477
   41DPPC   C40 2040   3.073   5.318   2.586
   41DPPC   C41 2041   3.025   5.222   2.696
   41DPPC   C42 2042   3.113   5.226   2.821
   41DPPC   C43 2043   3.237   5.138   2.809
   41DPPC   C44 2044   3.320   5.162   2.936
   41DPPC   C45 2045   3.432   5.058   2.934
   41DPPC   C46 2046   3.519   5.068   2.808
   41DPPC   C47 2047   3.620   4.953   2.813
   41DPPC   C48 2048   3.742   4.996   2.732
   41DPPC   C49 2049   3.823   5.110   2.795
   41DPPC   C50 2050   3.944   5.132   2.703
   42DPPC    C1 2051   1.991   4.451   1.941
   42DPPC    C2 2052   2.132   4.480   1.739
   42DPPC    C3 2053   2.133   4.283   1.859
   42DPPC    N4 2054   2.044   4.392   1.817
   42DPPC    C5 2055   1.939   4.336   1.730
   42DPPC    C6 2056   1.824   4.430   1.694
   42DPPC    O7 2057   1.852   4.531   1.596
   42DPPC    P8 2058   1.717   4.616   1.578
   42DPPC    O9 2059   1.600   4.527   1.562
   42DPPC   O10 2060   1.751   4.715   1.474
   42DPPC   O11 2061   1.730   4.682   1.725
   42DPPC   C12 2062   1.801   4.806   1.717
   42DPPC   C13 2063   1.840   4.857   1.855
   42DPPC   O14 2064   1.951   4.797   1.924
   42DPPC   C15 2065   2.078   4.828   1.889
   42DPPC   O16 2066   2.107   4.876   1.779
   42DPPC   C17 2067   2.182   4.791   1.995
   42DPPC   C18 2068   2.143   4.821   2.140
   42DPPC   C19 2069   2.056   4.707   2.192
   42DPPC   C20 2070   2.056   4.692   2.345
   42DPPC   C21 2071   1.984   4.560   2.373
   42DPPC   C22 2072   1.986   4.557   2.525
   42DPPC   C23 2073   1.935   4.429   2.590
   42DPPC   C24 2074   1.915   4.464   2.738
   42DPPC   C25 2075   1.871   4.340   2.815
   42DPPC   C26 2076   1.868   4.371   2.965
   42DPPC   C27 2077   1.826   4.258   3.060
   42DPPC   C28 2078   1.817   4.304   3.205
   42DPPC   C29 2079   1.954   4.354   3.252
   42DPPC   C30 2080   1.953   4.399   3.398
   42DPPC   C31 2081   1.897   4.541   3.398
   42DPPC   C32 2082   1.713   4.874   1.939
   42DPPC   O33 2083   1.646   4.998   1.914
   42DPPC   C34 2084   1.546   5.010   2.005
   42DPPC   O35 2085   1.497   4.911   2.059
   42DPPC   C36 2086   1.486   5.148   2.032
   42DPPC   C37 2087   1.426   5.162   2.172
   42DPPC   C38 2088   1.401   5.307   2.214
   42DPPC   C39 2089   1.274   5.360   2.146
   42DPPC   C40 2090   1.226   5.478   2.230
   42DPPC   C41 2091   1.090   5.443   2.292
   42DPPC   C42 2092   1.076   5.534   2.414
   42DPPC   C43 2093   0.964   5.494   2.511
   42DPPC   C44 2094   0.974   5.581   2.637
   42DPPC   C45 2095   0.891   5.513   2.747
   42DPPC   C46 2096   0.881   5.588   2.880
   42DPPC   C47 2097   0.771   5.529   2.968
   42DPPC   C48 2098   0.774   5.610   3.098
   42DPPC   C49 2099   0.658   5.594   3.196
   42DPPC   C50 2100   0.681   5.674   3.324
   43DPPC    C1 2101   1.728   6.462   1.740
   43DPPC    C2 2102   1.505   6.539   1.731
   43DPPC    C3 2103   1.688   6.663   1.833
   43DPPC    N4 2104   1.645   6.581   1.719
   43DPPC    C5 2105   1.699   6.639   1.595
   43DPPC    C6 2106   1.612   6.747   1.530
   43DPPC    O7 2107   1.582   6.851   1.623
   43DPPC    P8 2108   1.449   6.927   1.575
   43DPPC    O9 2109   1.388   6.869   1.453
   43DPPC   O10 2110   1.473   7.073   1.580
   43DPPC   O11 2111   1.368   6.876   1.704
   43DPPC   C12 2112   1.264   6.963   1.750
   43DPPC   C13 2113   1.193   6.905   1.872
   43DPPC   O14 2114   1.137   7.004   1.962
   43DPPC   C15 2115   1.003   7.001   1.981
   43DPPC   O16 2116   0.931   6.964   1.889
   43DPPC   C17 2117   0.960   7.087   2.100
   43DPPC   C18 2118   1.011   7.231   2.090
   43DPPC   C19 2119   0.955   7.310   2.208
   43DPPC   C20 2120   1.035   7.439   2.220
   43DPPC   C21 2121   0.963   7.529   2.320
   43DPPC   C22 2122   0.944   7.452   2.451
   43DPPC   C23 2123   0.863   7.530   2.554
   43DPPC   C24 2124   0.880   7.454   2.685
   43DPPC   C25 2125   1.026   7.448   2.730
   43DPPC   C26 2126   1.014   7.396   2.874
   43DPPC   C27 2127   1.142   7.337   2.933
   43DPPC   C28 2128   1.248   7.434   2.987
   43DPPC   C29 2129   1.359   7.364   3.066
   43DPPC   C30 2130   1.467   7.463   3.110
   43DPPC   C31 2131   1.569   7.400   3.205
   43DPPC   C32 2132   1.296   6.817   1.942
   43DPPC   O33 2133   1.267   6.724   2.047
   43DPPC   C34 2134   1.361   6.656   2.117
   43DPPC   O35 2135   1.464   6.613   2.064
   43DPPC   C36 2136   1.313   6.576   2.238
   43DPPC   C37 2137   1.315   6.657   2.368
   43DPPC   C38 2138   1.232   6.570   2.463
   43DPPC   C39 2139   1.181   6.657   2.578
   43DPPC   C40 2140   1.098   6.771   2.518
   43DPPC   C41 2141   1.027   6.858   2.621
   43DPPC   C42 2142   0.910   6.932   2.556
   43DPPC   C43 2143   0.814   6.995   2.657
   43DPPC   C44 2144   0.768   6.910   2.775
   43DPPC   C45 2145   0.683   7.008   2.856
   43DPPC   C46 2146   0.751   7.081   2.972
   43DPPC   C47 2147   0.648   7.152   3.060
   43DPPC   C48 2148   0.733   7.236   3.156
   43DPPC   C49 2149   0.650   7.354   3.204
   43DPPC   C50 2150   0.620   7.449   3.087
   44DPPC    C1 2151   4.936   1.652   1.551
   44DPPC    C2 2152   4.723   1.735   1.518
   44DPPC    C3 2153   4.810   1.737   1.732
   44DPPC    N4 2154   4.847   1.761   1.592
   44DPPC    C5 2155   4.916   1.890   1.576
   44DPPC    C6 2156   4.836   2.020   1.595
   44DPPC    O7 2157   4.785   2.046   1.726
   44DPPC    P8 2158   4.765   2.206   1.730
   44DPPC    O9 2159   4.656   2.226   1.829
   44DPPC   O10 2160   4.738   2.258   1.594
   44DPPC   O11 2161   4.912   2.244   1.784
   44DPPC   C12 2162   4.924   2.214   1.923
   44DPPC   C13 2163   5.072   2.185   1.946
   44DPPC   O14 2164   5.101   2.104   2.061
   44DPPC   C15 2165   5.222   2.042   2.064
   44DPPC   O16 2166   5.276   2.035   1.954
   44DPPC   C17 2167   5.262   1.958   2.186
   44DPPC   C18 2168   5.414   1.964   2.203
   44DPPC   C19 2169   5.441   1.927   2.349
   44DPPC   C20 2170   5.593   1.928   2.372
   44DPPC   C21 2171   5.635   1.910   2.518
   44DPPC   C22 2172   5.786   1.907   2.546
   44DPPC   C23 2173   5.816   1.888   2.695
   44DPPC   C24 2174   5.757   1.763   2.760
   44DPPC   C25 2175   5.772   1.763   2.912
   44DPPC   C26 2176   5.897   1.693   2.965
   44DPPC   C27 2177   5.881   1.660   3.113
   44DPPC   C28 2178   5.981   1.549   3.149
   44DPPC   C29 2179   5.982   1.508   3.296
   44DPPC   C30 2180   6.099   1.411   3.313
   44DPPC   C31 2181   6.112   1.362   3.457
   44DPPC   C32 2182   5.132   2.326   1.949
   44DPPC   O33 2183   5.067   2.417   2.038
   44DPPC   C34 2184   5.117   2.543   2.045
   44DPPC   O35 2185   5.208   2.584   1.973
   44DPPC   C36 2186   5.047   2.631   2.149
   44DPPC   C37 2187   5.126   2.756   2.187
   44DPPC   C38 2188   5.226   2.708   2.292
   44DPPC   C39 2189   5.154   2.690   2.426
   44DPPC   C40 2190   5.264   2.643   2.521
   44DPPC   C41 2191   5.198   2.609   2.655
   44DPPC   C42 2192   5.312   2.579   2.753
   44DPPC   C43 2193   5.254   2.507   2.875
   44DPPC   C44 2194   5.367   2.481   2.974
   44DPPC   C45 2195   5.314   2.425   3.106
   44DPPC   C46 2196   5.423   2.437   3.213
   44DPPC   C47 2197   5.378   2.351   3.332
   44DPPC   C48 2198   5.489   2.381   3.433
   44DPPC   C49 2199   5.618   2.346   3.359
   44DPPC   C50 2200   5.734   2.332   3.458
   45DPPC    C1 2201   0.267   4.279   1.435
   45DPPC    C2 2202   0.307   4.340   1.210
   45DPPC    C3 2203   0.486   4.314   1.364
   45DPPC    N4 2204   0.357   4.257   1.321
   45DPPC    C5 2205   0.374   4.114   1.290
   45DPPC    C6 2206   0.398   4.021   1.409
   45DPPC    O7 2207   0.535   3.985   1.432
   45DPPC    P8 2208   0.543   3.883   1.556
   45DPPC    O9 2209   0.689   3.860   1.554
   45DPPC   O10 2210   0.441   3.783   1.515
   45DPPC   O11 2211   0.492   3.956   1.689
   45DPPC   C12 2212   0.604   3.976   1.775
   45DPPC   C13 2213   0.581   4.076   1.889
   45DPPC   O14 2214   0.676   4.071   1.996
   45DPPC   C15 2215   0.773   4.167   1.993
   45DPPC   O16 2216   0.837   4.185   1.890
   45DPPC   C17 2217   0.825   4.189   2.135
   45DPPC   C18 2218   0.726   4.282   2.206
   45DPPC   C19 2219   0.755   4.303   2.355
   45DPPC   C20 2220   0.649   4.400   2.407
   45DPPC   C21 2221   0.685   4.495   2.521
   45DPPC   C22 2222   0.570   4.596   2.531
   45DPPC   C23 2223   0.435   4.532   2.561
   45DPPC   C24 2224   0.322   4.635   2.555
   45DPPC   C25 2225   0.216   4.560   2.636
   45DPPC   C26 2226   0.098   4.657   2.643
   45DPPC   C27 2227   0.001   4.604   2.749
   45DPPC   C28 2228   0.077   4.559   2.874
   45DPPC   C29 2229  -0.009   4.515   2.993
   45DPPC   C30 2230   0.073   4.480   3.117
   45DPPC   C31 2231  -0.001   4.388   3.214
   45DPPC   C32 2232   0.437   4.055   1.935
   45DPPC   O33 2233   0.399   4.164   2.020
   45DPPC   C34 2234   0.271   4.159   2.066
   45DPPC   O35 2235   0.190   4.082   2.015
   45DPPC   C36 2236   0.241   4.258   2.179
   45DPPC   C37 2237   0.144   4.195   2.279
   45DPPC   C38 2238   0.159   4.273   2.409
   45DPPC   C39 2239   0.065   4.214   2.515
   45DPPC   C40 2240   0.100   4.073   2.563
   45DPPC   C41 2241  -0.002   4.027   2.667
   45DPPC   C42 2242  -0.027   4.101   2.799
   45DPPC   C43 2243  -0.126   4.011   2.873
   45DPPC   C44 2244  -0.063   3.871   2.872
   45DPPC   C45 2245  -0.172   3.773   2.918
   45DPPC   C46 2246  -0.220   3.812   3.058
   45DPPC   C47 2247  -0.317   3.714   3.125
   45DPPC   C48 2248  -0.458   3.715   3.065
   45DPPC   C49 2249  -0.531   3.584   3.093
   45DPPC   C50 2250  -0.662   3.567   3.015
   46DPPC    C1 2251   9.385   1.702   1.331
   46DPPC    C2 2252   9.390   1.758   1.547
   46DPPC    C3 2253   9.597   1.748   1.409
   46DPPC    N4 2254   9.458   1.792   1.421
   46DPPC    C5 2255   9.444   1.932   1.379
   46DPPC    C6 2256   9.426   2.054   1.470
   46DPPC    O7 2257   9.309   2.062   1.552
   46DPPC    P8 2258   9.302   2.207   1.622
   46DPPC    O9 2259   9.166   2.235   1.675
   46DPPC   O10 2260   9.383   2.303   1.545
   46DPPC   O11 2261   9.397   2.179   1.749
   46DPPC   C12 2262   9.331   2.108   1.854
   46DPPC   C13 2263   9.436   2.090   1.963
   46DPPC   O14 2264   9.422   1.970   2.041
   46DPPC   C15 2265   9.475   1.857   1.987
   46DPPC   O16 2266   9.511   1.848   1.870
   46DPPC   C17 2267   9.475   1.737   2.082
   46DPPC   C18 2268   9.408   1.754   2.219
   46DPPC   C19 2269   9.357   1.623   2.279
   46DPPC   C20 2270   9.305   1.651   2.420
   46DPPC   C21 2271   9.260   1.520   2.486
   46DPPC   C22 2272   9.179   1.536   2.615
   46DPPC   C23 2273   9.139   1.396   2.661
   46DPPC   C24 2274   9.041   1.373   2.776
   46DPPC   C25 2275   9.088   1.431   2.910
   46DPPC   C26 2276   8.998   1.374   3.020
   46DPPC   C27 2277   8.977   1.483   3.124
   46DPPC   C28 2278   9.115   1.503   3.186
   46DPPC   C29 2279   9.099   1.581   3.317
   46DPPC   C30 2280   8.996   1.517   3.410
   46DPPC   C31 2281   8.991   1.589   3.546
   46DPPC   C32 2282   9.443   2.223   2.036
   46DPPC   O33 2283   9.325   2.261   2.107
   46DPPC   C34 2284   9.325   2.385   2.162
   46DPPC   O35 2285   9.424   2.454   2.135
   46DPPC   C36 2286   9.196   2.437   2.226
   46DPPC   C37 2287   9.183   2.381   2.367
   46DPPC   C38 2288   9.107   2.498   2.431
   46DPPC   C39 2289   9.084   2.466   2.578
   46DPPC   C40 2290   8.947   2.402   2.605
   46DPPC   C41 2291   8.926   2.352   2.748
   46DPPC   C42 2292   8.800   2.266   2.760
   46DPPC   C43 2293   8.767   2.221   2.902
   46DPPC   C44 2294   8.640   2.137   2.923
   46DPPC   C45 2295   8.609   2.121   3.072
   46DPPC   C46 2296   8.467   2.129   3.129
   46DPPC   C47 2297   8.454   2.113   3.281
   46DPPC   C48 2298   8.542   2.225   3.338
   46DPPC   C49 2299   8.529   2.218   3.490
   46DPPC   C50 2300   8.643   2.298   3.553
   47DPPC    C1 2301   7.710   2.002   1.364
   47DPPC    C2 2302   7.725   1.833   1.200
   47DPPC    C3 2303   7.776   1.786   1.428
   47DPPC    N4 2304   7.685   1.860   1.339
   47DPPC    C5 2305   7.543   1.822   1.339
   47DPPC    C6 2306   7.484   1.761   1.467
   47DPPC    O7 2307   7.475   1.837   1.588
   47DPPC    P8 2308   7.457   1.753   1.724
   47DPPC    O9 2309   7.409   1.623   1.672
   47DPPC   O10 2310   7.376   1.833   1.818
   47DPPC   O11 2311   7.614   1.750   1.755
   47DPPC   C12 2312   7.654   1.694   1.881
   47DPPC   C13 2313   7.785   1.748   1.939
   47DPPC   O14 2314   7.852   1.659   2.029
   47DPPC   C15 2315   7.913   1.549   1.977
   47DPPC   O16 2316   7.937   1.534   1.858
   47DPPC   C17 2317   7.939   1.436   2.077
   47DPPC   C18 2318   7.845   1.318   2.052
   47DPPC   C19 2319   7.842   1.237   2.182
   47DPPC   C20 2320   7.792   1.318   2.302
   47DPPC   C21 2321   7.654   1.377   2.272
   47DPPC   C22 2322   7.607   1.448   2.398
   47DPPC   C23 2323   7.679   1.580   2.424
   47DPPC   C24 2324   7.589   1.655   2.522
   47DPPC   C25 2325   7.451   1.692   2.466
   47DPPC   C26 2326   7.376   1.766   2.577
   47DPPC   C27 2327   7.380   1.703   2.717
   47DPPC   C28 2328   7.315   1.801   2.815
   47DPPC   C29 2329   7.298   1.727   2.948
   47DPPC   C30 2330   7.207   1.798   3.048
   47DPPC   C31 2331   7.191   1.731   3.185
   47DPPC   C32 2332   7.746   1.885   1.997
   47DPPC   O33 2333   7.617   1.890   2.059
   47DPPC   C34 2334   7.561   2.006   2.101
   47DPPC   O35 2335   7.613   2.118   2.093
   47DPPC   C36 2336   7.435   1.977   2.183
   47DPPC   C37 2337   7.418   2.044   2.319
   47DPPC   C38 2338   7.270   2.055   2.353
   47DPPC   C39 2339   7.242   2.129   2.484
   47DPPC   C40 2340   7.103   2.095   2.537
   47DPPC   C41 2341   7.072   1.948   2.565
   47DPPC   C42 2342   6.940   1.931   2.640
   47DPPC   C43 2343   6.951   1.790   2.700
   47DPPC   C44 2344   6.827   1.786   2.789
   47DPPC   C45 2345   6.819   1.675   2.894
   47DPPC   C46 2346   6.756   1.732   3.020
   47DPPC   C47 2347   6.792   1.641   3.138
   47DPPC   C48 2348   6.749   1.688   3.277
   47DPPC   C49 2349   6.831   1.812   3.311
   47DPPC   C50 2350   6.819   1.834   3.462
   48DPPC    C1 2351   8.631   0.477   0.934
   48DPPC    C2 2352   8.455   0.509   0.784
   48DPPC    C3 2353   8.540   0.287   0.813
   48DPPC    N4 2354   8.509   0.413   0.881
   48DPPC    C5 2355   8.425   0.398   1.000
   48DPPC    C6 2356   8.351   0.271   1.042
   48DPPC    O7 2357   8.317   0.290   1.180
   48DPPC    P8 2358   8.237   0.156   1.220
   48DPPC    O9 2359   8.299   0.039   1.153
   48DPPC   O10 2360   8.095   0.187   1.191
   48DPPC   O11 2361   8.267   0.167   1.378
   48DPPC   C12 2362   8.405   0.165   1.417
   48DPPC   C13 2363   8.407   0.209   1.564
   48DPPC   O14 2364   8.530   0.212   1.638
   48DPPC   C15 2365   8.616   0.317   1.627
   48DPPC   O16 2366   8.593   0.394   1.535
   48DPPC   C17 2367   8.751   0.325   1.699
   48DPPC   C18 2368   8.742   0.246   1.830
   48DPPC   C19 2369   8.881   0.253   1.893
   48DPPC   C20 2370   8.895   0.194   2.033
   48DPPC   C21 2371   8.808   0.267   2.136
   48DPPC   C22 2372   8.833   0.193   2.268
   48DPPC   C23 2373   8.733   0.078   2.252
   48DPPC   C24 2374   8.724  -0.016   2.371
   48DPPC   C25 2375   8.707   0.064   2.500
   48DPPC   C26 2376   8.691  -0.027   2.622
   48DPPC   C27 2377   8.545  -0.072   2.632
   48DPPC   C28 2378   8.497  -0.140   2.760
   48DPPC   C29 2379   8.370  -0.224   2.742
   48DPPC   C30 2380   8.309  -0.280   2.871
   48DPPC   C31 2381   8.208  -0.386   2.825
   48DPPC   C32 2382   8.297   0.128   1.631
   48DPPC   O33 2383   8.273   0.134   1.772
   48DPPC   C34 2384   8.206   0.242   1.817
   48DPPC   O35 2385   8.190   0.335   1.738
   48DPPC   C36 2386   8.161   0.248   1.963
   48DPPC   C37 2387   8.270   0.272   2.068
   48DPPC   C38 2388   8.202   0.285   2.204
   48DPPC   C39 2389   8.315   0.306   2.304
   48DPPC   C40 2390   8.265   0.299   2.449
   48DPPC   C41 2391   8.200   0.429   2.494
   48DPPC   C42 2392   8.166   0.414   2.642
   48DPPC   C43 2393   8.143   0.552   2.704
   48DPPC   C44 2394   8.091   0.555   2.848
   48DPPC   C45 2395   8.086   0.702   2.890
   48DPPC   C46 2396   8.063   0.729   3.039
   48DPPC   C47 2397   8.171   0.657   3.120
   48DPPC   C48 2398   8.177   0.686   3.271
   48DPPC   C49 2399   8.215   0.831   3.298
   48DPPC   C50 2400   8.223   0.848   3.450
   49DPPC    C1 2401   4.320   7.309   2.329
   49DPPC    C2 2402   4.253   7.320   2.567
   49DPPC    C3 2403   4.280   7.509   2.435
   49DPPC    N4 2404   4.233   7.370   2.430
   49DPPC    C5 2405   4.095   7.374   2.378
   49DPPC    C6 2406   4.025   7.241   2.348
   49DPPC    O7 2407   3.896   7.264   2.292
   49DPPC    P8 2408   3.849   7.170   2.170
   49DPPC    O9 2409   3.968   7.176   2.082
   49DPPC   O10 2410   3.724   7.240   2.132
   49DPPC   O11 2411   3.850   7.043   2.268
   49DPPC   C12 2412   3.724   6.975   2.265
   49DPPC   C13 2413   3.720   6.847   2.350
   49DPPC   O14 2414   3.604   6.764   2.339
   49DPPC   C15 2415   3.587   6.689   2.227
   49DPPC   O16 2416   3.665   6.690   2.132
   49DPPC   C17 2417   3.474   6.586   2.238
   49DPPC   C18 2418   3.533   6.464   2.309
   49DPPC   C19 2419   3.427   6.357   2.337
   49DPPC   C20 2420   3.325   6.399   2.443
   49DPPC   C21 2421   3.215   6.293   2.453
   49DPPC   C22 2422   3.120   6.320   2.570
   49DPPC   C23 2423   2.994   6.233   2.561
   49DPPC   C24 2424   3.014   6.081   2.563
   49DPPC   C25 2425   2.885   6.012   2.609
   49DPPC   C26 2426   2.897   5.861   2.589
   49DPPC   C27 2427   2.799   5.773   2.667
   49DPPC   C28 2428   2.829   5.624   2.647
   49DPPC   C29 2429   2.731   5.541   2.731
   49DPPC   C30 2430   2.744   5.540   2.883
   49DPPC   C31 2431   2.754   5.396   2.933
   49DPPC   C32 2432   3.763   6.899   2.487
   49DPPC   O33 2433   3.663   6.985   2.543
   49DPPC   C34 2434   3.690   7.034   2.667
   49DPPC   O35 2435   3.790   7.006   2.733
   49DPPC   C36 2436   3.564   7.093   2.731
   49DPPC   C37 2437   3.561   7.243   2.703
   49DPPC   C38 2438   3.449   7.307   2.786
   49DPPC   C39 2439   3.405   7.440   2.725
   49DPPC   C40 2440   3.297   7.506   2.812
   49DPPC   C41 2441   3.166   7.428   2.805
   49DPPC   C42 2442   3.052   7.479   2.894
   49DPPC   C43 2443   2.931   7.387   2.874
   49DPPC   C44 2444   2.803   7.460   2.915
   49DPPC   C45 2445   2.807   7.500   3.063
   49DPPC   C46 2446   2.671   7.557   3.104
   49DPPC   C47 2447   2.560   7.455   3.079
   49DPPC   C48 2448   2.424   7.511   3.123
   49DPPC   C49 2449   2.298   7.438   3.077
   49DPPC   C50 2450   2.301   7.420   2.926
   50DPPC    C1 2451   5.598   1.896   1.521
   50DPPC    C2 2452   5.647   1.710   1.360
   50DPPC    C3 2453   5.808   1.850   1.443
   50DPPC    N4 2454   5.683   1.783   1.483
   50DPPC    C5 2455   5.715   1.677   1.578
   50DPPC    C6 2456   5.608   1.619   1.671
   50DPPC    O7 2457   5.661   1.513   1.750
   50DPPC    P8 2458   5.538   1.412   1.773
   50DPPC    O9 2459   5.624   1.302   1.820
   50DPPC   O10 2460   5.470   1.401   1.641
   50DPPC   O11 2461   5.467   1.501   1.887
   50DPPC   C12 2462   5.524   1.465   2.013
   50DPPC   C13 2463   5.448   1.524   2.132
   50DPPC   O14 2464   5.497   1.482   2.260
   50DPPC   C15 2465   5.594   1.550   2.327
   50DPPC   O16 2466   5.669   1.628   2.268
   50DPPC   C17 2467   5.652   1.478   2.449
   50DPPC   C18 2468   5.559   1.500   2.568
   50DPPC   C19 2469   5.613   1.414   2.682
   50DPPC   C20 2470   5.529   1.422   2.809
   50DPPC   C21 2471   5.608   1.373   2.930
   50DPPC   C22 2472   5.549   1.402   3.068
   50DPPC   C23 2473   5.635   1.342   3.179
   50DPPC   C24 2474   5.569   1.380   3.312
   50DPPC   C25 2475   5.430   1.315   3.320
   50DPPC   C26 2476   5.346   1.382   3.428
   50DPPC   C27 2477   5.288   1.517   3.387
   50DPPC   C28 2478   5.198   1.594   3.484
   50DPPC   C29 2479   5.198   1.741   3.444
   50DPPC   C30 2480   5.125   1.818   3.554
   50DPPC   C31 2481   5.145   1.968   3.537
   50DPPC   C32 2482   5.298   1.511   2.106
   50DPPC   O33 2483   5.213   1.591   2.190
   50DPPC   C34 2484   5.186   1.549   2.316
   50DPPC   O35 2485   5.157   1.429   2.326
   50DPPC   C36 2486   5.104   1.657   2.387
   50DPPC   C37 2487   5.168   1.707   2.516
   50DPPC   C38 2488   5.101   1.829   2.579
   50DPPC   C39 2489   4.958   1.794   2.621
   50DPPC   C40 2490   4.908   1.933   2.662
   50DPPC   C41 2491   4.759   1.942   2.698
   50DPPC   C42 2492   4.727   1.836   2.804
   50DPPC   C43 2493   4.634   1.872   2.920
   50DPPC   C44 2494   4.617   1.749   3.008
   50DPPC   C45 2495   4.544   1.769   3.141
   50DPPC   C46 2496   4.525   1.632   3.207
   50DPPC   C47 2497   4.423   1.634   3.321
   50DPPC   C48 2498   4.490   1.708   3.437
   50DPPC   C49 2499   4.391   1.732   3.551
   50DPPC   C50 2500   4.445   1.803   3.675
   51DPPC    C1 2501   4.109   5.604   1.976
   51DPPC    C2 2502   4.308   5.720   1.970
   51DPPC    C3 2503   4.144   5.774   1.811
   51DPPC    N4 2504   4.163   5.738   1.953
   51DPPC    C5 2505   4.118   5.835   2.054
   51DPPC    C6 2506   3.972   5.878   2.039
   51DPPC    O7 2507   3.876   5.782   2.084
   51DPPC    P8 2508   3.730   5.830   2.035
   51DPPC    O9 2509   3.643   5.714   2.006
   51DPPC   O10 2510   3.732   5.929   1.925
   51DPPC   O11 2511   3.678   5.907   2.167
   51DPPC   C12 2512   3.688   5.818   2.278
   51DPPC   C13 2513   3.799   5.858   2.376
   51DPPC   O14 2514   3.833   5.751   2.465
   51DPPC   C15 2515   3.954   5.689   2.470
   51DPPC   O16 2516   4.043   5.697   2.386
   51DPPC   C17 2517   3.954   5.574   2.571
   51DPPC   C18 2518   3.995   5.629   2.708
   51DPPC   C19 2519   4.033   5.505   2.789
   51DPPC   C20 2520   4.067   5.569   2.924
   51DPPC   C21 2521   4.046   5.482   3.048
   51DPPC   C22 2522   4.125   5.352   3.028
   51DPPC   C23 2523   4.122   5.263   3.152
   51DPPC   C24 2524   4.183   5.124   3.128
   51DPPC   C25 2525   4.248   5.069   3.255
   51DPPC   C26 2526   4.306   4.928   3.247
   51DPPC   C27 2527   4.404   4.912   3.364
   51DPPC   C28 2528   4.483   4.783   3.340
   51DPPC   C29 2529   4.390   4.662   3.346
   51DPPC   C30 2530   4.471   4.534   3.327
   51DPPC   C31 2531   4.530   4.523   3.186
   51DPPC   C32 2532   3.772   5.997   2.434
   51DPPC   O33 2533   3.644   6.002   2.500
   51DPPC   C34 2534   3.607   6.115   2.565
   51DPPC   O35 2535   3.683   6.210   2.582
   51DPPC   C36 2536   3.468   6.120   2.630
   51DPPC   C37 2537   3.501   6.096   2.778
   51DPPC   C38 2538   3.379   6.073   2.867
   51DPPC   C39 2539   3.275   6.185   2.871
   51DPPC   C40 2540   3.165   6.173   2.977
   51DPPC   C41 2541   3.233   6.143   3.111
   51DPPC   C42 2542   3.135   6.157   3.227
   51DPPC   C43 2543   3.190   6.080   3.347
   51DPPC   C44 2544   3.148   6.139   3.482
   51DPPC   C45 2545   3.202   6.048   3.592
   51DPPC   C46 2546   3.139   6.098   3.722
   51DPPC   C47 2547   2.995   6.051   3.702
   51DPPC   C48 2548   2.909   6.109   3.815
   51DPPC   C49 2549   2.768   6.050   3.813
   51DPPC   C50 2550   2.705   6.109   3.939
   52DPPC    C1 2551   0.844   6.028   1.508
   52DPPC    C2 2552   0.898   6.102   1.718
   52DPPC    C3 2553   1.074   6.060   1.570
   52DPPC    N4 2554   0.939   6.117   1.578
   52DPPC    C5 2555   0.902   6.254   1.538
   52DPPC    C6 2556   0.990   6.366   1.592
   52DPPC    O7 2557   0.960   6.404   1.727
   52DPPC    P8 2558   1.068   6.492   1.807
   52DPPC    O9 2559   0.995   6.525   1.932
   52DPPC   O10 2560   1.118   6.597   1.715
   52DPPC   O11 2561   1.173   6.371   1.810
   52DPPC   C12 2562   1.148   6.293   1.928
   52DPPC   C13 2563   1.221   6.161   1.902
   52DPPC   O14 2564   1.164   6.062   1.988
   52DPPC   C15 2565   1.159   5.928   1.962
   52DPPC   O16 2566   1.210   5.881   1.860
   52DPPC   C17 2567   1.085   5.854   2.073
   52DPPC   C18 2568   0.940   5.816   2.040
   52DPPC   C19 2569   0.886   5.728   2.152
   52DPPC   C20 2570   0.737   5.708   2.128
   52DPPC   C21 2571   0.689   5.571   2.178
   52DPPC   C22 2572   0.681   5.565   2.331
   52DPPC   C23 2573   0.642   5.424   2.374
   52DPPC   C24 2574   0.613   5.408   2.523
   52DPPC   C25 2575   0.498   5.493   2.578
   52DPPC   C26 2576   0.468   5.475   2.726
   52DPPC   C27 2577   0.343   5.559   2.754
   52DPPC   C28 2578   0.297   5.546   2.899
   52DPPC   C29 2579   0.188   5.651   2.924
   52DPPC   C30 2580   0.161   5.643   3.074
   52DPPC   C31 2581   0.046   5.739   3.106
   52DPPC   C32 2582   1.371   6.185   1.917
   52DPPC   O33 2583   1.415   6.229   2.046
   52DPPC   C34 2584   1.545   6.246   2.080
   52DPPC   O35 2585   1.633   6.241   1.994
   52DPPC   C36 2586   1.566   6.309   2.218
   52DPPC   C37 2587   1.683   6.251   2.298
   52DPPC   C38 2588   1.676   6.099   2.282
   52DPPC   C39 2589   1.808   6.034   2.323
   52DPPC   C40 2590   1.827   6.062   2.472
   52DPPC   C41 2591   1.948   5.990   2.531
   52DPPC   C42 2592   2.018   6.079   2.634
   52DPPC   C43 2593   1.940   6.103   2.763
   52DPPC   C44 2594   1.899   5.968   2.822
   52DPPC   C45 2595   1.806   5.986   2.942
   52DPPC   C46 2596   1.769   5.847   2.993
   52DPPC   C47 2597   1.771   5.846   3.146
   52DPPC   C48 2598   1.903   5.905   3.195
   52DPPC   C49 2599   1.922   5.944   3.342
   52DPPC   C50 2600   2.070   5.982   3.346
   53DPPC    C1 2601   4.734   3.245   1.402
   53DPPC    C2 2602   4.517   3.155   1.473
   53DPPC    C3 2603   4.601   3.114   1.258
   53DPPC    N4 2604   4.641   3.131   1.398
   53DPPC    C5 2605   4.707   3.008   1.446
   53DPPC    C6 2606   4.756   3.006   1.591
   53DPPC    O7 2607   4.831   2.886   1.612
   53DPPC    P8 2608   4.788   2.842   1.761
   53DPPC    O9 2609   4.855   2.712   1.786
   53DPPC   O10 2610   4.643   2.865   1.777
   53DPPC   O11 2611   4.861   2.976   1.813
   53DPPC   C12 2612   4.959   2.960   1.916
   53DPPC   C13 2613   5.041   3.084   1.950
   53DPPC   O14 2614   5.158   3.058   2.028
   53DPPC   C15 2615   5.259   3.149   2.031
   53DPPC   O16 2616   5.255   3.251   1.962
   53DPPC   C17 2617   5.353   3.146   2.152
   53DPPC   C18 2618   5.272   3.122   2.279
   53DPPC   C19 2619   5.173   3.235   2.307
   53DPPC   C20 2620   5.081   3.207   2.426
   53DPPC   C21 2621   5.015   3.069   2.414
   53DPPC   C22 2622   4.963   3.020   2.549
   53DPPC   C23 2623   4.883   3.129   2.622
   53DPPC   C24 2624   4.869   3.096   2.771
   53DPPC   C25 2625   4.778   3.195   2.843
   53DPPC   C26 2626   4.783   3.157   2.992
   53DPPC   C27 2627   4.678   3.238   3.068
   53DPPC   C28 2628   4.686   3.199   3.216
   53DPPC   C29 2629   4.676   3.054   3.266
   53DPPC   C30 2630   4.672   3.052   3.419
   53DPPC   C31 2631   4.635   2.914   3.475
   53DPPC   C32 2632   4.946   3.197   1.991
   53DPPC   O33 2633   4.843   3.176   2.088
   53DPPC   C34 2634   4.761   3.283   2.107
   53DPPC   O35 2635   4.793   3.394   2.065
   53DPPC   C36 2636   4.632   3.248   2.181
   53DPPC   C37 2637   4.653   3.224   2.331
   53DPPC   C38 2638   4.513   3.199   2.387
   53DPPC   C39 2639   4.523   3.208   2.539
   53DPPC   C40 2640   4.400   3.160   2.616
   53DPPC   C41 2641   4.422   3.162   2.767
   53DPPC   C42 2642   4.288   3.137   2.835
   53DPPC   C43 2643   4.313   3.160   2.984
   53DPPC   C44 2644   4.190   3.106   3.057
   53DPPC   C45 2645   4.239   3.128   3.201
   53DPPC   C46 2646   4.133   3.095   3.306
   53DPPC   C47 2647   4.210   3.129   3.433
   53DPPC   C48 2648   4.149   3.075   3.563
   53DPPC   C49 2649   4.252   3.089   3.675
   53DPPC   C50 2650   4.200   3.017   3.800
   54DPPC    C1 2651   6.279   0.238   1.880
   54DPPC    C2 2652   6.214   0.168   1.662
   54DPPC    C3 2653   6.384   0.342   1.684
   54DPPC    N4 2654   6.327   0.219   1.742
   54DPPC    C5 2655   6.420   0.106   1.743
   54DPPC    C6 2656   6.559   0.124   1.804
   54DPPC    O7 2657   6.566   0.139   1.946
   54DPPC    P8 2658   6.696   0.220   1.996
   54DPPC    O9 2659   6.665   0.352   1.936
   54DPPC   O10 2660   6.805   0.129   1.956
   54DPPC   O11 2661   6.660   0.209   2.152
   54DPPC   C12 2662   6.537   0.280   2.171
   54DPPC   C13 2663   6.515   0.317   2.318
   54DPPC   O14 2664   6.591   0.436   2.348
   54DPPC   C15 2665   6.548   0.559   2.308
   54DPPC   O16 2666   6.443   0.573   2.246
   54DPPC   C17 2667   6.648   0.668   2.347
   54DPPC   C18 2668   6.709   0.648   2.485
   54DPPC   C19 2669   6.610   0.643   2.602
   54DPPC   C20 2670   6.660   0.616   2.744
   54DPPC   C21 2671   6.552   0.599   2.851
   54DPPC   C22 2672   6.606   0.574   2.991
   54DPPC   C23 2673   6.491   0.572   3.092
   54DPPC   C24 2674   6.525   0.550   3.239
   54DPPC   C25 2675   6.396   0.524   3.316
   54DPPC   C26 2676   6.300   0.643   3.304
   54DPPC   C27 2677   6.353   0.763   3.383
   54DPPC   C28 2678   6.234   0.851   3.422
   54DPPC   C29 2679   6.269   0.954   3.530
   54DPPC   C30 2680   6.168   0.959   3.645
   54DPPC   C31 2681   6.223   1.036   3.765
   54DPPC   C32 2682   6.549   0.187   2.391
   54DPPC   O33 2683   6.533   0.186   2.533
   54DPPC   C34 2684   6.557   0.064   2.588
   54DPPC   O35 2685   6.632  -0.007   2.522
   54DPPC   C36 2686   6.516   0.022   2.730
   54DPPC   C37 2687   6.533   0.130   2.837
   54DPPC   C38 2688   6.578   0.059   2.965
   54DPPC   C39 2689   6.583   0.169   3.072
   54DPPC   C40 2690   6.644   0.115   3.201
   54DPPC   C41 2691   6.655   0.223   3.308
   54DPPC   C42 2692   6.697   0.157   3.440
   54DPPC   C43 2693   6.706   0.258   3.555
   54DPPC   C44 2694   6.728   0.186   3.688
   54DPPC   C45 2695   6.740   0.281   3.808
   54DPPC   C46 2696   6.770   0.203   3.936
   54DPPC   C47 2697   6.753   0.291   4.060
   54DPPC   C48 2698   6.799   0.233   4.193
   54DPPC   C49 2699   6.948   0.199   4.201
   54DPPC   C50 2700   7.010   0.206   4.341
   55DPPC    C1 2701   0.306   7.117   1.827
   55DPPC    C2 2702   0.418   7.313   1.902
   55DPPC    C3 2703   0.451   7.221   1.677
   55DPPC    N4 2704   0.356   7.248   1.786
   55DPPC    C5 2705   0.242   7.334   1.748
   55DPPC    C6 2706   0.162   7.325   1.618
   55DPPC    O7 2707   0.065   7.429   1.606
   55DPPC    P8 2708  -0.012   7.422   1.465
   55DPPC    O9 2709   0.071   7.332   1.382
   55DPPC   O10 2710  -0.063   7.555   1.424
   55DPPC   O11 2711  -0.134   7.341   1.532
   55DPPC   C12 2712  -0.193   7.424   1.633
   55DPPC   C13 2713  -0.276   7.332   1.723
   55DPPC   O14 2714  -0.359   7.394   1.822
   55DPPC   C15 2715  -0.491   7.362   1.813
   55DPPC   O16 2716  -0.544   7.312   1.714
   55DPPC   C17 2717  -0.584   7.398   1.929
   55DPPC   C18 2718  -0.598   7.296   2.042
   55DPPC   C19 2719  -0.628   7.153   1.997
   55DPPC   C20 2720  -0.609   7.066   2.122
   55DPPC   C21 2721  -0.615   6.917   2.088
   55DPPC   C22 2722  -0.590   6.835   2.215
   55DPPC   C23 2723  -0.703   6.868   2.313
   55DPPC   C24 2724  -0.657   6.827   2.453
   55DPPC   C25 2725  -0.540   6.902   2.518
   55DPPC   C26 2726  -0.512   6.852   2.660
   55DPPC   C27 2727  -0.386   6.909   2.725
   55DPPC   C28 2728  -0.397   6.863   2.871
   55DPPC   C29 2729  -0.272   6.874   2.958
   55DPPC   C30 2730  -0.294   6.822   3.101
   55DPPC   C31 2731  -0.394   6.922   3.159
   55DPPC   C32 2732  -0.166   7.244   1.784
   55DPPC   O33 2733  -0.195   7.150   1.888
   55DPPC   C34 2734  -0.087   7.085   1.939
   55DPPC   O35 2735   0.023   7.084   1.885
   55DPPC   C36 2736  -0.116   6.978   2.045
   55DPPC   C37 2737  -0.169   7.040   2.174
   55DPPC   C38 2738  -0.082   7.148   2.239
   55DPPC   C39 2739  -0.143   7.171   2.378
   55DPPC   C40 2740  -0.290   7.214   2.371
   55DPPC   C41 2741  -0.331   7.226   2.518
   55DPPC   C42 2742  -0.226   7.297   2.603
   55DPPC   C43 2743  -0.262   7.315   2.751
   55DPPC   C44 2744  -0.150   7.392   2.820
   55DPPC   C45 2745  -0.156   7.379   2.972
   55DPPC   C46 2746  -0.139   7.232   3.012
   55DPPC   C47 2747  -0.124   7.217   3.163
   55DPPC   C48 2748  -0.253   7.275   3.222
   55DPPC   C49 2749  -0.256   7.233   3.369
   55DPPC   C50 2750  -0.155   7.308   3.456
   56DPPC    C1 2751   4.260   1.850   2.419
   56DPPC    C2 2752   4.311   1.796   2.642
   56DPPC    C3 2753   4.341   1.635   2.464
   56DPPC    N4 2754   4.355   1.776   2.503
   56DPPC    C5 2755   4.491   1.829   2.484
   56DPPC    C6 2756   4.568   1.796   2.356
   56DPPC    O7 2757   4.682   1.882   2.350
   56DPPC    P8 2758   4.736   1.893   2.199
   56DPPC    O9 2759   4.614   1.903   2.116
   56DPPC   O10 2760   4.842   1.793   2.175
   56DPPC   O11 2761   4.808   2.037   2.205
   56DPPC   C12 2762   4.878   2.053   2.328
   56DPPC   C13 2763   4.968   2.176   2.335
   56DPPC   O14 2764   5.063   2.167   2.442
   56DPPC   C15 2765   5.157   2.263   2.464
   56DPPC   O16 2766   5.172   2.355   2.384
   56DPPC   C17 2767   5.221   2.256   2.603
   56DPPC   C18 2768   5.371   2.232   2.581
   56DPPC   C19 2769   5.440   2.223   2.717
   56DPPC   C20 2770   5.418   2.099   2.803
   56DPPC   C21 2771   5.494   2.119   2.934
   56DPPC   C22 2772   5.484   2.006   3.036
   56DPPC   C23 2773   5.567   2.029   3.163
   56DPPC   C24 2774   5.593   1.902   3.243
   56DPPC   C25 2775   5.692   1.944   3.352
   56DPPC   C26 2776   5.709   1.814   3.431
   56DPPC   C27 2777   5.788   1.832   3.561
   56DPPC   C28 2778   5.704   1.917   3.656
   56DPPC   C29 2779   5.768   1.950   3.790
   56DPPC   C30 2780   5.658   1.978   3.893
   56DPPC   C31 2781   5.567   2.074   3.816
   56DPPC   C32 2782   4.878   2.300   2.323
   56DPPC   O33 2783   4.763   2.286   2.406
   56DPPC   C34 2784   4.662   2.375   2.385
   56DPPC   O35 2785   4.680   2.471   2.310
   56DPPC   C36 2786   4.519   2.337   2.425
   56DPPC   C37 2787   4.527   2.264   2.560
   56DPPC   C38 2788   4.394   2.210   2.611
   56DPPC   C39 2789   4.406   2.212   2.763
   56DPPC   C40 2790   4.447   2.354   2.804
   56DPPC   C41 2791   4.428   2.352   2.956
   56DPPC   C42 2792   4.535   2.264   3.020
   56DPPC   C43 2793   4.506   2.264   3.170
   56DPPC   C44 2794   4.587   2.166   3.255
   56DPPC   C45 2795   4.540   2.161   3.400
   56DPPC   C46 2796   4.544   2.303   3.458
   56DPPC   C47 2797   4.520   2.314   3.609
   56DPPC   C48 2798   4.503   2.458   3.657
   56DPPC   C49 2799   4.496   2.436   3.808
   56DPPC   C50 2800   4.618   2.367   3.869
   57DPPC    C1 2801   5.767   7.001   2.108
   57DPPC    C2 2802   5.576   6.883   2.163
   57DPPC    C3 2803   5.661   6.865   1.933
   57DPPC    N4 2804   5.694   6.877   2.076
   57DPPC    C5 2805   5.787   6.769   2.114
   57DPPC    C6 2806   5.738   6.624   2.102
   57DPPC    O7 2807   5.845   6.529   2.091
   57DPPC    P8 2808   5.786   6.388   2.042
   57DPPC    O9 2809   5.902   6.318   1.983
   57DPPC   O10 2810   5.665   6.416   1.963
   57DPPC   O11 2811   5.743   6.329   2.186
   57DPPC   C12 2812   5.867   6.301   2.252
   57DPPC   C13 2813   5.874   6.350   2.396
   57DPPC   O14 2814   6.001   6.304   2.447
   57DPPC   C15 2815   6.080   6.402   2.498
   57DPPC   O16 2816   6.023   6.511   2.493
   57DPPC   C17 2817   6.221   6.366   2.545
   57DPPC   C18 2818   6.226   6.319   2.690
   57DPPC   C19 2819   6.185   6.436   2.779
   57DPPC   C20 2820   6.164   6.398   2.926
   57DPPC   C21 2821   6.081   6.502   3.001
   57DPPC   C22 2822   6.067   6.455   3.146
   57DPPC   C23 2823   5.991   6.545   3.243
   57DPPC   C24 2824   6.020   6.508   3.389
   57DPPC   C25 2825   5.954   6.371   3.403
   57DPPC   C26 2826   5.971   6.304   3.540
   57DPPC   C27 2827   5.896   6.371   3.655
   57DPPC   C28 2828   5.908   6.291   3.784
   57DPPC   C29 2829   5.796   6.311   3.887
   57DPPC   C30 2830   5.816   6.260   4.030
   57DPPC   C31 2831   5.679   6.245   4.096
   57DPPC   C32 2832   5.756   6.293   2.475
   57DPPC   O33 2833   5.767   6.158   2.522
   57DPPC   C34 2834   5.649   6.096   2.547
   57DPPC   O35 2835   5.548   6.144   2.495
   57DPPC   C36 2836   5.655   5.959   2.614
   57DPPC   C37 2837   5.531   5.964   2.704
   57DPPC   C38 2838   5.545   5.868   2.822
   57DPPC   C39 2839   5.419   5.867   2.908
   57DPPC   C40 2840   5.439   5.789   3.037
   57DPPC   C41 2841   5.306   5.798   3.113
   57DPPC   C42 2842   5.317   5.742   3.255
   57DPPC   C43 2843   5.184   5.727   3.330
   57DPPC   C44 2844   5.203   5.644   3.457
   57DPPC   C45 2845   5.066   5.621   3.520
   57DPPC   C46 2846   5.090   5.539   3.647
   57DPPC   C47 2847   5.124   5.393   3.615
   57DPPC   C48 2848   5.227   5.344   3.717
   57DPPC   C49 2849   5.176   5.323   3.859
   57DPPC   C50 2850   5.290   5.322   3.962
   58DPPC    C1 2851   8.521   6.857   1.443
   58DPPC    C2 2852   8.544   7.070   1.337
   58DPPC    C3 2853   8.339   7.021   1.444
   58DPPC    N4 2854   8.484   7.000   1.451
   58DPPC    C5 2855   8.532   7.053   1.580
   58DPPC    C6 2856   8.470   7.181   1.635
   58DPPC    O7 2857   8.513   7.302   1.570
   58DPPC    P8 2858   8.390   7.405   1.571
   58DPPC    O9 2859   8.272   7.327   1.527
   58DPPC   O10 2860   8.427   7.530   1.502
   58DPPC   O11 2861   8.388   7.420   1.732
   58DPPC   C12 2862   8.474   7.527   1.772
   58DPPC   C13 2863   8.491   7.557   1.921
   58DPPC   O14 2864   8.593   7.657   1.928
   58DPPC   C15 2865   8.548   7.785   1.922
   58DPPC   O16 2866   8.432   7.820   1.900
   58DPPC   C17 2867   8.659   7.889   1.936
   58DPPC   C18 2868   8.623   7.975   2.057
   58DPPC   C19 2869   8.723   8.080   2.106
   58DPPC   C20 2870   8.688   8.139   2.242
   58DPPC   C21 2871   8.690   8.033   2.353
   58DPPC   C22 2872   8.667   8.092   2.492
   58DPPC   C23 2873   8.632   7.976   2.585
   58DPPC   C24 2874   8.648   8.008   2.734
   58DPPC   C25 2875   8.572   7.908   2.820
   58DPPC   C26 2876   8.559   7.955   2.965
   58DPPC   C27 2877   8.493   7.850   3.055
   58DPPC   C28 2878   8.515   7.868   3.205
   58DPPC   C29 2879   8.661   7.835   3.237
   58DPPC   C30 2880   8.683   7.828   3.388
   58DPPC   C31 2881   8.833   7.837   3.415
   58DPPC   C32 2882   8.526   7.422   1.983
   58DPPC   O33 2883   8.496   7.413   2.123
   58DPPC   C34 2884   8.495   7.285   2.166
   58DPPC   O35 2885   8.505   7.195   2.083
   58DPPC   C36 2886   8.498   7.267   2.318
   58DPPC   C37 2887   8.644   7.243   2.360
   58DPPC   C38 2888   8.641   7.235   2.513
   58DPPC   C39 2889   8.779   7.197   2.569
   58DPPC   C40 2890   8.803   7.254   2.709
   58DPPC   C41 2891   8.700   7.205   2.810
   58DPPC   C42 2892   8.774   7.217   2.943
   58DPPC   C43 2893   8.716   7.103   3.026
   58DPPC   C44 2894   8.760   6.966   2.974
   58DPPC   C45 2895   8.695   6.858   3.060
   58DPPC   C46 2896   8.708   6.867   3.212
   58DPPC   C47 2897   8.638   6.756   3.291
   58DPPC   C48 2898   8.694   6.734   3.432
   58DPPC   C49 2899   8.640   6.607   3.498
   58DPPC   C50 2900   8.699   6.586   3.638
   59DPPC    C1 2901   0.972   5.270   1.951
   59DPPC    C2 2902   0.798   5.102   1.964
   59DPPC    C3 2903   0.773   5.302   1.838
   59DPPC    N4 2904   0.869   5.197   1.876
   59DPPC    C5 2905   0.933   5.131   1.762
   59DPPC    C6 2906   0.856   5.022   1.688
   59DPPC    O7 2907   0.716   5.040   1.665
   59DPPC    P8 2908   0.656   4.902   1.608
   59DPPC    O9 2909   0.764   4.803   1.586
   59DPPC   O10 2910   0.547   4.927   1.510
   59DPPC   O11 2911   0.579   4.849   1.739
   59DPPC   C12 2912   0.460   4.927   1.750
   59DPPC   C13 2913   0.398   4.945   1.889
   59DPPC   O14 2914   0.462   5.021   1.992
   59DPPC   C15 2915   0.382   5.122   2.034
   59DPPC   O16 2916   0.341   5.213   1.963
   59DPPC   C17 2917   0.423   5.161   2.177
   59DPPC   C18 2918   0.316   5.185   2.283
   59DPPC   C19 2919   0.243   5.053   2.309
   59DPPC   C20 2920   0.172   5.036   2.444
   59DPPC   C21 2921   0.286   5.053   2.544
   59DPPC   C22 2922   0.243   5.044   2.691
   59DPPC   C23 2923   0.363   5.101   2.766
   59DPPC   C24 2924   0.496   5.026   2.757
   59DPPC   C25 2925   0.607   5.122   2.801
   59DPPC   C26 2926   0.743   5.052   2.798
   59DPPC   C27 2927   0.735   4.923   2.881
   59DPPC   C28 2928   0.865   4.846   2.907
   59DPPC   C29 2929   0.917   4.804   2.770
   59DPPC   C30 2930   1.051   4.731   2.773
   59DPPC   C31 2931   1.078   4.659   2.640
   59DPPC   C32 2932   0.391   4.798   1.931
   59DPPC   O33 2933   0.283   4.772   2.021
   59DPPC   C34 2934   0.252   4.640   2.034
   59DPPC   O35 2935   0.296   4.563   1.948
   59DPPC   C36 2936   0.145   4.597   2.134
   59DPPC   C37 2937   0.085   4.722   2.198
   59DPPC   C38 2938  -0.053   4.688   2.255
   59DPPC   C39 2939  -0.127   4.817   2.290
   59DPPC   C40 2940  -0.253   4.803   2.376
   59DPPC   C41 2941  -0.310   4.942   2.401
   59DPPC   C42 2942  -0.431   4.939   2.494
   59DPPC   C43 2943  -0.384   4.881   2.627
   59DPPC   C44 2944  -0.498   4.863   2.727
   59DPPC   C45 2945  -0.443   4.773   2.838
   59DPPC   C46 2946  -0.334   4.843   2.919
   59DPPC   C47 2947  -0.252   4.742   3.001
   59DPPC   C48 2948  -0.353   4.709   3.111
   59DPPC   C49 2949  -0.401   4.829   3.194
   59DPPC   C50 2950  -0.490   4.768   3.302
   60DPPC    C1 2951   6.926   4.769   1.358
   60DPPC    C2 2952   6.716   4.676   1.445
   60DPPC    C3 2953   6.844   4.814   1.573
   60DPPC    N4 2954   6.803   4.794   1.433
   60DPPC    C5 2955   6.748   4.913   1.366
   60DPPC    C6 2956   6.625   4.977   1.431
   60DPPC    O7 2957   6.606   5.113   1.390
   60DPPC    P8 2958   6.550   5.205   1.510
   60DPPC    O9 2959   6.464   5.110   1.583
   60DPPC   O10 2960   6.510   5.326   1.435
   60DPPC   O11 2961   6.690   5.233   1.585
   60DPPC   C12 2962   6.704   5.169   1.712
   60DPPC   C13 2963   6.825   5.204   1.800
   60DPPC   O14 2964   6.837   5.113   1.910
   60DPPC   C15 2965   6.929   5.013   1.897
   60DPPC   O16 2966   6.993   5.001   1.793
   60DPPC   C17 2967   6.939   4.927   2.022
   60DPPC   C18 2968   6.852   4.803   2.001
   60DPPC   C19 2969   6.859   4.705   2.118
   60DPPC   C20 2970   6.753   4.597   2.097
   60DPPC   C21 2971   6.733   4.498   2.212
   60DPPC   C22 2972   6.672   4.573   2.330
   60DPPC   C23 2973   6.667   4.471   2.444
   60DPPC   C24 2974   6.626   4.536   2.576
   60DPPC   C25 2975   6.578   4.432   2.678
   60DPPC   C26 2976   6.565   4.487   2.821
   60DPPC   C27 2977   6.495   4.388   2.915
   60DPPC   C28 2978   6.564   4.252   2.898
   60DPPC   C29 2979   6.517   4.158   3.009
   60DPPC   C30 2980   6.546   4.009   2.991
   60DPPC   C31 2981   6.542   3.934   3.125
   60DPPC   C32 2982   6.815   5.352   1.841
   60DPPC   O33 2983   6.683   5.385   1.886
   60DPPC   C34 2984   6.670   5.516   1.919
   60DPPC   O35 2985   6.750   5.601   1.880
   60DPPC   C36 2986   6.548   5.555   2.003
   60DPPC   C37 2987   6.557   5.538   2.155
   60DPPC   C38 2988   6.424   5.592   2.208
   60DPPC   C39 2989   6.449   5.676   2.334
   60DPPC   C40 2990   6.313   5.725   2.382
   60DPPC   C41 2991   6.316   5.816   2.505
   60DPPC   C42 2992   6.171   5.833   2.548
   60DPPC   C43 2993   6.161   5.925   2.670
   60DPPC   C44 2994   6.016   5.932   2.719
   60DPPC   C45 2995   6.023   6.029   2.838
   60DPPC   C46 2996   6.114   5.979   2.950
   60DPPC   C47 2997   6.115   6.056   3.083
   60DPPC   C48 2998   6.197   5.977   3.185
   60DPPC   C49 2999   6.198   6.082   3.295
   60DPPC   C50 3000   6.259   6.029   3.425
   61DPPC    C1 3001   4.048   0.256   2.277
   61DPPC    C2 3002   4.081   0.149   2.085
   61DPPC    C3 3003   3.853   0.179   2.142
   61DPPC    N4 3004   3.985   0.244   2.145
   61DPPC    C5 3005   3.981   0.371   2.072
   61DPPC    C6 3006   3.890   0.483   2.122
   61DPPC    O7 3007   3.952   0.580   2.208
   61DPPC    P8 3008   3.840   0.691   2.236
   61DPPC    O9 3009   3.714   0.636   2.290
   61DPPC   O10 3010   3.855   0.802   2.140
   61DPPC   O11 3011   3.919   0.751   2.363
   61DPPC   C12 3012   3.939   0.642   2.454
   61DPPC   C13 3013   3.977   0.688   2.594
   61DPPC   O14 3014   4.015   0.579   2.680
   61DPPC   C15 3015   4.148   0.569   2.704
   61DPPC   O16 3016   4.219   0.609   2.612
   61DPPC   C17 3017   4.194   0.460   2.801
   61DPPC   C18 3018   4.110   0.332   2.812
   61DPPC   C19 3019   4.179   0.228   2.900
   61DPPC   C20 3020   4.315   0.171   2.859
   61DPPC   C21 3021   4.324   0.034   2.926
   61DPPC   C22 3022   4.450  -0.043   2.885
   61DPPC   C23 3023   4.577   0.037   2.914
   61DPPC   C24 3024   4.703  -0.036   2.866
   61DPPC   C25 3025   4.825   0.054   2.845
   61DPPC   C26 3026   4.964  -0.001   2.877
   61DPPC   C27 3027   5.070   0.033   2.772
   61DPPC   C28 3028   5.201  -0.041   2.797
   61DPPC   C29 3029   5.187  -0.191   2.824
   61DPPC   C30 3030   5.102  -0.274   2.728
   61DPPC   C31 3031   5.113  -0.419   2.777
   61DPPC   C32 3032   3.863   0.782   2.634
   61DPPC   O33 3033   3.893   0.866   2.746
   61DPPC   C34 3034   3.795   0.949   2.791
   61DPPC   O35 3035   3.695   0.964   2.720
   61DPPC   C36 3036   3.830   1.046   2.904
   61DPPC   C37 3037   3.794   0.987   3.040
   61DPPC   C38 3038   3.821   1.094   3.145
   61DPPC   C39 3039   3.793   1.043   3.287
   61DPPC   C40 3040   3.648   0.996   3.298
   61DPPC   C41 3041   3.642   0.871   3.387
   61DPPC   C42 3042   3.494   0.832   3.392
   61DPPC   C43 3043   3.491   0.718   3.494
   61DPPC   C44 3044   3.358   0.642   3.500
   61DPPC   C45 3045   3.377   0.535   3.607
   61DPPC   C46 3046   3.415   0.589   3.745
   61DPPC   C47 3047   3.316   0.685   3.812
   61DPPC   C48 3048   3.373   0.704   3.953
   61DPPC   C49 3049   3.265   0.772   4.037
   61DPPC   C50 3050   3.295   0.764   4.186
   62DPPC    C1 3051   7.848   4.382   1.165
   62DPPC    C2 3052   7.661   4.228   1.229
   62DPPC    C3 3053   7.787   4.347   1.386
   62DPPC    N4 3054   7.732   4.355   1.250
   62DPPC    C5 3055   7.650   4.475   1.226
   62DPPC    C6 3056   7.504   4.476   1.271
   62DPPC    O7 3057   7.498   4.498   1.412
   62DPPC    P8 3058   7.351   4.481   1.475
   62DPPC    O9 3059   7.362   4.375   1.578
   62DPPC   O10 3060   7.265   4.481   1.354
   62DPPC   O11 3061   7.345   4.630   1.536
   62DPPC   C12 3062   7.437   4.639   1.644
   62DPPC   C13 3063   7.397   4.755   1.737
   62DPPC   O14 3064   7.482   4.778   1.850
   62DPPC   C15 3065   7.474   4.903   1.903
   62DPPC   O16 3066   7.461   4.999   1.827
   62DPPC   C17 3067   7.528   4.914   2.046
   62DPPC   C18 3068   7.431   4.952   2.158
   62DPPC   C19 3069   7.314   4.853   2.164
   62DPPC   C20 3070   7.262   4.878   2.306
   62DPPC   C21 3071   7.116   4.838   2.330
   62DPPC   C22 3072   7.075   4.876   2.473
   62DPPC   C23 3073   6.938   4.824   2.515
   62DPPC   C24 3074   6.895   4.866   2.655
   62DPPC   C25 3075   6.751   4.838   2.696
   62DPPC   C26 3076   6.645   4.889   2.598
   62DPPC   C27 3077   6.501   4.862   2.644
   62DPPC   C28 3078   6.383   4.877   2.547
   62DPPC   C29 3079   6.250   4.854   2.618
   62DPPC   C30 3080   6.263   4.722   2.696
   62DPPC   C31 3081   6.126   4.690   2.756
   62DPPC   C32 3082   7.247   4.746   1.765
   62DPPC   O33 3083   7.225   4.620   1.830
   62DPPC   C34 3084   7.097   4.575   1.836
   62DPPC   O35 3085   7.016   4.610   1.750
   62DPPC   C36 3086   7.082   4.453   1.927
   62DPPC   C37 3087   7.177   4.456   2.047
   62DPPC   C38 3088   7.146   4.348   2.151
   62DPPC   C39 3089   7.232   4.367   2.276
   62DPPC   C40 3090   7.178   4.308   2.407
   62DPPC   C41 3091   7.038   4.362   2.436
   62DPPC   C42 3092   6.986   4.324   2.575
   62DPPC   C43 3093   7.086   4.362   2.685
   62DPPC   C44 3094   7.025   4.336   2.822
   62DPPC   C45 3095   6.989   4.187   2.819
   62DPPC   C46 3096   6.953   4.139   2.960
   62DPPC   C47 3097   6.925   3.991   2.987
   62DPPC   C48 3098   6.886   3.976   3.134
   62DPPC   C49 3099   6.970   4.050   3.238
   62DPPC   C50 3100   6.898   4.053   3.373
   63DPPC    C1 3101   7.864   8.423   1.084
   63DPPC    C2 3102   7.839   8.200   1.068
   63DPPC    C3 3103   8.033   8.274   1.177
   63DPPC    N4 3104   7.889   8.301   1.163
   63DPPC    C5 3105   7.805   8.289   1.283
   63DPPC    C6 3106   7.865   8.341   1.414
   63DPPC    O7 3107   7.875   8.481   1.442
   63DPPC    P8 3108   7.944   8.476   1.588
   63DPPC    O9 3109   7.979   8.617   1.611
   63DPPC   O10 3110   8.048   8.371   1.576
   63DPPC   O11 3111   7.821   8.419   1.675
   63DPPC   C12 3112   7.759   8.530   1.739
   63DPPC   C13 3113   7.635   8.496   1.822
   63DPPC   O14 3114   7.563   8.611   1.867
   63DPPC   C15 3115   7.451   8.639   1.795
   63DPPC   O16 3116   7.424   8.585   1.688
   63DPPC   C17 3117   7.362   8.749   1.853
   63DPPC   C18 3118   7.433   8.823   1.967
   63DPPC   C19 3119   7.329   8.895   2.052
   63DPPC   C20 3120   7.384   8.968   2.175
   63DPPC   C21 3121   7.289   9.010   2.287
   63DPPC   C22 3122   7.352   8.986   2.425
   63DPPC   C23 3123   7.255   9.050   2.524
   63DPPC   C24 3124   7.246   9.000   2.668
   63DPPC   C25 3125   7.140   9.084   2.740
   63DPPC   C26 3126   7.092   9.029   2.874
   63DPPC   C27 3127   7.199   9.034   2.983
   63DPPC   C28 3128   7.153   8.995   3.124
   63DPPC   C29 3129   7.114   8.849   3.146
   63DPPC   C30 3130   7.077   8.823   3.293
   63DPPC   C31 3131   7.192   8.737   3.346
   63DPPC   C32 3132   7.688   8.419   1.943
   63DPPC   O33 3133   7.804   8.477   2.004
   63DPPC   C34 3134   7.853   8.407   2.110
   63DPPC   O35 3135   7.784   8.323   2.168
   63DPPC   C36 3136   7.976   8.476   2.169
   63DPPC   C37 3137   7.958   8.526   2.313
   63DPPC   C38 3138   7.888   8.662   2.318
   63DPPC   C39 3139   7.864   8.701   2.464
   63DPPC   C40 3140   7.795   8.837   2.479
   63DPPC   C41 3141   7.780   8.879   2.625
   63DPPC   C42 3142   7.710   9.015   2.626
   63DPPC   C43 3143   7.672   9.063   2.766
   63DPPC   C44 3144   7.600   9.197   2.777
   63DPPC   C45 3145   7.622   9.269   2.910
   63DPPC   C46 3146   7.550   9.185   3.015
   63DPPC   C47 3147   7.558   9.254   3.152
   63DPPC   C48 3148   7.476   9.188   3.263
   63DPPC   C49 3149   7.487   9.267   3.393
   63DPPC   C50 3150   7.407   9.204   3.507
   64DPPC    C1 3151   3.473  -0.016   2.019
   64DPPC    C2 3152   3.394  -0.083   1.806
   64DPPC    C3 3153   3.270   0.087   1.927
   64DPPC    N4 3154   3.403   0.031   1.899
   64DPPC    C5 3155   3.498   0.119   1.829
   64DPPC    C6 3156   3.565   0.238   1.897
   64DPPC    O7 3157   3.473   0.333   1.950
   64DPPC    P8 3158   3.538   0.452   2.036
   64DPPC    O9 3159   3.429   0.540   2.082
   64DPPC   O10 3160   3.650   0.498   1.950
   64DPPC   O11 3161   3.594   0.367   2.160
   64DPPC   C12 3162   3.476   0.353   2.240
   64DPPC   C13 3163   3.499   0.302   2.382
   64DPPC   O14 3164   3.370   0.285   2.442
   64DPPC   C15 3165   3.288   0.182   2.407
   64DPPC   O16 3166   3.320   0.107   2.315
   64DPPC   C17 3167   3.154   0.175   2.479
   64DPPC   C18 3168   3.178   0.157   2.629
   64DPPC   C19 3169   3.216   0.291   2.692
   64DPPC   C20 3170   3.224   0.277   2.844
   64DPPC   C21 3171   3.095   0.221   2.905
   64DPPC   C22 3172   3.109   0.208   3.057
   64DPPC   C23 3173   3.237   0.138   3.104
   64DPPC   C24 3174   3.287   0.203   3.233
   64DPPC   C25 3175   3.413   0.146   3.297
   64DPPC   C26 3176   3.372   0.027   3.384
   64DPPC   C27 3177   3.499  -0.053   3.415
   64DPPC   C28 3178   3.450  -0.179   3.487
   64DPPC   C29 3179   3.567  -0.278   3.488
   64DPPC   C30 3180   3.596  -0.331   3.347
   64DPPC   C31 3181   3.678  -0.459   3.363
   64DPPC   C32 3182   3.589   0.409   2.445
   64DPPC   O33 3183   3.629   0.367   2.575
   64DPPC   C34 3184   3.722   0.267   2.575
   64DPPC   O35 3185   3.790   0.244   2.476
   64DPPC   C36 3186   3.756   0.203   2.710
   64DPPC   C37 3187   3.645   0.114   2.767
   64DPPC   C38 3188   3.655   0.129   2.919
   64DPPC   C39 3189   3.788   0.086   2.980
   64DPPC   C40 3190   3.793  -0.067   2.967
   64DPPC   C41 3191   3.935  -0.114   2.997
   64DPPC   C42 3192   3.976  -0.059   3.133
   64DPPC   C43 3193   4.095  -0.134   3.194
   64DPPC   C44 3194   4.045  -0.278   3.213
   64DPPC   C45 3195   4.156  -0.368   3.268
   64DPPC   C46 3196   4.097  -0.494   3.333
   64DPPC   C47 3197   4.212  -0.589   3.368
   64DPPC   C48 3198   4.150  -0.721   3.415
   64DPPC   C49 3199   4.264  -0.821   3.435
   64DPPC   C50 3200   4.335  -0.846   3.301
   65DPPC    C1 3201   2.436   5.044   5.736
   65DPPC    C2 3202   2.615   5.015   5.584
   65DPPC    C3 3203   2.600   4.876   5.780
   65DPPC    N4 3204   2.523   4.943   5.674
   65DPPC    C5 3205   2.441   4.836   5.616
   65DPPC    C6 3206   2.493   4.716   5.538
   65DPPC    O7 3207   2.400   4.607   5.528
   65DPPC    P8 3208   2.480   4.474   5.486
   65DPPC    O9 3209   2.364   4.383   5.480
   65DPPC   O10 3210   2.594   4.462   5.580
   65DPPC   O11 3211   2.540   4.519   5.343
   65DPPC   C12 3212   2.463   4.471   5.233
   65DPPC   C13 3213   2.523   4.518   5.101
   65DPPC   O14 3214   2.433   4.514   4.989
   65DPPC   C15 3215   2.339   4.610   4.966
   65DPPC   O16 3216   2.329   4.701   5.048
   65DPPC   C17 3217   2.285   4.622   4.824
   65DPPC   C18 3218   2.323   4.752   4.752
   65DPPC   C19 3219   2.474   4.775   4.739
   65DPPC   C20 3220   2.496   4.896   4.647
   65DPPC   C21 3221   2.643   4.907   4.605
   65DPPC   C22 3222   2.663   5.033   4.521
   65DPPC   C23 3223   2.552   5.026   4.415
   65DPPC   C24 3224   2.592   5.140   4.321
   65DPPC   C25 3225   2.729   5.107   4.261
   65DPPC   C26 3226   2.793   5.222   4.184
   65DPPC   C27 3227   2.937   5.181   4.149
   65DPPC   C28 3228   3.006   5.286   4.062
   65DPPC   C29 3229   3.149   5.236   4.039
   65DPPC   C30 3230   3.233   5.334   3.958
   65DPPC   C31 3231   3.372   5.271   3.947
   65DPPC   C32 3232   2.652   4.436   5.095
   65DPPC   O33 3233   2.649   4.294   5.108
   65DPPC   C34 3234   2.775   4.242   5.100
   65DPPC   O35 3235   2.876   4.310   5.114
   65DPPC   C36 3236   2.770   4.090   5.119
   65DPPC   C37 3237   2.707   3.993   5.019
   65DPPC   C38 3238   2.777   4.017   4.885
   65DPPC   C39 3239   2.722   3.930   4.772
   65DPPC   C40 3240   2.816   3.933   4.651
   65DPPC   C41 3241   2.777   3.865   4.519
   65DPPC   C42 3242   2.873   3.876   4.400
   65DPPC   C43 3243   2.861   4.015   4.336
   65DPPC   C44 3244   2.921   4.001   4.196
   65DPPC   C45 3245   2.877   4.122   4.114
   65DPPC   C46 3246   2.952   4.108   3.981
   65DPPC   C47 3247   2.876   4.038   3.868
   65DPPC   C48 3248   2.959   4.019   3.742
   65DPPC   C49 3249   2.880   3.933   3.644
   65DPPC   C50 3250   2.753   4.011   3.607
   66DPPC    C1 3251   8.161   1.271   1.515
   66DPPC    C2 3252   8.126   1.503   1.521
   66DPPC    C3 3253   8.215   1.401   1.710
   66DPPC    N4 3254   8.219   1.397   1.563
   66DPPC    C5 3255   8.342   1.428   1.489
   66DPPC    C6 3256   8.452   1.322   1.494
   66DPPC    O7 3257   8.566   1.375   1.426
   66DPPC    P8 3258   8.693   1.277   1.410
   66DPPC    O9 3259   8.817   1.329   1.349
   66DPPC   O10 3260   8.637   1.150   1.357
   66DPPC   O11 3261   8.713   1.258   1.568
   66DPPC   C12 3262   8.750   1.372   1.646
   66DPPC   C13 3263   8.705   1.346   1.790
   66DPPC   O14 3264   8.692   1.463   1.873
   66DPPC   C15 3265   8.576   1.533   1.855
   66DPPC   O16 3266   8.513   1.524   1.750
   66DPPC   C17 3267   8.532   1.629   1.966
   66DPPC   C18 3268   8.447   1.561   2.074
   66DPPC   C19 3269   8.396   1.641   2.193
   66DPPC   C20 3270   8.295   1.750   2.157
   66DPPC   C21 3271   8.197   1.781   2.270
   66DPPC   C22 3272   8.107   1.901   2.239
   66DPPC   C23 3273   7.987   1.897   2.335
   66DPPC   C24 3274   7.914   2.030   2.318
   66DPPC   C25 3275   7.785   2.044   2.398
   66DPPC   C26 3276   7.803   2.023   2.548
   66DPPC   C27 3277   7.686   2.042   2.644
   66DPPC   C28 3278   7.724   1.996   2.784
   66DPPC   C29 3279   7.603   2.015   2.877
   66DPPC   C30 3280   7.647   2.006   3.023
   66DPPC   C31 3281   7.536   2.029   3.126
   66DPPC   C32 3282   8.793   1.229   1.835
   66DPPC   O33 3283   8.767   1.175   1.964
   66DPPC   C34 3284   8.648   1.117   1.995
   66DPPC   O35 3285   8.547   1.142   1.930
   66DPPC   C36 3286   8.646   1.032   2.123
   66DPPC   C37 3287   8.680   1.112   2.249
   66DPPC   C38 3288   8.720   1.015   2.360
   66DPPC   C39 3289   8.746   1.079   2.496
   66DPPC   C40 3290   8.766   0.986   2.616
   66DPPC   C41 3291   8.893   0.900   2.608
   66DPPC   C42 3292   8.916   0.830   2.742
   66DPPC   C43 3293   8.933   0.917   2.867
   66DPPC   C44 3294   8.969   0.826   2.985
   66DPPC   C45 3295   8.958   0.910   3.112
   66DPPC   C46 3296   8.934   0.823   3.236
   66DPPC   C47 3297   9.055   0.730   3.247
   66DPPC   C48 3298   9.043   0.648   3.376
   66DPPC   C49 3299   9.154   0.547   3.406
   66DPPC   C50 3300   9.138   0.463   3.533
   67DPPC    C1 3301   4.921   2.950   6.056
   67DPPC    C2 3302   4.726   2.837   6.061
   67DPPC    C3 3303   4.739   3.009   5.906
   67DPPC    N4 3304   4.818   2.899   5.965
   67DPPC    C5 3305   4.874   2.800   5.872
   67DPPC    C6 3306   4.958   2.686   5.932
   67DPPC    O7 3307   5.049   2.624   5.842
   67DPPC    P8 3308   5.113   2.499   5.921
   67DPPC    O9 3309   5.060   2.476   6.058
   67DPPC   O10 3310   5.258   2.500   5.890
   67DPPC   O11 3311   5.045   2.382   5.834
   67DPPC   C12 3312   5.084   2.400   5.698
   67DPPC   C13 3313   5.030   2.292   5.604
   67DPPC   O14 3314   5.102   2.281   5.481
   67DPPC   C15 3315   5.209   2.197   5.482
   67DPPC   O16 3316   5.244   2.143   5.587
   67DPPC   C17 3317   5.293   2.181   5.355
   67DPPC   C18 3318   5.292   2.032   5.320
   67DPPC   C19 3319   5.362   2.029   5.184
   67DPPC   C20 3320   5.493   2.104   5.206
   67DPPC   C21 3321   5.577   2.104   5.079
   67DPPC   C22 3322   5.722   2.150   5.093
   67DPPC   C23 3323   5.801   2.141   4.962
   67DPPC   C24 3324   5.735   2.218   4.847
   67DPPC   C25 3325   5.822   2.221   4.722
   67DPPC   C26 3326   5.753   2.300   4.610
   67DPPC   C27 3327   5.831   2.279   4.480
   67DPPC   C28 3328   5.748   2.316   4.356
   67DPPC   C29 3329   5.814   2.286   4.222
   67DPPC   C30 3330   5.748   2.362   4.107
   67DPPC   C31 3331   5.824   2.324   3.980
   67DPPC   C32 3332   4.880   2.312   5.584
   67DPPC   O33 3333   4.832   2.427   5.514
   67DPPC   C34 3334   4.697   2.440   5.519
   67DPPC   O35 3335   4.634   2.413   5.621
   67DPPC   C36 3336   4.641   2.505   5.393
   67DPPC   C37 3337   4.643   2.658   5.404
   67DPPC   C38 3338   4.576   2.707   5.275
   67DPPC   C39 3339   4.619   2.661   5.136
   67DPPC   C40 3340   4.543   2.729   5.021
   67DPPC   C41 3341   4.604   2.693   4.886
   67DPPC   C42 3342   4.563   2.790   4.775
   67DPPC   C43 3343   4.597   2.935   4.808
   67DPPC   C44 3344   4.539   3.012   4.688
   67DPPC   C45 3345   4.594   2.958   4.556
   67DPPC   C46 3346   4.553   3.042   4.434
   67DPPC   C47 3347   4.618   2.993   4.304
   67DPPC   C48 3348   4.585   3.079   4.182
   67DPPC   C49 3349   4.644   2.999   4.066
   67DPPC   C50 3350   4.667   3.093   3.948
   68DPPC    C1 3351   0.726   3.966   1.172
   68DPPC    C2 3352   0.923   3.868   1.078
   68DPPC    C3 3353   0.965   4.026   1.224
   68DPPC    N4 3354   0.863   3.922   1.201
   68DPPC    C5 3355   0.866   3.824   1.310
   68DPPC    C6 3356   0.805   3.686   1.280
   68DPPC    O7 3357   0.823   3.589   1.383
   68DPPC    P8 3358   0.755   3.446   1.355
   68DPPC    O9 3359   0.849   3.334   1.377
   68DPPC   O10 3360   0.683   3.452   1.225
   68DPPC   O11 3361   0.666   3.473   1.486
   68DPPC   C12 3362   0.754   3.453   1.597
   68DPPC   C13 3363   0.719   3.549   1.711
   68DPPC   O14 3364   0.793   3.509   1.827
   68DPPC   C15 3365   0.903   3.578   1.868
   68DPPC   O16 3366   0.958   3.661   1.796
   68DPPC   C17 3367   0.945   3.542   2.011
   68DPPC   C18 3368   0.865   3.605   2.125
   68DPPC   C19 3369   0.847   3.752   2.089
   68DPPC   C20 3370   0.754   3.812   2.195
   68DPPC   C21 3371   0.820   3.792   2.331
   68DPPC   C22 3372   0.718   3.864   2.419
   68DPPC   C23 3373   0.748   3.858   2.569
   68DPPC   C24 3374   0.639   3.937   2.641
   68DPPC   C25 3375   0.630   4.087   2.610
   68DPPC   C26 3376   0.503   4.150   2.667
   68DPPC   C27 3377   0.500   4.121   2.818
   68DPPC   C28 3378   0.374   4.165   2.893
   68DPPC   C29 3379   0.369   4.144   3.044
   68DPPC   C30 3380   0.368   3.995   3.077
   68DPPC   C31 3381   0.350   3.965   3.226
   68DPPC   C32 3382   0.568   3.535   1.735
   68DPPC   O33 3383   0.512   3.641   1.813
   68DPPC   C34 3384   0.402   3.601   1.882
   68DPPC   O35 3385   0.334   3.510   1.837
   68DPPC   C36 3386   0.331   3.709   1.965
   68DPPC   C37 3387   0.330   3.676   2.115
   68DPPC   C38 3388   0.303   3.787   2.216
   68DPPC   C39 3389   0.155   3.826   2.217
   68DPPC   C40 3390   0.057   3.735   2.291
   68DPPC   C41 3391  -0.086   3.783   2.266
   68DPPC   C42 3392  -0.183   3.685   2.332
   68DPPC   C43 3393  -0.154   3.694   2.482
   68DPPC   C44 3394  -0.257   3.593   2.534
   68DPPC   C45 3395  -0.392   3.661   2.551
   68DPPC   C46 3396  -0.386   3.782   2.645
   68DPPC   C47 3397  -0.527   3.841   2.639
   68DPPC   C48 3398  -0.559   3.967   2.720
   68DPPC   C49 3399  -0.703   4.015   2.699
   68DPPC   C50 3400  -0.789   3.906   2.762
   69DPPC    C1 3401   5.532   2.537   6.419
   69DPPC    C2 3402   5.595   2.542   6.192
   69DPPC    C3 3403   5.538   2.333   6.297
   69DPPC    N4 3404   5.505   2.476   6.288
   69DPPC    C5 3405   5.366   2.509   6.253
   69DPPC    C6 3406   5.311   2.644   6.300
   69DPPC    O7 3407   5.360   2.764   6.238
   69DPPC    P8 3408   5.269   2.896   6.223
   69DPPC    O9 3409   5.354   3.003   6.281
   69DPPC   O10 3410   5.138   2.855   6.277
   69DPPC   O11 3411   5.276   2.877   6.064
   69DPPC   C12 3412   5.403   2.905   6.005
   69DPPC   C13 3413   5.383   2.872   5.857
   69DPPC   O14 3414   5.493   2.916   5.776
   69DPPC   C15 3415   5.521   3.041   5.729
   69DPPC   O16 3416   5.478   3.137   5.792
   69DPPC   C17 3417   5.639   3.056   5.634
   69DPPC   C18 3418   5.571   3.041   5.497
   69DPPC   C19 3419   5.678   3.045   5.387
   69DPPC   C20 3420   5.633   2.996   5.249
   69DPPC   C21 3421   5.749   3.011   5.150
   69DPPC   C22 3422   5.708   2.993   5.004
   69DPPC   C23 3423   5.830   3.041   4.926
   69DPPC   C24 3424   5.788   3.093   4.788
   69DPPC   C25 3425   5.917   3.154   4.735
   69DPPC   C26 3426   5.913   3.224   4.599
   69DPPC   C27 3427   5.868   3.128   4.489
   69DPPC   C28 3428   5.829   3.195   4.357
   69DPPC   C29 3429   5.794   3.085   4.258
   69DPPC   C30 3430   5.775   3.148   4.120
   69DPPC   C31 3431   5.740   3.045   4.012
   69DPPC   C32 3432   5.247   2.928   5.818
   69DPPC   O33 3433   5.216   2.887   5.684
   69DPPC   C34 3434   5.106   2.938   5.622
   69DPPC   O35 3435   5.028   3.014   5.678
   69DPPC   C36 3436   5.107   2.926   5.470
   69DPPC   C37 3437   5.047   2.792   5.427
   69DPPC   C38 3438   5.101   2.748   5.291
   69DPPC   C39 3439   5.044   2.613   5.246
   69DPPC   C40 3440   5.057   2.594   5.094
   69DPPC   C41 3441   5.069   2.446   5.058
   69DPPC   C42 3442   5.124   2.419   4.918
   69DPPC   C43 3443   5.177   2.277   4.895
   69DPPC   C44 3444   5.241   2.256   4.758
   69DPPC   C45 3445   5.300   2.115   4.762
   69DPPC   C46 3446   5.398   2.088   4.648
   69DPPC   C47 3447   5.327   2.116   4.515
   69DPPC   C48 3448   5.426   2.080   4.404
   69DPPC   C49 3449   5.362   2.103   4.267
   69DPPC   C50 3450   5.334   2.253   4.261
   70DPPC    C1 3451   2.744   0.025   5.326
   70DPPC    C2 3452   2.839  -0.086   5.132
   70DPPC    C3 3453   2.969   0.014   5.315
   70DPPC    N4 3454   2.851  -0.064   5.277
   70DPPC    C5 3455   2.829  -0.178   5.368
   70DPPC    C6 3456   2.937  -0.287   5.374
   70DPPC    O7 3457   2.983  -0.341   5.250
   70DPPC    P8 3458   3.038  -0.489   5.279
   70DPPC    O9 3459   2.923  -0.545   5.353
   70DPPC   O10 3460   3.162  -0.447   5.348
   70DPPC   O11 3461   3.043  -0.540   5.126
   70DPPC   C12 3462   2.914  -0.534   5.066
   70DPPC   C13 3463   2.933  -0.559   4.916
   70DPPC   O14 3464   2.954  -0.694   4.875
   70DPPC   C15 3465   2.861  -0.793   4.887
   70DPPC   O16 3466   2.748  -0.766   4.925
   70DPPC   C17 3467   2.897  -0.932   4.835
   70DPPC   C18 3468   2.922  -0.912   4.685
   70DPPC   C19 3469   2.924  -1.042   4.604
   70DPPC   C20 3470   2.980  -1.003   4.467
   70DPPC   C21 3471   3.122  -0.947   4.483
   70DPPC   C22 3472   3.169  -0.903   4.344
   70DPPC   C23 3473   3.320  -0.894   4.318
   70DPPC   C24 3474   3.355  -0.821   4.188
   70DPPC   C25 3475   3.498  -0.765   4.188
   70DPPC   C26 3476   3.511  -0.698   4.051
   70DPPC   C27 3477   3.658  -0.664   4.029
   70DPPC   C28 3478   3.691  -0.585   3.901
   70DPPC   C29 3479   3.839  -0.615   3.877
   70DPPC   C30 3480   3.924  -0.567   3.995
   70DPPC   C31 3481   4.071  -0.595   3.963
   70DPPC   C32 3482   3.045  -0.467   4.866
   70DPPC   O33 3483   3.001  -0.331   4.860
   70DPPC   C34 3484   3.096  -0.243   4.820
   70DPPC   O35 3485   3.208  -0.284   4.790
   70DPPC   C36 3486   3.051  -0.100   4.790
   70DPPC   C37 3487   3.122  -0.037   4.670
   70DPPC   C38 3488   3.049   0.091   4.628
   70DPPC   C39 3489   3.093   0.133   4.487
   70DPPC   C40 3490   3.016   0.036   4.396
   70DPPC   C41 3491   3.059   0.039   4.249
   70DPPC   C42 3492   3.009  -0.087   4.177
   70DPPC   C43 3493   2.857  -0.097   4.186
   70DPPC   C44 3494   2.799   0.017   4.103
   70DPPC   C45 3495   2.744  -0.026   3.967
   70DPPC   C46 3496   2.592  -0.045   3.956
   70DPPC   C47 3497   2.549  -0.107   3.823
   70DPPC   C48 3498   2.400  -0.138   3.805
   70DPPC   C49 3499   2.370  -0.225   3.683
   70DPPC   C50 3500   2.219  -0.242   3.666
   71DPPC    C1 3501   4.036   3.666   5.582
   71DPPC    C2 3502   4.071   3.755   5.807
   71DPPC    C3 3503   4.087   3.521   5.746
   71DPPC    N4 3504   4.116   3.659   5.705
   71DPPC    C5 3505   4.259   3.690   5.688
   71DPPC    C6 3506   4.346   3.697   5.813
   71DPPC    O7 3507   4.361   3.570   5.876
   71DPPC    P8 3508   4.461   3.571   6.002
   71DPPC    O9 3509   4.442   3.452   6.088
   71DPPC   O10 3510   4.459   3.705   6.065
   71DPPC   O11 3511   4.591   3.568   5.907
   71DPPC   C12 3512   4.621   3.435   5.863
   71DPPC   C13 3513   4.697   3.435   5.730
   71DPPC   O14 3514   4.838   3.459   5.730
   71DPPC   C15 3515   4.908   3.347   5.762
   71DPPC   O16 3516   4.871   3.280   5.858
   71DPPC   C17 3517   5.057   3.349   5.726
   71DPPC   C18 3518   5.073   3.327   5.576
   71DPPC   C19 3519   5.213   3.364   5.528
   71DPPC   C20 3520   5.235   3.316   5.384
   71DPPC   C21 3521   5.358   3.376   5.316
   71DPPC   C22 3522   5.334   3.341   5.169
   71DPPC   C23 3523   5.363   3.193   5.140
   71DPPC   C24 3524   5.356   3.171   4.989
   71DPPC   C25 3525   5.430   3.262   4.890
   71DPPC   C26 3526   5.422   3.200   4.751
   71DPPC   C27 3527   5.469   3.291   4.637
   71DPPC   C28 3528   5.429   3.226   4.504
   71DPPC   C29 3529   5.474   3.315   4.388
   71DPPC   C30 3530   5.429   3.260   4.253
   71DPPC   C31 3531   5.468   3.352   4.137
   71DPPC   C32 3532   4.615   3.522   5.634
   71DPPC   O33 3533   4.638   3.494   5.496
   71DPPC   C34 3534   4.559   3.563   5.409
   71DPPC   O35 3535   4.487   3.655   5.446
   71DPPC   C36 3536   4.560   3.527   5.261
   71DPPC   C37 3537   4.467   3.411   5.225
   71DPPC   C38 3538   4.444   3.370   5.080
   71DPPC   C39 3539   4.336   3.261   5.085
   71DPPC   C40 3540   4.279   3.235   4.946
   71DPPC   C41 3541   4.226   3.365   4.885
   71DPPC   C42 3542   4.208   3.344   4.735
   71DPPC   C43 3543   4.157   3.466   4.659
   71DPPC   C44 3544   4.153   3.428   4.511
   71DPPC   C45 3545   4.300   3.404   4.479
   71DPPC   C46 3546   4.327   3.342   4.342
   71DPPC   C47 3547   4.273   3.429   4.227
   71DPPC   C48 3548   4.336   3.391   4.093
   71DPPC   C49 3549   4.324   3.502   3.989
   71DPPC   C50 3550   4.180   3.528   3.944
   72DPPC    C1 3551   0.989   8.398   4.822
   72DPPC    C2 3552   1.147   8.542   4.913
   72DPPC    C3 3553   0.917   8.555   4.978
   72DPPC    N4 3554   1.028   8.463   4.948
   72DPPC    C5 3555   1.046   8.366   5.058
   72DPPC    C6 3556   1.136   8.244   5.042
   72DPPC    O7 3557   1.266   8.279   4.994
   72DPPC    P8 3558   1.373   8.158   4.985
   72DPPC    O9 3559   1.313   8.064   5.082
   72DPPC   O10 3560   1.508   8.217   4.999
   72DPPC   O11 3561   1.347   8.082   4.845
   72DPPC   C12 3562   1.328   8.190   4.753
   72DPPC   C13 3563   1.310   8.159   4.604
   72DPPC   O14 3564   1.326   8.278   4.526
   72DPPC   C15 3565   1.411   8.291   4.421
   72DPPC   O16 3566   1.507   8.217   4.397
   72DPPC   C17 3567   1.377   8.418   4.342
   72DPPC   C18 3568   1.400   8.393   4.193
   72DPPC   C19 3569   1.393   8.511   4.096
   72DPPC   C20 3570   1.389   8.457   3.952
   72DPPC   C21 3571   1.322   8.566   3.867
   72DPPC   C22 3572   1.357   8.555   3.719
   72DPPC   C23 3573   1.312   8.674   3.635
   72DPPC   C24 3574   1.339   8.648   3.487
   72DPPC   C25 3575   1.319   8.770   3.397
   72DPPC   C26 3576   1.325   8.738   3.248
   72DPPC   C27 3577   1.210   8.647   3.204
   72DPPC   C28 3578   1.080   8.722   3.233
   72DPPC   C29 3579   0.959   8.628   3.237
   72DPPC   C30 3580   0.841   8.719   3.271
   72DPPC   C31 3581   0.858   8.754   3.419
   72DPPC   C32 3582   1.181   8.078   4.592
   72DPPC   O33 3583   1.058   8.150   4.595
   72DPPC   C34 3584   0.956   8.072   4.551
   72DPPC   O35 3585   0.936   7.952   4.574
   72DPPC   C36 3586   0.830   8.147   4.508
   72DPPC   C37 3587   0.792   8.121   4.362
   72DPPC   C38 3588   0.672   8.201   4.313
   72DPPC   C39 3589   0.661   8.197   4.161
   72DPPC   C40 3590   0.644   8.049   4.124
   72DPPC   C41 3591   0.618   8.023   3.975
   72DPPC   C42 3592   0.476   8.066   3.939
   72DPPC   C43 3593   0.478   8.048   3.787
   72DPPC   C44 3594   0.360   8.121   3.724
   72DPPC   C45 3595   0.232   8.081   3.797
   72DPPC   C46 3596   0.117   8.150   3.724
   72DPPC   C47 3597  -0.017   8.095   3.773
   72DPPC   C48 3598  -0.115   8.163   3.676
   72DPPC   C49 3599  -0.259   8.126   3.713
   72DPPC   C50 3600  -0.273   7.975   3.697
   73DPPC    C1 3601   8.518   8.206   5.008
   73DPPC    C2 3602   8.429   8.091   4.811
   73DPPC    C3 3603   8.630   8.020   4.911
   73DPPC    N4 3604   8.498   8.077   4.940
   73DPPC    C5 3605   8.433   7.980   5.030
   73DPPC    C6 3606   8.309   8.016   5.113
   73DPPC    O7 3607   8.262   7.894   5.172
   73DPPC    P8 3608   8.111   7.884   5.226
   73DPPC    O9 3609   8.088   8.013   5.295
   73DPPC   O10 3610   8.097   7.751   5.290
   73DPPC   O11 3611   8.045   7.881   5.079
   73DPPC   C12 3612   8.073   7.752   5.025
   73DPPC   C13 3613   8.003   7.712   4.895
   73DPPC   O14 3614   8.048   7.785   4.780
   73DPPC   C15 3615   8.169   7.762   4.724
   73DPPC   O16 3616   8.259   7.715   4.794
   73DPPC   C17 3617   8.207   7.837   4.596
   73DPPC   C18 3618   8.242   7.738   4.485
   73DPPC   C19 3619   8.129   7.653   4.426
   73DPPC   C20 3620   8.198   7.554   4.332
   73DPPC   C21 3621   8.205   7.416   4.397
   73DPPC   C22 3622   8.263   7.313   4.300
   73DPPC   C23 3623   8.396   7.366   4.247
   73DPPC   C24 3624   8.445   7.278   4.132
   73DPPC   C25 3625   8.360   7.287   4.004
   73DPPC   C26 3626   8.433   7.238   3.879
   73DPPC   C27 3627   8.498   7.103   3.913
   73DPPC   C28 3628   8.567   7.066   3.781
   73DPPC   C29 3629   8.682   7.157   3.738
   73DPPC   C30 3630   8.740   7.124   3.600
   73DPPC   C31 3631   8.871   7.195   3.563
   73DPPC   C32 3632   7.853   7.721   4.920
   73DPPC   O33 3633   7.772   7.693   4.806
   73DPPC   C34 3634   7.781   7.566   4.759
   73DPPC   O35 3635   7.840   7.481   4.824
   73DPPC   C36 3636   7.719   7.534   4.623
   73DPPC   C37 3637   7.765   7.399   4.565
   73DPPC   C38 3638   7.692   7.360   4.437
   73DPPC   C39 3639   7.712   7.463   4.326
   73DPPC   C40 3640   7.657   7.413   4.192
   73DPPC   C41 3641   7.698   7.518   4.088
   73DPPC   C42 3642   7.689   7.460   3.946
   73DPPC   C43 3643   7.766   7.561   3.860
   73DPPC   C44 3644   7.825   7.501   3.732
   73DPPC   C45 3645   7.897   7.601   3.642
   73DPPC   C46 3646   7.805   7.719   3.611
   73DPPC   C47 3647   7.870   7.822   3.518
   73DPPC   C48 3648   7.983   7.896   3.589
   73DPPC   C49 3649   7.941   8.039   3.622
   73DPPC   C50 3650   8.072   8.107   3.662
   74DPPC    C1 3651   5.916   4.759   5.847
   74DPPC    C2 3652   5.711   4.868   5.756
   74DPPC    C3 3653   5.920   4.959   5.722
   74DPPC    N4 3654   5.852   4.830   5.736
   74DPPC    C5 3655   5.846   4.745   5.616
   74DPPC    C6 3656   5.968   4.733   5.524
   74DPPC    O7 3657   5.967   4.614   5.444
   74DPPC    P8 3658   6.125   4.597   5.422
   74DPPC    O9 3659   6.155   4.482   5.334
   74DPPC   O10 3660   6.199   4.614   5.550
   74DPPC   O11 3661   6.159   4.729   5.336
   74DPPC   C12 3662   6.267   4.695   5.249
   74DPPC   C13 3663   6.289   4.787   5.129
   74DPPC   O14 3664   6.420   4.787   5.071
   74DPPC   C15 3665   6.453   4.685   4.987
   74DPPC   O16 3666   6.388   4.581   4.996
   74DPPC   C17 3667   6.576   4.715   4.902
   74DPPC   C18 3668   6.538   4.719   4.754
   74DPPC   C19 3669   6.658   4.773   4.676
   74DPPC   C20 3670   6.614   4.779   4.529
   74DPPC   C21 3671   6.497   4.876   4.508
   74DPPC   C22 3672   6.420   4.841   4.380
   74DPPC   C23 3673   6.513   4.850   4.259
   74DPPC   C24 3674   6.431   4.840   4.131
   74DPPC   C25 3675   6.522   4.866   4.010
   74DPPC   C26 3676   6.444   4.832   3.883
   74DPPC   C27 3677   6.545   4.778   3.782
   74DPPC   C28 3678   6.484   4.710   3.659
   74DPPC   C29 3679   6.419   4.581   3.709
   74DPPC   C30 3680   6.506   4.486   3.792
   74DPPC   C31 3681   6.420   4.369   3.839
   74DPPC   C32 3682   6.261   4.926   5.187
   74DPPC   O33 3683   6.221   5.010   5.078
   74DPPC   C34 3684   6.232   5.144   5.096
   74DPPC   O35 3685   6.243   5.190   5.209
   74DPPC   C36 3686   6.227   5.242   4.979
   74DPPC   C37 3687   6.206   5.162   4.850
   74DPPC   C38 3688   6.245   5.253   4.733
   74DPPC   C39 3689   6.392   5.293   4.750
   74DPPC   C40 3690   6.444   5.371   4.629
   74DPPC   C41 3691   6.461   5.276   4.510
   74DPPC   C42 3692   6.536   5.349   4.399
   74DPPC   C43 3693   6.522   5.272   4.268
   74DPPC   C44 3694   6.603   5.331   4.153
   74DPPC   C45 3695   6.556   5.268   4.022
   74DPPC   C46 3696   6.657   5.297   3.910
   74DPPC   C47 3697   6.610   5.227   3.783
   74DPPC   C48 3698   6.726   5.228   3.683
   74DPPC   C49 3699   6.674   5.181   3.547
   74DPPC   C50 3700   6.555   5.253   3.483
   75DPPC    C1 3701   3.800   1.400   5.805
   75DPPC    C2 3702   3.774   1.461   5.567
   75DPPC    C3 3703   3.691   1.266   5.661
   75DPPC    N4 3704   3.711   1.409   5.689
   75DPPC    C5 3705   3.597   1.491   5.731
   75DPPC    C6 3706   3.502   1.565   5.637
   75DPPC    O7 3707   3.566   1.685   5.591
   75DPPC    P8 3708   3.430   1.769   5.573
   75DPPC    O9 3709   3.396   1.801   5.713
   75DPPC   O10 3710   3.350   1.690   5.477
   75DPPC   O11 3711   3.484   1.901   5.498
   75DPPC   C12 3712   3.438   1.910   5.364
   75DPPC   C13 3713   3.496   2.035   5.297
   75DPPC   O14 3714   3.463   2.048   5.158
   75DPPC   C15 3715   3.484   2.166   5.095
   75DPPC   O16 3716   3.517   2.269   5.153
   75DPPC   C17 3717   3.463   2.176   4.944
   75DPPC   C18 3718   3.582   2.230   4.864
   75DPPC   C19 3719   3.701   2.134   4.871
   75DPPC   C20 3720   3.833   2.206   4.847
   75DPPC   C21 3721   3.953   2.112   4.839
   75DPPC   C22 3722   4.072   2.207   4.822
   75DPPC   C23 3723   4.202   2.131   4.796
   75DPPC   C24 3724   4.313   2.231   4.763
   75DPPC   C25 3725   4.278   2.325   4.648
   75DPPC   C26 3726   4.391   2.382   4.563
   75DPPC   C27 3727   4.340   2.477   4.454
   75DPPC   C28 3728   4.443   2.528   4.353
   75DPPC   C29 3729   4.372   2.584   4.229
   75DPPC   C30 3730   4.472   2.655   4.138
   75DPPC   C31 3731   4.393   2.727   4.028
   75DPPC   C32 3732   3.646   2.023   5.328
   75DPPC   O33 3733   3.700   1.894   5.298
   75DPPC   C34 3734   3.835   1.879   5.295
   75DPPC   O35 3735   3.901   1.961   5.358
   75DPPC   C36 3736   3.874   1.740   5.244
   75DPPC   C37 3737   3.905   1.756   5.095
   75DPPC   C38 3738   3.954   1.628   5.027
   75DPPC   C39 3739   3.993   1.644   4.879
   75DPPC   C40 3740   3.885   1.676   4.776
   75DPPC   C41 3741   3.937   1.704   4.635
   75DPPC   C42 3742   3.815   1.739   4.549
   75DPPC   C43 3743   3.881   1.794   4.423
   75DPPC   C44 3744   3.785   1.820   4.306
   75DPPC   C45 3745   3.718   1.688   4.269
   75DPPC   C46 3746   3.630   1.699   4.144
   75DPPC   C47 3747   3.725   1.735   4.030
   75DPPC   C48 3748   3.645   1.766   3.904
   75DPPC   C49 3749   3.749   1.786   3.793
   75DPPC   C50 3750   3.678   1.852   3.675
   76DPPC    C1 3751   5.938  -0.051   5.352
   76DPPC    C2 3752   5.735   0.012   5.432
   76DPPC    C3 3753   5.869   0.181   5.328
   76DPPC    N4 3754   5.827   0.040   5.321
   76DPPC    C5 3755   5.772  -0.005   5.192
   76DPPC    C6 3756   5.644   0.070   5.157
   76DPPC    O7 3757   5.564   0.031   5.045
   76DPPC    P8 3758   5.456   0.150   5.027
   76DPPC    O9 3759   5.535   0.270   4.991
   76DPPC   O10 3760   5.377   0.145   5.151
   76DPPC   O11 3761   5.387   0.065   4.909
   76DPPC   C12 3762   5.433   0.109   4.781
   76DPPC   C13 3763   5.324   0.119   4.673
   76DPPC   O14 3764   5.251   0.241   4.657
   76DPPC   C15 3765   5.320   0.347   4.606
   76DPPC   O16 3766   5.443   0.344   4.615
   76DPPC   C17 3767   5.243   0.478   4.592
   76DPPC   C18 3768   5.224   0.555   4.723
   76DPPC   C19 3769   5.146   0.686   4.705
   76DPPC   C20 3770   5.018   0.663   4.624
   76DPPC   C21 3771   4.932   0.785   4.589
   76DPPC   C22 3772   4.827   0.751   4.484
   76DPPC   C23 3773   4.914   0.705   4.367
   76DPPC   C24 3774   4.837   0.695   4.235
   76DPPC   C25 3775   4.892   0.590   4.139
   76DPPC   C26 3776   4.845   0.597   3.993
   76DPPC   C27 3777   4.913   0.487   3.912
   76DPPC   C28 3778   5.065   0.509   3.909
   76DPPC   C29 3779   5.149   0.382   3.918
   76DPPC   C30 3780   5.129   0.296   3.793
   76DPPC   C31 3781   5.227   0.178   3.794
   76DPPC   C32 3782   5.262  -0.021   4.664
   76DPPC   O33 3783   5.363  -0.115   4.628
   76DPPC   C34 3784   5.326  -0.244   4.651
   76DPPC   O35 3785   5.243  -0.268   4.738
   76DPPC   C36 3786   5.418  -0.355   4.601
   76DPPC   C37 3787   5.438  -0.328   4.451
   76DPPC   C38 3788   5.582  -0.368   4.421
   76DPPC   C39 3789   5.616  -0.343   4.274
   76DPPC   C40 3790   5.710  -0.445   4.209
   76DPPC   C41 3791   5.631  -0.571   4.175
   76DPPC   C42 3792   5.709  -0.676   4.095
   76DPPC   C43 3793   5.625  -0.804   4.097
   76DPPC   C44 3794   5.501  -0.778   4.013
   76DPPC   C45 3795   5.446  -0.912   3.962
   76DPPC   C46 3796   5.330  -0.875   3.870
   76DPPC   C47 3797   5.375  -0.869   3.723
   76DPPC   C48 3798   5.424  -1.004   3.672
   76DPPC   C49 3799   5.511  -0.980   3.549
   76DPPC   C50 3800   5.528  -1.109   3.469
   77DPPC    C1 3801   9.352   5.992   4.835
   77DPPC    C2 3802   9.479   5.810   4.736
   77DPPC    C3 3803   9.445   5.818   4.969
   77DPPC    N4 3804   9.381   5.848   4.839
   77DPPC    C5 3805   9.266   5.760   4.812
   77DPPC    C6 3806   9.131   5.743   4.882
   77DPPC    O7 3807   9.151   5.674   5.005
   77DPPC    P8 3808   9.031   5.695   5.110
   77DPPC    O9 3809   8.949   5.813   5.076
   77DPPC   O10 3810   9.086   5.687   5.247
   77DPPC   O11 3811   8.949   5.558   5.083
   77DPPC   C12 3812   9.013   5.435   5.118
   77DPPC   C13 3813   8.928   5.313   5.080
   77DPPC   O14 3814   9.009   5.202   5.039
   77DPPC   C15 3815   9.026   5.093   5.119
   77DPPC   O16 3816   9.026   5.109   5.241
   77DPPC   C17 3817   9.064   4.956   5.063
   77DPPC   C18 3818   9.012   4.936   4.920
   77DPPC   C19 3819   9.100   4.832   4.852
   77DPPC   C20 3820   9.246   4.879   4.847
   77DPPC   C21 3821   9.336   4.757   4.825
   77DPPC   C22 3822   9.339   4.723   4.676
   77DPPC   C23 3823   9.401   4.841   4.601
   77DPPC   C24 3824   9.401   4.803   4.452
   77DPPC   C25 3825   9.448   4.919   4.365
   77DPPC   C26 3826   9.449   4.882   4.216
   77DPPC   C27 3827   9.518   4.994   4.138
   77DPPC   C28 3828   9.507   4.940   3.995
   77DPPC   C29 3829   9.560   5.037   3.890
   77DPPC   C30 3830   9.597   4.957   3.765
   77DPPC   C31 3831   9.474   4.928   3.678
   77DPPC   C32 3832   8.845   5.360   4.960
   77DPPC   O33 3833   8.777   5.255   4.890
   77DPPC   C34 3834   8.706   5.300   4.784
   77DPPC   O35 3835   8.729   5.411   4.737
   77DPPC   C36 3836   8.635   5.184   4.712
   77DPPC   C37 3837   8.559   5.219   4.584
   77DPPC   C38 3838   8.540   5.087   4.510
   77DPPC   C39 3839   8.557   5.126   4.363
   77DPPC   C40 3840   8.518   5.000   4.286
   77DPPC   C41 3841   8.586   4.865   4.312
   77DPPC   C42 3842   8.509   4.747   4.253
   77DPPC   C43 3843   8.574   4.612   4.284
   77DPPC   C44 3844   8.502   4.491   4.224
   77DPPC   C45 3845   8.549   4.347   4.244
   77DPPC   C46 3846   8.505   4.264   4.123
   77DPPC   C47 3847   8.557   4.326   3.993
   77DPPC   C48 3848   8.536   4.248   3.864
   77DPPC   C49 3849   8.604   4.314   3.744
   77DPPC   C50 3850   8.598   4.228   3.618
   78DPPC    C1 3851   1.095   5.252   5.326
   78DPPC    C2 3852   1.190   5.072   5.238
   78DPPC    C3 3853   1.245   5.303   5.163
   78DPPC    N4 3854   1.227   5.210   5.275
   78DPPC    C5 3855   1.318   5.234   5.388
   78DPPC    C6 3856   1.460   5.177   5.375
   78DPPC    O7 3857   1.473   5.035   5.377
   78DPPC    P8 3858   1.624   4.992   5.340
   78DPPC    O9 3859   1.656   4.865   5.409
   78DPPC   O10 3860   1.697   5.118   5.366
   78DPPC   O11 3861   1.593   4.987   5.182
   78DPPC   C12 3862   1.538   4.859   5.149
   78DPPC   C13 3863   1.454   4.846   5.022
   78DPPC   O14 3864   1.388   4.722   4.994
   78DPPC   C15 3865   1.276   4.685   5.061
   78DPPC   O16 3866   1.195   4.762   5.113
   78DPPC   C17 3867   1.225   4.551   5.008
   78DPPC   C18 3868   1.161   4.557   4.870
   78DPPC   C19 3869   1.109   4.417   4.839
   78DPPC   C20 3870   1.057   4.420   4.695
   78DPPC   C21 3871   1.180   4.453   4.609
   78DPPC   C22 3872   1.163   4.500   4.464
   78DPPC   C23 3873   1.300   4.500   4.396
   78DPPC   C24 3874   1.289   4.527   4.246
   78DPPC   C25 3875   1.208   4.421   4.171
   78DPPC   C26 3876   1.195   4.466   4.026
   78DPPC   C27 3877   1.344   4.477   3.992
   78DPPC   C28 3878   1.353   4.553   3.860
   78DPPC   C29 3879   1.484   4.528   3.784
   78DPPC   C30 3880   1.477   4.387   3.724
   78DPPC   C31 3881   1.606   4.350   3.649
   78DPPC   C32 3882   1.553   4.883   4.911
   78DPPC   O33 3883   1.496   4.900   4.781
   78DPPC   C34 3884   1.591   4.941   4.693
   78DPPC   O35 3885   1.707   4.907   4.712
   78DPPC   C36 3886   1.546   5.031   4.577
   78DPPC   C37 3887   1.437   4.961   4.496
   78DPPC   C38 3888   1.499   4.858   4.401
   78DPPC   C39 3889   1.578   4.949   4.306
   78DPPC   C40 3890   1.672   4.867   4.218
   78DPPC   C41 3891   1.605   4.784   4.108
   78DPPC   C42 3892   1.711   4.712   4.024
   78DPPC   C43 3893   1.794   4.821   3.956
   78DPPC   C44 3894   1.897   4.764   3.858
   78DPPC   C45 3895   1.937   4.869   3.755
   78DPPC   C46 3896   1.991   4.992   3.828
   78DPPC   C47 3897   2.038   5.106   3.738
   78DPPC   C48 3898   2.107   5.217   3.818
   78DPPC   C49 3899   2.253   5.180   3.848
   78DPPC   C50 3900   2.333   5.302   3.893
   79DPPC    C1 3901   0.109   3.525   6.147
   79DPPC    C2 3902   0.130   3.527   5.912
   79DPPC    C3 3903  -0.093   3.499   6.010
   79DPPC    N4 3904   0.040   3.561   6.023
   79DPPC    C5 3905   0.043   3.708   6.018
   79DPPC    C6 3906  -0.057   3.789   5.935
   79DPPC    O7 3907  -0.017   3.787   5.798
   79DPPC    P8 3908  -0.143   3.862   5.732
   79DPPC    O9 3909  -0.155   3.995   5.796
   79DPPC   O10 3910  -0.249   3.759   5.726
   79DPPC   O11 3911  -0.070   3.869   5.588
   79DPPC   C12 3912  -0.015   3.743   5.549
   79DPPC   C13 3913   0.033   3.745   5.404
   79DPPC   O14 3914   0.070   3.611   5.368
   79DPPC   C15 3915  -0.012   3.508   5.335
   79DPPC   O16 3916  -0.122   3.505   5.390
   79DPPC   C17 3917   0.042   3.393   5.251
   79DPPC   C18 3918   0.061   3.437   5.105
   79DPPC   C19 3919   0.071   3.312   5.017
   79DPPC   C20 3920   0.050   3.350   4.870
   79DPPC   C21 3921   0.063   3.226   4.782
   79DPPC   C22 3922   0.027   3.273   4.641
   79DPPC   C23 3923   0.009   3.157   4.542
   79DPPC   C24 3924  -0.041   3.207   4.407
   79DPPC   C25 3925  -0.060   3.094   4.306
   79DPPC   C26 3926  -0.060   3.160   4.168
   79DPPC   C27 3927  -0.085   3.063   4.053
   79DPPC   C28 3928  -0.078   3.149   3.927
   79DPPC   C29 3929  -0.118   3.064   3.806
   79DPPC   C30 3930  -0.029   2.942   3.787
   79DPPC   C31 3931  -0.061   2.872   3.654
   79DPPC   C32 3932   0.150   3.843   5.416
   79DPPC   O33 3933   0.193   3.900   5.292
   79DPPC   C34 3934   0.288   3.996   5.298
   79DPPC   O35 3935   0.317   4.037   5.410
   79DPPC   C36 3936   0.355   4.047   5.170
   79DPPC   C37 3937   0.266   4.053   5.045
   79DPPC   C38 3938   0.355   4.068   4.922
   79DPPC   C39 3939   0.264   4.050   4.801
   79DPPC   C40 3940   0.158   4.158   4.772
   79DPPC   C41 3941   0.064   4.114   4.660
   79DPPC   C42 3942   0.127   4.114   4.521
   79DPPC   C43 3943   0.022   4.056   4.425
   79DPPC   C44 3944   0.078   4.074   4.283
   79DPPC   C45 3945  -0.046   4.046   4.198
   79DPPC   C46 3946  -0.010   4.118   4.068
   79DPPC   C47 3947  -0.119   4.131   3.961
   79DPPC   C48 3948  -0.051   4.182   3.834
   79DPPC   C49 3949  -0.147   4.164   3.716
   79DPPC   C50 3950  -0.080   4.192   3.581
   80DPPC    C1 3951   0.612   4.317   5.743
   80DPPC    C2 3952   0.766   4.396   5.924
   80DPPC    C3 3953   0.638   4.202   5.950
   80DPPC    N4 3954   0.707   4.284   5.849
   80DPPC    C5 3955   0.812   4.205   5.783
   80DPPC    C6 3956   0.907   4.272   5.684
   80DPPC    O7 3957   1.025   4.193   5.665
   80DPPC    P8 3958   1.124   4.296   5.590
   80DPPC    O9 3959   1.259   4.246   5.623
   80DPPC   O10 3960   1.080   4.436   5.611
   80DPPC   O11 3961   1.063   4.236   5.453
   80DPPC   C12 3962   1.091   4.339   5.358
   80DPPC   C13 3963   1.031   4.298   5.223
   80DPPC   O14 3964   0.890   4.277   5.221
   80DPPC   C15 3965   0.802   4.379   5.202
   80DPPC   O16 3966   0.824   4.490   5.251
   80DPPC   C17 3967   0.666   4.329   5.156
   80DPPC   C18 3968   0.664   4.325   5.003
   80DPPC   C19 3969   0.698   4.452   4.925
   80DPPC   C20 3970   0.678   4.457   4.773
   80DPPC   C21 3971   0.723   4.588   4.708
   80DPPC   C22 3972   0.672   4.577   4.564
   80DPPC   C23 3973   0.790   4.539   4.473
   80DPPC   C24 3974   0.736   4.518   4.332
   80DPPC   C25 3975   0.858   4.465   4.256
   80DPPC   C26 3976   0.840   4.408   4.115
   80DPPC   C27 3977   0.800   4.507   4.006
   80DPPC   C28 3978   0.765   4.429   3.879
   80DPPC   C29 3979   0.749   4.511   3.751
   80DPPC   C30 3980   0.700   4.431   3.630
   80DPPC   C31 3981   0.694   4.509   3.499
   80DPPC   C32 3982   1.114   4.179   5.174
   80DPPC   O33 3983   1.229   4.216   5.096
   80DPPC   C34 3984   1.287   4.112   5.031
   80DPPC   O35 3985   1.239   4.001   5.052
   80DPPC   C36 3986   1.395   4.149   4.929
   80DPPC   C37 3987   1.381   4.055   4.809
   80DPPC   C38 3988   1.277   4.090   4.702
   80DPPC   C39 3989   1.262   3.980   4.597
   80DPPC   C40 3990   1.145   4.015   4.504
   80DPPC   C41 3991   1.116   3.899   4.409
   80DPPC   C42 3992   1.040   3.930   4.281
   80DPPC   C43 3993   1.077   4.036   4.177
   80DPPC   C44 3994   1.012   4.018   4.040
   80DPPC   C45 3995   1.069   4.084   3.914
   80DPPC   C46 3996   0.975   4.081   3.793
   80DPPC   C47 3997   1.056   4.028   3.674
   80DPPC   C48 3998   0.962   4.006   3.556
   80DPPC   C49 3999   1.035   3.936   3.442
   80DPPC   C50 4000   0.938   3.889   3.333
   81DPPC    C1 4001   5.965   4.114   5.428
   81DPPC    C2 4002   5.759   4.077   5.547
   81DPPC    C3 4003   5.934   4.188   5.651
   81DPPC    N4 4004   5.867   4.174   5.520
   81DPPC    C5 4005   5.811   4.295   5.459
   81DPPC    C6 4006   5.741   4.398   5.547
   81DPPC    O7 4007   5.642   4.347   5.638
   81DPPC    P8 4008   5.612   4.455   5.753
   81DPPC    O9 4009   5.749   4.503   5.782
   81DPPC   O10 4010   5.517   4.408   5.856
   81DPPC   O11 4011   5.543   4.575   5.670
   81DPPC   C12 4012   5.425   4.528   5.603
   81DPPC   C13 4013   5.341   4.642   5.545
   81DPPC   O14 4014   5.228   4.606   5.464
   81DPPC   C15 4015   5.109   4.593   5.527
   81DPPC   O16 4016   5.098   4.645   5.638
   81DPPC   C17 4017   4.983   4.543   5.456
   81DPPC   C18 4018   4.997   4.534   5.304
   81DPPC   C19 4019   4.870   4.488   5.234
   81DPPC   C20 4020   4.825   4.355   5.296
   81DPPC   C21 4021   4.696   4.303   5.230
   81DPPC   C22 4022   4.723   4.248   5.090
   81DPPC   C23 4023   4.586   4.238   5.023
   81DPPC   C24 4024   4.601   4.238   4.871
   81DPPC   C25 4025   4.461   4.203   4.821
   81DPPC   C26 4026   4.346   4.299   4.851
   81DPPC   C27 4027   4.218   4.228   4.806
   81DPPC   C28 4028   4.225   4.192   4.658
   81DPPC   C29 4029   4.137   4.072   4.620
   81DPPC   C30 4030   4.189   4.028   4.484
   81DPPC   C31 4031   4.108   3.924   4.406
   81DPPC   C32 4032   5.440   4.733   5.472
   81DPPC   O33 4033   5.527   4.686   5.368
   81DPPC   C34 4034   5.640   4.754   5.334
   81DPPC   O35 4035   5.665   4.865   5.380
   81DPPC   C36 4036   5.707   4.704   5.206
   81DPPC   C37 4037   5.681   4.556   5.174
   81DPPC   C38 4038   5.777   4.524   5.059
   81DPPC   C39 4039   5.775   4.375   5.024
   81DPPC   C40 4040   5.918   4.333   4.987
   81DPPC   C41 4041   5.955   4.186   4.966
   81DPPC   C42 4042   5.882   4.119   4.849
   81DPPC   C43 4043   5.923   4.174   4.712
   81DPPC   C44 4044   5.853   4.120   4.587
   81DPPC   C45 4045   5.887   4.170   4.447
   81DPPC   C46 4046   5.790   4.085   4.364
   81DPPC   C47 4047   5.774   4.137   4.221
   81DPPC   C48 4048   5.900   4.096   4.144
   81DPPC   C49 4049   5.897   4.154   4.003
   81DPPC   C50 4050   6.023   4.143   3.915
   82DPPC    C1 4051   9.218   5.560   5.526
   82DPPC    C2 4052   9.425   5.464   5.568
   82DPPC    C3 4053   9.240   5.381   5.671
   82DPPC    N4 4054   9.284   5.430   5.540
   82DPPC    C5 4055   9.259   5.350   5.419
   82DPPC    C6 4056   9.315   5.209   5.400
   82DPPC    O7 4057   9.456   5.217   5.380
   82DPPC    P8 4058   9.505   5.073   5.325
   82DPPC    O9 4059   9.436   4.971   5.407
   82DPPC   O10 4060   9.653   5.073   5.319
   82DPPC   O11 4061   9.443   5.088   5.177
   82DPPC   C12 4062   9.539   5.140   5.084
   82DPPC   C13 4063   9.497   5.109   4.940
   82DPPC   O14 4064   9.612   5.096   4.855
   82DPPC   C15 4065   9.674   4.976   4.840
   82DPPC   O16 4066   9.677   4.900   4.937
   82DPPC   C17 4067   9.804   4.983   4.760
   82DPPC   C18 4068   9.767   4.982   4.611
   82DPPC   C19 4069   9.887   4.996   4.518
   82DPPC   C20 4070   9.838   4.993   4.373
   82DPPC   C21 4071   9.964   4.997   4.287
   82DPPC   C22 4072   9.919   4.934   4.155
   82DPPC   C23 4073  10.012   4.988   4.047
   82DPPC   C24 4074  10.007   4.898   3.923
   82DPPC   C25 4075  10.100   4.954   3.815
   82DPPC   C26 4076  10.085   4.887   3.678
   82DPPC   C27 4077  10.174   4.953   3.571
   82DPPC   C28 4078  10.162   4.885   3.435
   82DPPC   C29 4079  10.209   4.971   3.318
   82DPPC   C30 4080  10.115   5.091   3.319
   82DPPC   C31 4081  10.149   5.184   3.202
   82DPPC   C32 4082   9.403   5.225   4.904
   82DPPC   O33 4083   9.309   5.192   4.802
   82DPPC   C34 4084   9.231   5.301   4.775
   82DPPC   O35 4085   9.258   5.414   4.814
   82DPPC   C36 4086   9.124   5.273   4.669
   82DPPC   C37 4087   9.183   5.278   4.528
   82DPPC   C38 4088   9.076   5.226   4.432
   82DPPC   C39 4089   9.084   5.074   4.436
   82DPPC   C40 4090   8.962   5.001   4.379
   82DPPC   C41 4091   8.918   5.049   4.241
   82DPPC   C42 4092   8.990   4.981   4.124
   82DPPC   C43 4093   8.922   5.027   3.994
   82DPPC   C44 4094   9.000   4.957   3.883
   82DPPC   C45 4095   8.952   4.986   3.741
   82DPPC   C46 4096   9.054   4.934   3.639
   82DPPC   C47 4097   9.125   4.800   3.659
   82DPPC   C48 4098   9.020   4.688   3.655
   82DPPC   C49 4099   9.078   4.547   3.648
   82DPPC   C50 4100   9.189   4.539   3.543
   83DPPC    C1 4101   7.631   5.156   5.888
   83DPPC    C2 4102   7.745   4.952   5.893
   83DPPC    C3 4103   7.519   4.952   5.908
   83DPPC    N4 4104   7.627   5.019   5.836
   83DPPC    C5 4105   7.624   5.028   5.689
   83DPPC    C6 4106   7.588   4.908   5.602
   83DPPC    O7 4107   7.692   4.810   5.596
   83DPPC    P8 4108   7.658   4.703   5.480
   83DPPC    O9 4109   7.512   4.682   5.486
   83DPPC   O10 4110   7.761   4.603   5.516
   83DPPC   O11 4111   7.700   4.785   5.348
   83DPPC   C12 4112   7.828   4.743   5.301
   83DPPC   C13 4113   7.927   4.849   5.252
   83DPPC   O14 4114   7.902   4.912   5.126
   83DPPC   C15 4115   7.961   5.033   5.105
   83DPPC   O16 4116   8.039   5.084   5.185
   83DPPC   C17 4117   7.959   5.081   4.960
   83DPPC   C18 4118   7.823   5.137   4.916
   83DPPC   C19 4119   7.798   5.164   4.768
   83DPPC   C20 4120   7.901   5.257   4.702
   83DPPC   C21 4121   7.907   5.248   4.549
   83DPPC   C22 4122   7.781   5.305   4.483
   83DPPC   C23 4123   7.810   5.313   4.333
   83DPPC   C24 4124   7.695   5.374   4.253
   83DPPC   C25 4125   7.723   5.363   4.103
   83DPPC   C26 4126   7.605   5.405   4.014
   83DPPC   C27 4127   7.630   5.386   3.864
   83DPPC   C28 4128   7.502   5.424   3.788
   83DPPC   C29 4129   7.521   5.416   3.636
   83DPPC   C30 4130   7.506   5.277   3.575
   83DPPC   C31 4131   7.538   5.269   3.426
   83DPPC   C32 4132   8.058   4.770   5.253
   83DPPC   O33 4133   8.059   4.651   5.173
   83DPPC   C34 4134   8.184   4.604   5.146
   83DPPC   O35 4135   8.287   4.660   5.181
   83DPPC   C36 4136   8.191   4.475   5.064
   83DPPC   C37 4137   8.311   4.468   4.969
   83DPPC   C38 4138   8.286   4.375   4.850
   83DPPC   C39 4139   8.419   4.349   4.779
   83DPPC   C40 4140   8.483   4.477   4.727
   83DPPC   C41 4141   8.610   4.428   4.657
   83DPPC   C42 4142   8.711   4.543   4.646
   83DPPC   C43 4143   8.825   4.514   4.549
   83DPPC   C44 4144   8.913   4.633   4.510
   83DPPC   C45 4145   9.048   4.580   4.463
   83DPPC   C46 4146   9.042   4.596   4.311
   83DPPC   C47 4147   9.170   4.548   4.241
   83DPPC   C48 4148   9.177   4.576   4.091
   83DPPC   C49 4149   9.320   4.540   4.050
   83DPPC   C50 4150   9.353   4.567   3.903
   84DPPC    C1 4151   0.894   7.101   4.654
   84DPPC    C2 4152   0.709   7.162   4.528
   84DPPC    C3 4153   0.761   6.928   4.555
   84DPPC    N4 4154   0.756   7.059   4.622
   84DPPC    C5 4155   0.670   7.071   4.740
   84DPPC    C6 4156   0.536   6.998   4.747
   84DPPC    O7 4157   0.422   7.042   4.672
   84DPPC    P8 4158   0.295   6.958   4.725
   84DPPC    O9 4159   0.276   6.980   4.870
   84DPPC   O10 4160   0.332   6.823   4.677
   84DPPC   O11 4161   0.175   7.025   4.642
   84DPPC   C12 4162   0.141   6.929   4.542
   84DPPC   C13 4163   0.021   6.982   4.463
   84DPPC   O14 4164  -0.025   6.890   4.363
   84DPPC   C15 4165  -0.080   6.769   4.392
   84DPPC   O16 4166  -0.042   6.705   4.490
   84DPPC   C17 4167  -0.161   6.710   4.276
   84DPPC   C18 4168  -0.109   6.765   4.143
   84DPPC   C19 4169  -0.216   6.742   4.036
   84DPPC   C20 4170  -0.338   6.812   4.097
   84DPPC   C21 4171  -0.463   6.769   4.020
   84DPPC   C22 4172  -0.581   6.782   4.115
   84DPPC   C23 4173  -0.700   6.707   4.054
   84DPPC   C24 4174  -0.832   6.752   4.118
   84DPPC   C25 4175  -0.956   6.676   4.072
   84DPPC   C26 4176  -1.085   6.718   4.142
   84DPPC   C27 4177  -1.206   6.631   4.108
   84DPPC   C28 4178  -1.324   6.700   4.177
   84DPPC   C29 4179  -1.460   6.631   4.162
   84DPPC   C30 4180  -1.550   6.706   4.260
   84DPPC   C31 4181  -1.701   6.685   4.246
   84DPPC   C32 4182   0.048   7.118   4.400
   84DPPC   O33 4183   0.117   7.129   4.276
   84DPPC   C34 4184   0.139   7.260   4.245
   84DPPC   O35 4185   0.086   7.353   4.305
   84DPPC   C36 4186   0.186   7.280   4.100
   84DPPC   C37 4187   0.329   7.228   4.084
   84DPPC   C38 4188   0.374   7.238   3.938
   84DPPC   C39 4189   0.280   7.156   3.849
   84DPPC   C40 4190   0.280   7.017   3.912
   84DPPC   C41 4191   0.203   6.923   3.821
   84DPPC   C42 4192   0.228   6.776   3.857
   84DPPC   C43 4193   0.379   6.749   3.848
   84DPPC   C44 4194   0.412   6.609   3.899
   84DPPC   C45 4195   0.561   6.607   3.937
   84DPPC   C46 4196   0.594   6.725   4.028
   84DPPC   C47 4197   0.733   6.698   4.086
   84DPPC   C48 4198   0.822   6.681   3.962
   84DPPC   C49 4199   0.951   6.762   3.967
   84DPPC   C50 4200   1.033   6.749   3.838
   85DPPC    C1 4201   8.340   7.349   4.780
   85DPPC    C2 4202   8.269   7.407   4.991
   85DPPC    C3 4203   8.428   7.234   4.953
   85DPPC    N4 4204   8.391   7.371   4.916
   85DPPC    C5 4205   8.492   7.476   4.901
   85DPPC    C6 4206   8.583   7.531   5.012
   85DPPC    O7 4207   8.696   7.449   5.042
   85DPPC    P8 4208   8.836   7.529   5.046
   85DPPC    O9 4209   8.929   7.432   5.106
   85DPPC   O10 4210   8.803   7.662   5.102
   85DPPC   O11 4211   8.850   7.527   4.885
   85DPPC   C12 4212   8.878   7.392   4.848
   85DPPC   C13 4213   8.876   7.363   4.698
   85DPPC   O14 4214   8.847   7.226   4.668
   85DPPC   C15 4215   8.722   7.180   4.643
   85DPPC   O16 4216   8.623   7.240   4.684
   85DPPC   C17 4217   8.715   7.051   4.560
   85DPPC   C18 4218   8.582   7.019   4.492
   85DPPC   C19 4219   8.512   6.912   4.576
   85DPPC   C20 4220   8.375   6.884   4.513
   85DPPC   C21 4221   8.282   6.999   4.551
   85DPPC   C22 4222   8.145   6.983   4.485
   85DPPC   C23 4223   8.024   7.060   4.538
   85DPPC   C24 4224   7.920   7.044   4.427
   85DPPC   C25 4225   7.965   7.084   4.286
   85DPPC   C26 4226   7.853   7.076   4.183
   85DPPC   C27 4227   7.894   7.134   4.048
   85DPPC   C28 4228   8.016   7.070   3.983
   85DPPC   C29 4229   8.029   7.102   3.834
   85DPPC   C30 4230   8.154   7.033   3.778
   85DPPC   C31 4231   8.173   7.071   3.631
   85DPPC   C32 4232   9.007   7.419   4.642
   85DPPC   O33 4233   9.014   7.458   4.505
   85DPPC   C34 4234   9.128   7.521   4.464
   85DPPC   O35 4235   9.214   7.564   4.541
   85DPPC   C36 4236   9.133   7.548   4.314
   85DPPC   C37 4237   9.275   7.574   4.264
   85DPPC   C38 4238   9.283   7.651   4.132
   85DPPC   C39 4239   9.428   7.662   4.082
   85DPPC   C40 4240   9.431   7.725   3.943
   85DPPC   C41 4241   9.541   7.664   3.857
   85DPPC   C42 4242   9.530   7.711   3.712
   85DPPC   C43 4243   9.633   7.624   3.640
   85DPPC   C44 4244   9.646   7.626   3.487
   85DPPC   C45 4245   9.760   7.535   3.441
   85DPPC   C46 4246   9.735   7.387   3.471
   85DPPC   C47 4247   9.826   7.281   3.410
   85DPPC   C48 4248   9.752   7.149   3.432
   85DPPC   C49 4249   9.790   7.036   3.336
   85DPPC   C50 4250   9.938   7.006   3.358
   86DPPC    C1 4251   7.212   7.226   5.579
   86DPPC    C2 4252   7.419   7.192   5.440
   86DPPC    C3 4253   7.388   7.355   5.605
   86DPPC    N4 4254   7.359   7.215   5.572
   86DPPC    C5 4255   7.421   7.131   5.675
   86DPPC    C6 4256   7.412   6.979   5.655
   86DPPC    O7 4257   7.279   6.928   5.639
   86DPPC    P8 4258   7.290   6.770   5.607
   86DPPC    O9 4259   7.189   6.726   5.705
   86DPPC   O10 4260   7.431   6.726   5.606
   86DPPC   O11 4261   7.222   6.791   5.463
   86DPPC   C12 4262   7.308   6.786   5.349
   86DPPC   C13 4263   7.231   6.766   5.219
   86DPPC   O14 4264   7.322   6.771   5.108
   86DPPC   C15 4265   7.286   6.699   4.998
   86DPPC   O16 4266   7.197   6.615   5.009
   86DPPC   C17 4267   7.401   6.691   4.897
   86DPPC   C18 4268   7.362   6.641   4.758
   86DPPC   C19 4269   7.459   6.692   4.651
   86DPPC   C20 4270   7.393   6.663   4.516
   86DPPC   C21 4271   7.478   6.724   4.404
   86DPPC   C22 4272   7.455   6.875   4.396
   86DPPC   C23 4273   7.350   6.938   4.305
   86DPPC   C24 4274   7.354   7.090   4.326
   86DPPC   C25 4275   7.265   7.171   4.232
   86DPPC   C26 4276   7.320   7.164   4.090
   86DPPC   C27 4277   7.232   7.259   4.009
   86DPPC   C28 4278   7.288   7.292   3.870
   86DPPC   C29 4279   7.335   7.180   3.779
   86DPPC   C30 4280   7.407   7.228   3.652
   86DPPC   C31 4281   7.302   7.291   3.560
   86DPPC   C32 4282   7.115   6.865   5.209
   86DPPC   O33 4283   7.147   7.003   5.194
   86DPPC   C34 4284   7.042   7.088   5.214
   86DPPC   O35 4285   6.928   7.046   5.234
   86DPPC   C36 4286   7.085   7.234   5.230
   86DPPC   C37 4287   7.076   7.306   5.095
   86DPPC   C38 4288   6.936   7.347   5.048
   86DPPC   C39 4289   6.941   7.393   4.903
   86DPPC   C40 4290   7.029   7.518   4.905
   86DPPC   C41 4291   7.117   7.516   4.779
   86DPPC   C42 4292   7.194   7.646   4.756
   86DPPC   C43 4293   7.291   7.667   4.873
   86DPPC   C44 4294   7.375   7.793   4.850
   86DPPC   C45 4295   7.270   7.905   4.851
   86DPPC   C46 4296   7.313   8.038   4.787
   86DPPC   C47 4297   7.211   8.152   4.792
   86DPPC   C48 4298   7.291   8.265   4.727
   86DPPC   C49 4299   7.201   8.389   4.731
   86DPPC   C50 4300   7.259   8.486   4.628
   87DPPC    C1 4301   5.237   4.550   5.992
   87DPPC    C2 4302   5.081   4.413   6.101
   87DPPC    C3 4303   5.023   4.573   5.941
   87DPPC    N4 4304   5.119   4.466   5.969
   87DPPC    C5 4305   5.133   4.372   5.857
   87DPPC    C6 4306   5.249   4.273   5.855
   87DPPC    O7 4307   5.214   4.166   5.943
   87DPPC    P8 4308   5.332   4.059   5.967
   87DPPC    O9 4309   5.265   3.927   5.980
   87DPPC   O10 4310   5.409   4.126   6.074
   87DPPC   O11 4311   5.400   4.071   5.822
   87DPPC   C12 4312   5.363   3.959   5.741
   87DPPC   C13 4313   5.295   3.995   5.609
   87DPPC   O14 4314   5.247   3.880   5.538
   87DPPC   C15 4315   5.116   3.846   5.554
   87DPPC   O16 4316   5.044   3.886   5.645
   87DPPC   C17 4317   5.065   3.729   5.470
   87DPPC   C18 4318   4.943   3.754   5.382
   87DPPC   C19 4319   4.902   3.641   5.287
   87DPPC   C20 4320   5.010   3.621   5.180
   87DPPC   C21 4321   4.963   3.511   5.084
   87DPPC   C22 4322   5.079   3.481   4.989
   87DPPC   C23 4323   5.124   3.612   4.925
   87DPPC   C24 4324   5.248   3.590   4.837
   87DPPC   C25 4325   5.220   3.537   4.696
   87DPPC   C26 4326   5.131   3.634   4.618
   87DPPC   C27 4327   5.090   3.567   4.486
   87DPPC   C28 4328   4.972   3.635   4.415
   87DPPC   C29 4329   4.942   3.551   4.290
   87DPPC   C30 4330   4.810   3.606   4.236
   87DPPC   C31 4331   4.779   3.547   4.099
   87DPPC   C32 4332   5.385   4.092   5.533
   87DPPC   O33 4333   5.302   4.173   5.450
   87DPPC   C34 4334   5.372   4.240   5.354
   87DPPC   O35 4335   5.495   4.237   5.350
   87DPPC   C36 4336   5.289   4.286   5.234
   87DPPC   C37 4337   5.272   4.175   5.129
   87DPPC   C38 4338   5.187   4.062   5.187
   87DPPC   C39 4339   5.138   3.962   5.082
   87DPPC   C40 4340   5.033   4.033   4.997
   87DPPC   C41 4341   4.977   3.945   4.885
   87DPPC   C42 4342   4.854   4.000   4.812
   87DPPC   C43 4343   4.842   3.940   4.672
   87DPPC   C44 4344   4.712   3.998   4.617
   87DPPC   C45 4345   4.703   3.957   4.470
   87DPPC   C46 4346   4.601   4.050   4.404
   87DPPC   C47 4347   4.588   4.039   4.252
   87DPPC   C48 4348   4.556   3.893   4.221
   87DPPC   C49 4349   4.527   3.891   4.071
   87DPPC   C50 4350   4.411   3.975   4.018
   88DPPC    C1 4351   7.978   6.601   5.465
   88DPPC    C2 4352   7.845   6.417   5.536
   88DPPC    C3 4353   7.869   6.618   5.670
   88DPPC    N4 4354   7.854   6.564   5.535
   88DPPC    C5 4355   7.736   6.607   5.457
   88DPPC    C6 4356   7.696   6.754   5.450
   88DPPC    O7 4357   7.796   6.839   5.393
   88DPPC    P8 4358   7.752   6.994   5.393
   88DPPC    O9 4359   7.871   7.069   5.348
   88DPPC   O10 4360   7.676   7.026   5.516
   88DPPC   O11 4361   7.648   6.984   5.270
   88DPPC   C12 4362   7.713   6.939   5.151
   88DPPC   C13 4363   7.639   6.905   5.021
   88DPPC   O14 4364   7.728   6.878   4.911
   88DPPC   C15 4365   7.780   6.755   4.887
   88DPPC   O16 4366   7.772   6.678   4.982
   88DPPC   C17 4367   7.833   6.718   4.748
   88DPPC   C18 4368   7.822   6.568   4.718
   88DPPC   C19 4369   7.928   6.541   4.610
   88DPPC   C20 4370   7.925   6.395   4.565
   88DPPC   C21 4371   8.036   6.381   4.461
   88DPPC   C22 4372   7.989   6.311   4.333
   88DPPC   C23 4373   8.114   6.262   4.261
   88DPPC   C24 4374   8.079   6.204   4.123
   88DPPC   C25 4375   8.198   6.142   4.051
   88DPPC   C26 4376   8.169   6.132   3.901
   88DPPC   C27 4377   8.291   6.082   3.823
   88DPPC   C28 4378   8.247   6.013   3.694
   88DPPC   C29 4379   8.182   6.114   3.600
   88DPPC   C30 4380   8.171   6.075   3.453
   88DPPC   C31 4381   8.151   6.188   3.351
   88DPPC   C32 4382   7.552   7.028   4.997
   88DPPC   O33 4383   7.433   7.010   4.919
   88DPPC   C34 4384   7.352   7.120   4.923
   88DPPC   O35 4385   7.394   7.220   4.980
   88DPPC   C36 4386   7.210   7.100   4.871
   88DPPC   C37 4387   7.201   7.121   4.720
   88DPPC   C38 4388   7.066   7.081   4.660
   88DPPC   C39 4389   7.043   6.930   4.669
   88DPPC   C40 4390   6.896   6.900   4.635
   88DPPC   C41 4391   6.878   6.756   4.682
   88DPPC   C42 4392   6.730   6.716   4.686
   88DPPC   C43 4393   6.668   6.714   4.546
   88DPPC   C44 4394   6.532   6.645   4.535
   88DPPC   C45 4395   6.448   6.686   4.413
   88DPPC   C46 4396   6.358   6.569   4.374
   88DPPC   C47 4397   6.294   6.592   4.237
   88DPPC   C48 4398   6.208   6.468   4.208
   88DPPC   C49 4399   6.288   6.343   4.243
   88DPPC   C50 4400   6.226   6.221   4.173
   89DPPC    C1 4401   8.947   1.096   5.678
   89DPPC    C2 4402   9.001   1.318   5.693
   89DPPC    C3 4403   9.072   1.203   5.509
   89DPPC    N4 4404   8.955   1.218   5.596
   89DPPC    C5 4405   8.844   1.256   5.508
   89DPPC    C6 4406   8.704   1.302   5.550
   89DPPC    O7 4407   8.716   1.385   5.666
   89DPPC    P8 4408   8.584   1.477   5.675
   89DPPC    O9 4409   8.614   1.593   5.762
   89DPPC   O10 4410   8.476   1.378   5.692
   89DPPC   O11 4411   8.589   1.524   5.521
   89DPPC   C12 4412   8.484   1.609   5.474
   89DPPC   C13 4413   8.529   1.682   5.348
   89DPPC   O14 4414   8.423   1.770   5.307
   89DPPC   C15 4415   8.425   1.903   5.333
   89DPPC   O16 4416   8.487   1.942   5.432
   89DPPC   C17 4417   8.338   1.994   5.245
   89DPPC   C18 4418   8.319   1.949   5.100
   89DPPC   C19 4419   8.252   2.049   5.006
   89DPPC   C20 4420   8.223   1.987   4.869
   89DPPC   C21 4421   8.157   2.086   4.773
   89DPPC   C22 4422   8.025   2.134   4.834
   89DPPC   C23 4423   7.968   2.220   4.722
   89DPPC   C24 4424   7.837   2.282   4.771
   89DPPC   C25 4425   7.761   2.367   4.669
   89DPPC   C26 4426   7.716   2.279   4.552
   89DPPC   C27 4427   7.618   2.358   4.465
   89DPPC   C28 4428   7.670   2.489   4.405
   89DPPC   C29 4429   7.566   2.541   4.305
   89DPPC   C30 4430   7.624   2.672   4.252
   89DPPC   C31 4431   7.753   2.657   4.172
   89DPPC   C32 4432   8.574   1.583   5.240
   89DPPC   O33 4433   8.643   1.656   5.138
   89DPPC   C34 4434   8.672   1.597   5.019
   89DPPC   O35 4435   8.636   1.480   5.004
   89DPPC   C36 4436   8.750   1.671   4.909
   89DPPC   C37 4437   8.652   1.740   4.814
   89DPPC   C38 4438   8.717   1.865   4.755
   89DPPC   C39 4439   8.729   1.874   4.603
   89DPPC   C40 4440   8.594   1.893   4.533
   89DPPC   C41 4441   8.622   1.933   4.387
   89DPPC   C42 4442   8.499   1.909   4.300
   89DPPC   C43 4443   8.370   1.954   4.370
   89DPPC   C44 4444   8.252   1.897   4.291
   89DPPC   C45 4445   8.132   1.968   4.353
   89DPPC   C46 4446   8.006   1.927   4.275
   89DPPC   C47 4447   7.874   1.960   4.343
   89DPPC   C48 4448   7.765   1.894   4.258
   89DPPC   C49 4449   7.629   1.947   4.306
   89DPPC   C50 4450   7.525   1.910   4.200
   90DPPC    C1 4451   6.130   3.042   6.172
   90DPPC    C2 4452   5.970   3.208   6.079
   90DPPC    C3 4453   6.097   3.256   6.246
   90DPPC    N4 4454   6.108   3.178   6.122
   90DPPC    C5 4455   6.208   3.228   6.027
   90DPPC    C6 4456   6.238   3.378   6.019
   90DPPC    O7 4457   6.143   3.454   5.944
   90DPPC    P8 4458   6.145   3.609   5.986
   90DPPC    O9 4459   6.170   3.605   6.132
   90DPPC   O10 4460   6.045   3.695   5.919
   90DPPC   O11 4461   6.286   3.636   5.913
   90DPPC   C12 4462   6.264   3.643   5.772
   90DPPC   C13 4463   6.391   3.645   5.686
   90DPPC   O14 4464   6.375   3.687   5.550
   90DPPC   C15 4465   6.311   3.803   5.517
   90DPPC   O16 4466   6.299   3.895   5.597
   90DPPC   C17 4467   6.284   3.825   5.368
   90DPPC   C18 4468   6.160   3.747   5.324
   90DPPC   C19 4469   6.104   3.797   5.190
   90DPPC   C20 4470   6.198   3.817   5.071
   90DPPC   C21 4471   6.136   3.858   4.937
   90DPPC   C22 4472   6.243   3.913   4.842
   90DPPC   C23 4473   6.205   3.941   4.697
   90DPPC   C24 4474   6.323   3.985   4.610
   90DPPC   C25 4475   6.279   4.013   4.466
   90DPPC   C26 4476   6.396   3.989   4.370
   90DPPC   C27 4477   6.355   4.025   4.227
   90DPPC   C28 4478   6.477   4.006   4.138
   90DPPC   C29 4479   6.448   3.971   3.991
   90DPPC   C30 4480   6.408   3.825   3.970
   90DPPC   C31 4481   6.540   3.748   3.973
   90DPPC   C32 4482   6.470   3.515   5.698
   90DPPC   O33 4483   6.395   3.396   5.670
   90DPPC   C34 4484   6.460   3.279   5.691
   90DPPC   O35 4485   6.559   3.280   5.764
   90DPPC   C36 4486   6.383   3.147   5.680
   90DPPC   C37 4487   6.406   3.070   5.550
   90DPPC   C38 4488   6.294   2.966   5.541
   90DPPC   C39 4489   6.282   2.902   5.403
   90DPPC   C40 4490   6.171   2.797   5.402
   90DPPC   C41 4491   6.170   2.731   5.263
   90DPPC   C42 4492   6.078   2.614   5.232
   90DPPC   C43 4493   6.070   2.586   5.082
   90DPPC   C44 4494   6.025   2.701   4.991
   90DPPC   C45 4495   6.038   2.645   4.849
   90DPPC   C46 4496   6.013   2.745   4.736
   90DPPC   C47 4497   6.078   2.691   4.609
   90DPPC   C48 4498   5.984   2.710   4.490
   90DPPC   C49 4499   6.016   2.601   4.388
   90DPPC   C50 4500   6.157   2.622   4.333
   91DPPC    C1 4501   4.569   7.048   5.597
   91DPPC    C2 4502   4.513   7.185   5.769
   91DPPC    C3 4503   4.700   7.254   5.650
   91DPPC    N4 4504   4.568   7.190   5.633
   91DPPC    C5 4505   4.467   7.271   5.562
   91DPPC    C6 4506   4.500   7.273   5.413
   91DPPC    O7 4507   4.409   7.366   5.354
   91DPPC    P8 4508   4.363   7.314   5.209
   91DPPC    O9 4509   4.294   7.432   5.152
   91DPPC   O10 4510   4.291   7.188   5.241
   91DPPC   O11 4511   4.504   7.263   5.150
   91DPPC   C12 4512   4.508   7.331   5.024
   91DPPC   C13 4513   4.626   7.281   4.941
   91DPPC   O14 4514   4.669   7.358   4.827
   91DPPC   C15 4515   4.747   7.469   4.838
   91DPPC   O16 4516   4.792   7.516   4.942
   91DPPC   C17 4517   4.812   7.504   4.704
   91DPPC   C18 4518   4.779   7.423   4.578
   91DPPC   C19 4519   4.873   7.456   4.462
   91DPPC   C20 4520   4.815   7.403   4.331
   91DPPC   C21 4521   4.887   7.472   4.215
   91DPPC   C22 4522   4.879   7.390   4.086
   91DPPC   C23 4523   4.946   7.456   3.966
   91DPPC   C24 4524   4.968   7.365   3.845
   91DPPC   C25 4525   5.017   7.450   3.728
   91DPPC   C26 4526   5.031   7.356   3.608
   91DPPC   C27 4527   5.130   7.240   3.625
   91DPPC   C28 4528   5.173   7.192   3.486
   91DPPC   C29 4529   5.280   7.082   3.488
   91DPPC   C30 4530   5.360   7.068   3.359
   91DPPC   C31 4531   5.272   7.019   3.244
   91DPPC   C32 4532   4.609   7.131   4.916
   91DPPC   O33 4533   4.471   7.094   4.906
   91DPPC   C34 4534   4.442   6.967   4.866
   91DPPC   O35 4535   4.526   6.880   4.892
   91DPPC   C36 4536   4.309   6.940   4.797
   91DPPC   C37 4537   4.328   6.838   4.684
   91DPPC   C38 4538   4.185   6.806   4.638
   91DPPC   C39 4539   4.199   6.710   4.520
   91DPPC   C40 4540   4.262   6.803   4.416
   91DPPC   C41 4541   4.304   6.723   4.293
   91DPPC   C42 4542   4.190   6.637   4.238
   91DPPC   C43 4543   4.241   6.547   4.125
   91DPPC   C44 4544   4.365   6.471   4.172
   91DPPC   C45 4545   4.386   6.353   4.076
   91DPPC   C46 4546   4.406   6.395   3.930
   91DPPC   C47 4547   4.427   6.276   3.837
   91DPPC   C48 4548   4.391   6.328   3.698
   91DPPC   C49 4549   4.395   6.205   3.606
   91DPPC   C50 4550   4.364   6.238   3.460
   92DPPC    C1 4551   1.912   5.902   5.461
   92DPPC    C2 4552   1.886   6.131   5.547
   92DPPC    C3 4553   1.854   5.957   5.685
   92DPPC    N4 4554   1.938   5.995   5.571
   92DPPC    C5 4555   2.079   5.994   5.614
   92DPPC    C6 4556   2.178   6.039   5.507
   92DPPC    O7 4557   2.238   5.930   5.437
   92DPPC    P8 4558   2.359   5.975   5.340
   92DPPC    O9 4559   2.372   5.846   5.270
   92DPPC   O10 4560   2.437   6.018   5.458
   92DPPC   O11 4561   2.268   6.078   5.255
   92DPPC   C12 4562   2.229   6.004   5.139
   92DPPC   C13 4563   2.145   6.078   5.035
   92DPPC   O14 4564   2.108   5.993   4.925
   92DPPC   C15 4565   1.976   5.962   4.918
   92DPPC   O16 4566   1.898   6.036   4.978
   92DPPC   C17 4567   1.932   5.848   4.826
   92DPPC   C18 4568   1.921   5.899   4.682
   92DPPC   C19 4569   1.942   5.768   4.607
   92DPPC   C20 4570   1.913   5.807   4.462
   92DPPC   C21 4571   1.892   5.682   4.376
   92DPPC   C22 4572   1.850   5.722   4.234
   92DPPC   C23 4573   1.846   5.599   4.143
   92DPPC   C24 4574   1.747   5.498   4.202
   92DPPC   C25 4575   1.734   5.384   4.101
   92DPPC   C26 4576   1.613   5.300   4.145
   92DPPC   C27 4577   1.588   5.214   4.022
   92DPPC   C28 4578   1.605   5.298   3.895
   92DPPC   C29 4579   1.550   5.209   3.784
   92DPPC   C30 4580   1.571   5.244   3.637
   92DPPC   C31 4581   1.527   5.391   3.628
   92DPPC   C32 4582   2.229   6.202   5.003
   92DPPC   O33 4583   2.365   6.181   4.963
   92DPPC   C34 4584   2.449   6.287   4.950
   92DPPC   O35 4585   2.455   6.390   5.016
   92DPPC   C36 4586   2.580   6.256   4.877
   92DPPC   C37 4587   2.636   6.376   4.801
   92DPPC   C38 4588   2.780   6.350   4.757
   92DPPC   C39 4589   2.794   6.238   4.654
   92DPPC   C40 4590   2.710   6.274   4.531
   92DPPC   C41 4591   2.748   6.180   4.417
   92DPPC   C42 4592   2.729   6.031   4.447
   92DPPC   C43 4593   2.730   5.953   4.315
   92DPPC   C44 4594   2.681   5.812   4.350
   92DPPC   C45 4595   2.781   5.739   4.439
   92DPPC   C46 4596   2.742   5.595   4.476
   92DPPC   C47 4597   2.834   5.529   4.579
   92DPPC   C48 4598   2.793   5.392   4.633
   92DPPC   C49 4599   2.893   5.335   4.734
   92DPPC   C50 4600   2.837   5.202   4.784
   93DPPC    C1 4601   1.392   2.689   5.091
   93DPPC    C2 4602   1.305   2.872   4.972
   93DPPC    C3 4603   1.177   2.666   5.010
   93DPPC    N4 4604   1.268   2.766   5.067
   93DPPC    C5 4605   1.217   2.799   5.201
   93DPPC    C6 4606   1.284   2.916   5.275
   93DPPC    O7 4607   1.215   3.036   5.240
   93DPPC    P8 4608   1.292   3.161   5.306
   93DPPC    O9 4609   1.377   3.108   5.415
   93DPPC   O10 4610   1.181   3.255   5.336
   93DPPC   O11 4611   1.370   3.202   5.171
   93DPPC   C12 4612   1.272   3.245   5.077
   93DPPC   C13 4613   1.308   3.363   4.986
   93DPPC   O14 4614   1.217   3.413   4.887
   93DPPC   C15 4615   1.110   3.490   4.920
   93DPPC   O16 4616   1.075   3.513   5.036
   93DPPC   C17 4617   1.027   3.532   4.799
   93DPPC   C18 4618   0.890   3.463   4.803
   93DPPC   C19 4619   0.797   3.505   4.689
   93DPPC   C20 4620   0.868   3.478   4.556
   93DPPC   C21 4621   0.807   3.512   4.420
   93DPPC   C22 4622   0.781   3.662   4.400
   93DPPC   C23 4623   0.721   3.697   4.264
   93DPPC   C24 4624   0.826   3.682   4.153
   93DPPC   C25 4625   0.772   3.732   4.019
   93DPPC   C26 4626   0.658   3.637   3.981
   93DPPC   C27 4627   0.591   3.658   3.845
   93DPPC   C28 4628   0.682   3.635   3.724
   93DPPC   C29 4629   0.598   3.666   3.599
   93DPPC   C30 4630   0.679   3.604   3.485
   93DPPC   C31 4631   0.611   3.644   3.354
   93DPPC   C32 4632   1.435   3.311   4.918
   93DPPC   O33 4633   1.410   3.208   4.822
   93DPPC   C34 4634   1.505   3.184   4.728
   93DPPC   O35 4635   1.624   3.209   4.748
   93DPPC   C36 4636   1.473   3.085   4.616
   93DPPC   C37 4637   1.331   3.099   4.561
   93DPPC   C38 4638   1.301   2.994   4.454
   93DPPC   C39 4639   1.388   3.007   4.328
   93DPPC   C40 4640   1.351   2.899   4.227
   93DPPC   C41 4641   1.434   2.914   4.099
   93DPPC   C42 4642   1.368   2.826   3.993
   93DPPC   C43 4643   1.439   2.824   3.858
   93DPPC   C44 4644   1.360   2.911   3.759
   93DPPC   C45 4645   1.445   2.939   3.635
   93DPPC   C46 4646   1.357   3.035   3.554
   93DPPC   C47 4647   1.423   3.123   3.449
   93DPPC   C48 4648   1.441   3.054   3.314
   93DPPC   C49 4649   1.472   3.138   3.190
   93DPPC   C50 4650   1.494   3.065   3.057
   94DPPC    C1 4651   3.529   6.440   5.471
   94DPPC    C2 4652   3.623   6.543   5.675
   94DPPC    C3 4653   3.392   6.530   5.649
   94DPPC    N4 4654   3.517   6.460   5.616
   94DPPC    C5 4655   3.503   6.327   5.677
   94DPPC    C6 4656   3.626   6.238   5.699
   94DPPC    O7 4657   3.697   6.205   5.579
   94DPPC    P8 4658   3.816   6.107   5.624
   94DPPC    O9 4659   3.736   6.006   5.696
   94DPPC   O10 4660   3.901   6.206   5.696
   94DPPC   O11 4661   3.852   6.079   5.470
   94DPPC   C12 4662   3.918   6.195   5.419
   94DPPC   C13 4663   3.936   6.188   5.267
   94DPPC   O14 4664   3.821   6.243   5.201
   94DPPC   C15 4665   3.820   6.377   5.177
   94DPPC   O16 4666   3.908   6.450   5.222
   94DPPC   C17 4667   3.692   6.432   5.114
   94DPPC   C18 4668   3.732   6.525   4.999
   94DPPC   C19 4669   3.597   6.558   4.935
   94DPPC   C20 4670   3.618   6.659   4.822
   94DPPC   C21 4671   3.490   6.685   4.743
   94DPPC   C22 4672   3.530   6.792   4.641
   94DPPC   C23 4673   3.647   6.749   4.553
   94DPPC   C24 4674   3.609   6.629   4.466
   94DPPC   C25 4675   3.695   6.614   4.340
   94DPPC   C26 4676   3.699   6.471   4.286
   94DPPC   C27 4677   3.748   6.481   4.142
   94DPPC   C28 4678   3.808   6.345   4.103
   94DPPC   C29 4679   3.705   6.234   4.129
   94DPPC   C30 4680   3.634   6.202   3.998
   94DPPC   C31 4681   3.545   6.079   4.018
   94DPPC   C32 4682   3.967   6.044   5.228
   94DPPC   O33 4683   4.021   6.012   5.099
   94DPPC   C34 4684   4.075   5.888   5.106
   94DPPC   O35 4685   4.065   5.829   5.214
   94DPPC   C36 4686   4.157   5.843   4.985
   94DPPC   C37 4687   4.076   5.737   4.910
   94DPPC   C38 4688   4.117   5.754   4.764
   94DPPC   C39 4689   4.247   5.680   4.732
   94DPPC   C40 4690   4.285   5.744   4.598
   94DPPC   C41 4691   4.177   5.704   4.497
   94DPPC   C42 4692   4.235   5.741   4.360
   94DPPC   C43 4693   4.361   5.664   4.320
   94DPPC   C44 4694   4.367   5.678   4.168
   94DPPC   C45 4695   4.489   5.603   4.113
   94DPPC   C46 4696   4.503   5.609   3.961
   94DPPC   C47 4697   4.600   5.501   3.913
   94DPPC   C48 4698   4.648   5.525   3.769
   94DPPC   C49 4699   4.714   5.397   3.716
   94DPPC   C50 4700   4.748   5.419   3.568
   95DPPC    C1 4701   1.166   1.774   5.630
   95DPPC    C2 4702   1.007   1.692   5.481
   95DPPC    C3 4703   0.946   1.798   5.687
   95DPPC    N4 4704   1.035   1.805   5.571
   95DPPC    C5 4705   1.033   1.930   5.493
   95DPPC    C6 4706   1.041   2.061   5.572
   95DPPC    O7 4707   1.176   2.105   5.592
   95DPPC    P8 4708   1.166   2.250   5.661
   95DPPC    O9 4709   1.309   2.279   5.680
   95DPPC   O10 4710   1.080   2.234   5.780
   95DPPC   O11 4711   1.107   2.327   5.533
   95DPPC   C12 4712   1.209   2.357   5.437
   95DPPC   C13 4713   1.145   2.401   5.306
   95DPPC   O14 4714   1.229   2.413   5.190
   95DPPC   C15 4715   1.256   2.294   5.131
   95DPPC   O16 4716   1.205   2.193   5.179
   95DPPC   C17 4717   1.374   2.283   5.034
   95DPPC   C18 4718   1.375   2.156   4.948
   95DPPC   C19 4719   1.255   2.160   4.853
   95DPPC   C20 4720   1.239   2.021   4.790
   95DPPC   C21 4721   1.123   2.021   4.691
   95DPPC   C22 4722   1.107   1.880   4.633
   95DPPC   C23 4723   0.990   1.883   4.535
   95DPPC   C24 4724   1.031   1.967   4.414
   95DPPC   C25 4725   0.919   1.965   4.309
   95DPPC   C26 4726   0.971   1.920   4.173
   95DPPC   C27 4727   0.854   1.909   4.075
   95DPPC   C28 4728   0.915   1.879   3.938
   95DPPC   C29 4729   0.814   1.842   3.829
   95DPPC   C30 4730   0.902   1.791   3.714
   95DPPC   C31 4731   0.799   1.759   3.605
   95DPPC   C32 4732   1.065   2.517   5.364
   95DPPC   O33 4733   0.991   2.590   5.266
   95DPPC   C34 4734   0.868   2.627   5.311
   95DPPC   O35 4735   0.822   2.554   5.399
   95DPPC   C36 4736   0.792   2.743   5.246
   95DPPC   C37 4737   0.822   2.759   5.097
   95DPPC   C38 4738   0.741   2.877   5.043
   95DPPC   C39 4739   0.798   2.900   4.903
   95DPPC   C40 4740   0.881   3.028   4.893
   95DPPC   C41 4741   0.948   3.035   4.756
   95DPPC   C42 4742   0.855   3.087   4.646
   95DPPC   C43 4743   0.934   3.091   4.515
   95DPPC   C44 4744   0.837   3.125   4.401
   95DPPC   C45 4745   0.921   3.156   4.277
   95DPPC   C46 4746   0.840   3.191   4.152
   95DPPC   C47 4747   0.925   3.229   4.031
   95DPPC   C48 4748   0.846   3.252   3.902
   95DPPC   C49 4749   0.769   3.125   3.863
   95DPPC   C50 4750   0.851   3.001   3.826
   96DPPC    C1 4751   2.055   7.957   4.757
   96DPPC    C2 4752   2.032   7.865   4.980
   96DPPC    C3 4753   2.201   7.783   4.829
   96DPPC    N4 4754   2.126   7.902   4.873
   96DPPC    C5 4755   2.218   8.009   4.913
   96DPPC    C6 4756   2.335   7.978   5.007
   96DPPC    O7 4757   2.389   8.099   5.060
   96DPPC    P8 4758   2.543   8.097   5.105
   96DPPC    O9 4759   2.565   7.960   5.155
   96DPPC   O10 4760   2.559   8.218   5.189
   96DPPC   O11 4761   2.599   8.112   4.955
   96DPPC   C12 4762   2.604   8.252   4.924
   96DPPC   C13 4763   2.681   8.276   4.794
   96DPPC   O14 4764   2.624   8.383   4.717
   96DPPC   C15 4765   2.668   8.510   4.739
   96DPPC   O16 4766   2.711   8.543   4.850
   96DPPC   C17 4767   2.609   8.616   4.646
   96DPPC   C18 4768   2.700   8.625   4.523
   96DPPC   C19 4769   2.619   8.699   4.416
   96DPPC   C20 4770   2.491   8.624   4.382
   96DPPC   C21 4771   2.413   8.693   4.270
   96DPPC   C22 4772   2.297   8.608   4.217
   96DPPC   C23 4773   2.267   8.632   4.068
   96DPPC   C24 4774   2.213   8.769   4.028
   96DPPC   C25 4775   2.183   8.778   3.878
   96DPPC   C26 4776   2.150   8.921   3.833
   96DPPC   C27 4777   2.189   8.932   3.686
   96DPPC   C28 4778   2.143   9.072   3.643
   96DPPC   C29 4779   2.182   9.108   3.500
   96DPPC   C30 4780   2.334   9.090   3.503
   96DPPC   C31 4781   2.385   9.082   3.359
   96DPPC   C32 4782   2.685   8.150   4.708
   96DPPC   O33 4783   2.764   8.152   4.589
   96DPPC   C34 4784   2.723   8.060   4.498
   96DPPC   O35 4785   2.645   7.969   4.523
   96DPPC   C36 4786   2.793   8.065   4.362
   96DPPC   C37 4787   2.941   8.035   4.387
   96DPPC   C38 4788   3.028   8.051   4.262
   96DPPC   C39 4789   3.174   8.018   4.295
   96DPPC   C40 4790   3.210   8.097   4.420
   96DPPC   C41 4791   3.339   8.047   4.485
   96DPPC   C42 4792   3.454   8.057   4.384
   96DPPC   C43 4793   3.582   8.039   4.466
   96DPPC   C44 4794   3.708   8.075   4.387
   96DPPC   C45 4795   3.701   8.220   4.341
   96DPPC   C46 4796   3.813   8.262   4.245
   96DPPC   C47 4797   3.800   8.410   4.207
   96DPPC   C48 4798   3.918   8.460   4.123
   96DPPC   C49 4799   4.041   8.406   4.196
   96DPPC   C50 4800   4.169   8.449   4.123
   97DPPC    C1 4801   9.580   4.339   5.833
   97DPPC    C2 4802   9.539   4.189   5.640
   97DPPC    C3 4803   9.728   4.304   5.657
   97DPPC    N4 4804   9.632   4.235   5.744
   97DPPC    C5 4805   9.666   4.125   5.836
   97DPPC    C6 4806   9.763   4.013   5.798
   97DPPC    O7 4807   9.903   4.036   5.785
   97DPPC    P8 4808   9.966   3.888   5.799
   97DPPC    O9 4809   9.863   3.793   5.752
   97DPPC   O10 4810   9.988   3.882   5.945
   97DPPC   O11 4811  10.098   3.881   5.706
   97DPPC   C12 4812  10.045   3.910   5.577
   97DPPC   C13 4813  10.122   3.837   5.467
   97DPPC   O14 4814  10.134   3.921   5.352
   97DPPC   C15 4815  10.208   3.868   5.251
   97DPPC   O16 4816  10.271   3.764   5.268
   97DPPC   C17 4817  10.251   3.962   5.138
   97DPPC   C18 4818  10.260   3.876   5.012
   97DPPC   C19 4819  10.297   3.970   4.897
   97DPPC   C20 4820  10.299   3.901   4.761
   97DPPC   C21 4821  10.287   3.996   4.641
   97DPPC   C22 4822  10.144   4.047   4.625
   97DPPC   C23 4823  10.140   4.158   4.519
   97DPPC   C24 4824   9.994   4.180   4.480
   97DPPC   C25 4825   9.965   4.269   4.359
   97DPPC   C26 4826  10.019   4.213   4.228
   97DPPC   C27 4827   9.973   4.069   4.204
   97DPPC   C28 4828   9.967   4.031   4.056
   97DPPC   C29 4829   9.868   4.126   3.989
   97DPPC   C30 4830   9.853   4.084   3.842
   97DPPC   C31 4831   9.986   4.082   3.767
   97DPPC   C32 4832  10.064   3.697   5.440
   97DPPC   O33 4833   9.966   3.705   5.336
   97DPPC   C34 4834   9.902   3.592   5.296
   97DPPC   O35 4835   9.918   3.486   5.357
   97DPPC   C36 4836   9.832   3.609   5.161
   97DPPC   C37 4837   9.931   3.623   5.046
   97DPPC   C38 4838   9.860   3.629   4.911
   97DPPC   C39 4839   9.933   3.688   4.790
   97DPPC   C40 4840   9.843   3.703   4.668
   97DPPC   C41 4841   9.925   3.718   4.539
   97DPPC   C42 4842   9.845   3.673   4.416
   97DPPC   C43 4843   9.705   3.732   4.403
   97DPPC   C44 4844   9.630   3.696   4.275
   97DPPC   C45 4845   9.707   3.724   4.146
   97DPPC   C46 4846   9.618   3.686   4.027
   97DPPC   C47 4847   9.695   3.711   3.897
   97DPPC   C48 4848   9.611   3.714   3.769
   97DPPC   C49 4849   9.695   3.719   3.641
   97DPPC   C50 4850   9.622   3.758   3.512
   98DPPC    C1 4851   7.981   4.290   5.764
   98DPPC    C2 4852   7.807   4.141   5.815
   98DPPC    C3 4853   7.829   4.376   5.909
   98DPPC    N4 4854   7.837   4.283   5.796
   98DPPC    C5 4855   7.771   4.343   5.679
   98DPPC    C6 4856   7.618   4.351   5.675
   98DPPC    O7 4857   7.548   4.226   5.676
   98DPPC    P8 4858   7.402   4.279   5.721
   98DPPC    O9 4859   7.434   4.357   5.842
   98DPPC   O10 4860   7.311   4.162   5.720
   98DPPC   O11 4861   7.363   4.366   5.591
   98DPPC   C12 4862   7.336   4.267   5.491
   98DPPC   C13 4863   7.306   4.335   5.357
   98DPPC   O14 4864   7.263   4.241   5.258
   98DPPC   C15 4865   7.133   4.242   5.217
   98DPPC   O16 4866   7.066   4.323   5.282
   98DPPC   C17 4867   7.092   4.168   5.090
   98DPPC   C18 4868   7.211   4.166   4.994
   98DPPC   C19 4869   7.236   4.294   4.914
   98DPPC   C20 4870   7.244   4.275   4.762
   98DPPC   C21 4871   7.351   4.174   4.720
   98DPPC   C22 4872   7.381   4.181   4.570
   98DPPC   C23 4873   7.439   4.315   4.525
   98DPPC   C24 4874   7.475   4.340   4.378
   98DPPC   C25 4875   7.342   4.359   4.305
   98DPPC   C26 4876   7.357   4.338   4.155
   98DPPC   C27 4877   7.458   4.435   4.093
   98DPPC   C28 4878   7.431   4.447   3.943
   98DPPC   C29 4879   7.291   4.507   3.927
   98DPPC   C30 4880   7.249   4.500   3.780
   98DPPC   C31 4881   7.350   4.556   3.680
   98DPPC   C32 4882   7.437   4.405   5.318
   98DPPC   O33 4883   7.435   4.494   5.207
   98DPPC   C34 4884   7.553   4.498   5.138
   98DPPC   O35 4885   7.654   4.442   5.181
   98DPPC   C36 4886   7.547   4.543   4.992
   98DPPC   C37 4887   7.653   4.644   4.947
   98DPPC   C38 4888   7.612   4.700   4.811
   98DPPC   C39 4889   7.709   4.679   4.695
   98DPPC   C40 4890   7.656   4.756   4.574
   98DPPC   C41 4891   7.718   4.703   4.444
   98DPPC   C42 4892   7.679   4.786   4.322
   98DPPC   C43 4893   7.749   4.732   4.197
   98DPPC   C44 4894   7.721   4.806   4.066
   98DPPC   C45 4895   7.757   4.720   3.944
   98DPPC   C46 4896   7.907   4.691   3.943
   98DPPC   C47 4897   7.939   4.618   3.812
   98DPPC   C48 4898   8.087   4.646   3.783
   98DPPC   C49 4899   8.145   4.521   3.717
   98DPPC   C50 4900   8.297   4.533   3.700
   99DPPC    C1 4901   8.390   5.371   1.306
   99DPPC    C2 4902   8.526   5.483   1.477
   99DPPC    C3 4903   8.539   5.520   1.239
   99DPPC    N4 4904   8.448   5.497   1.353
   99DPPC    C5 4905   8.353   5.609   1.359
   99DPPC    C6 4906   8.240   5.612   1.463
   99DPPC    O7 4907   8.106   5.600   1.414
   99DPPC    P8 4908   8.015   5.709   1.489
   99DPPC    O9 4909   7.880   5.724   1.430
   99DPPC   O10 4910   8.090   5.836   1.496
   99DPPC   O11 4911   8.009   5.666   1.644
   99DPPC   C12 4912   7.886   5.713   1.701
   99DPPC   C13 4913   7.885   5.717   1.854
   99DPPC   O14 4914   7.903   5.850   1.904
   99DPPC   C15 4915   7.800   5.939   1.889
   99DPPC   O16 4916   7.706   5.937   1.811
   99DPPC   C17 4917   7.802   6.062   1.981
   99DPPC   C18 4918   7.660   6.097   2.024
   99DPPC   C19 4919   7.666   6.232   2.095
   99DPPC   C20 4920   7.745   6.209   2.224
   99DPPC   C21 4921   7.723   6.337   2.305
   99DPPC   C22 4922   7.574   6.339   2.339
   99DPPC   C23 4923   7.540   6.461   2.425
   99DPPC   C24 4924   7.392   6.500   2.418
   99DPPC   C25 4925   7.372   6.625   2.504
   99DPPC   C26 4926   7.448   6.610   2.636
   99DPPC   C27 4927   7.375   6.555   2.759
   99DPPC   C28 4928   7.465   6.483   2.860
   99DPPC   C29 4929   7.377   6.461   2.983
   99DPPC   C30 4930   7.432   6.341   3.060
   99DPPC   C31 4931   7.341   6.321   3.182
   99DPPC   C32 4932   7.989   5.616   1.902
   99DPPC   O33 4933   7.937   5.493   1.953
   99DPPC   C34 4934   8.035   5.419   2.010
   99DPPC   O35 4935   8.148   5.464   2.024
   99DPPC   C36 4936   7.987   5.303   2.099
   99DPPC   C37 4937   8.047   5.314   2.239
   99DPPC   C38 4938   8.004   5.199   2.331
   99DPPC   C39 4939   8.083   5.225   2.460
   99DPPC   C40 4940   8.047   5.116   2.561
   99DPPC   C41 4941   8.134   5.118   2.687
   99DPPC   C42 4942   8.054   5.060   2.804
   99DPPC   C43 4943   7.931   5.144   2.838
   99DPPC   C44 4944   7.869   5.115   2.975
   99DPPC   C45 4945   7.808   4.976   2.996
   99DPPC   C46 4946   7.768   4.954   3.142
   99DPPC   C47 4947   7.682   4.828   3.152
   99DPPC   C48 4948   7.649   4.772   3.290
   99DPPC   C49 4949   7.538   4.666   3.284
   99DPPC   C50 4950   7.406   4.741   3.269
  100DPPC    C1 4951   4.436   4.475   2.330
  100DPPC    C2 4952   4.304   4.499   2.135
  100DPPC    C3 4953   4.223   4.388   2.331
  100DPPC    N4 4954   4.300   4.503   2.281
  100DPPC    C5 4955   4.246   4.627   2.340
  100DPPC    C6 4956   4.104   4.666   2.298
  100DPPC    O7 4957   4.082   4.806   2.316
  100DPPC    P8 4958   3.983   4.862   2.202
  100DPPC    O9 4959   4.039   4.853   2.065
  100DPPC   O10 4960   3.937   4.992   2.257
  100DPPC   O11 4961   3.853   4.768   2.217
  100DPPC   C12 4962   3.761   4.809   2.319
  100DPPC   C13 4963   3.650   4.711   2.357
  100DPPC   O14 4964   3.536   4.774   2.418
  100DPPC   C15 4965   3.465   4.873   2.359
  100DPPC   O16 4966   3.473   4.889   2.237
  100DPPC   C17 4967   3.348   4.910   2.450
  100DPPC   C18 4968   3.220   4.831   2.421
  100DPPC   C19 4969   3.187   4.724   2.525
  100DPPC   C20 4970   3.173   4.787   2.664
  100DPPC   C21 4971   3.122   4.691   2.773
  100DPPC   C22 4972   3.100   4.768   2.903
  100DPPC   C23 4973   3.036   4.664   2.996
  100DPPC   C24 4974   3.031   4.723   3.137
  100DPPC   C25 4975   2.923   4.831   3.136
  100DPPC   C26 4976   2.906   4.904   3.270
  100DPPC   C27 4977   2.861   5.045   3.230
  100DPPC   C28 4978   2.847   5.135   3.353
  100DPPC   C29 4979   2.839   5.279   3.302
  100DPPC   C30 4980   2.829   5.371   3.424
  100DPPC   C31 4981   2.928   5.332   3.534
  100DPPC   C32 4982   3.717   4.585   2.413
  100DPPC   O33 4983   3.810   4.613   2.518
  100DPPC   C34 4984   3.864   4.498   2.567
  100DPPC   O35 4985   3.839   4.389   2.515
  100DPPC   C36 4986   3.983   4.518   2.661
  100DPPC   C37 4987   3.948   4.493   2.808
  100DPPC   C38 4988   4.071   4.512   2.898
  100DPPC   C39 4989   4.037   4.532   3.046
  100DPPC   C40 4990   3.983   4.673   3.071
  100DPPC   C41 4991   3.966   4.681   3.223
  100DPPC   C42 4992   3.926   4.814   3.286
  100DPPC   C43 4993   3.816   4.895   3.216
  100DPPC   C44 4994   3.781   5.023   3.292
  100DPPC   C45 4995   3.725   5.135   3.205
  100DPPC   C46 4996   3.715   5.264   3.286
  100DPPC   C47 4997   3.646   5.371   3.201
  100DPPC   C48 4998   3.630   5.497   3.286
  100DPPC   C49 4999   3.770   5.531   3.340
  100DPPC   C50 5000   3.748   5.672   3.394
  101DPPC    C1 5001   5.732   0.392   2.002
  101DPPC    C2 5002   5.709   0.185   2.094
  101DPPC    C3 5003   5.718   0.377   2.233
  101DPPC    N4 5004   5.659   0.322   2.110
  101DPPC    C5 5005   5.513   0.340   2.100
  101DPPC    C6 5006   5.427   0.261   2.001
  101DPPC    O7 5007   5.290   0.300   2.009
  101DPPC    P8 5008   5.190   0.183   1.962
  101DPPC    O9 5009   5.266   0.087   1.878
  101DPPC   O10 5010   5.072   0.247   1.900
  101DPPC   O11 5011   5.165   0.127   2.110
  101DPPC   C12 5012   5.090   0.222   2.186
  101DPPC   C13 5013   5.059   0.182   2.330
  101DPPC   O14 5014   5.005   0.304   2.383
  101DPPC   C15 5015   4.878   0.306   2.432
  101DPPC   O16 5016   4.796   0.229   2.382
  101DPPC   C17 5017   4.841   0.404   2.543
  101DPPC   C18 5018   4.918   0.354   2.666
  101DPPC   C19 5019   4.898   0.466   2.768
  101DPPC   C20 5020   4.940   0.440   2.913
  101DPPC   C21 5021   4.919   0.556   3.011
  101DPPC   C22 5022   4.773   0.588   3.043
  101DPPC   C23 5023   4.714   0.451   3.076
  101DPPC   C24 5024   4.564   0.460   3.107
  101DPPC   C25 5025   4.501   0.335   3.167
  101DPPC   C26 5026   4.358   0.366   3.214
  101DPPC   C27 5027   4.338   0.268   3.330
  101DPPC   C28 5028   4.379   0.129   3.280
  101DPPC   C29 5029   4.417   0.044   3.402
  101DPPC   C30 5030   4.480  -0.087   3.354
  101DPPC   C31 5031   4.618  -0.077   3.290
  101DPPC   C32 5032   5.182   0.121   2.397
  101DPPC   O33 5033   5.307   0.190   2.408
  101DPPC   C34 5034   5.407   0.114   2.461
  101DPPC   O35 5035   5.409  -0.006   2.433
  101DPPC   C36 5036   5.534   0.186   2.506
  101DPPC   C37 5037   5.518   0.211   2.656
  101DPPC   C38 5038   5.639   0.267   2.732
  101DPPC   C39 5039   5.614   0.275   2.883
  101DPPC   C40 5040   5.722   0.373   2.931
  101DPPC   C41 5041   5.704   0.400   3.080
  101DPPC   C42 5042   5.814   0.479   3.151
  101DPPC   C43 5043   5.798   0.464   3.303
  101DPPC   C44 5044   5.910   0.526   3.386
  101DPPC   C45 5045   5.892   0.511   3.537
  101DPPC   C46 5046   6.011   0.570   3.614
  101DPPC   C47 5047   5.977   0.557   3.762
  101DPPC   C48 5048   6.082   0.624   3.850
  101DPPC   C49 5049   6.054   0.617   4.001
  101DPPC   C50 5050   6.174   0.628   4.095
  102DPPC    C1 5051   2.447   1.224   1.935
  102DPPC    C2 5052   2.553   1.127   2.118
  102DPPC    C3 5053   2.337   1.076   2.095
  102DPPC    N4 5054   2.455   1.099   2.012
  102DPPC    C5 5055   2.503   0.987   1.931
  102DPPC    C6 5056   2.466   0.980   1.782
  102DPPC    O7 5057   2.324   0.984   1.763
  102DPPC    P8 5058   2.281   0.875   1.653
  102DPPC    O9 5059   2.407   0.831   1.590
  102DPPC   O10 5060   2.150   0.907   1.592
  102DPPC   O11 5061   2.251   0.755   1.756
  102DPPC   C12 5062   2.135   0.798   1.829
  102DPPC   C13 5063   2.064   0.700   1.922
  102DPPC   O14 5064   1.939   0.748   1.976
  102DPPC   C15 5065   1.854   0.658   2.033
  102DPPC   O16 5066   1.870   0.538   2.011
  102DPPC   C17 5067   1.739   0.714   2.116
  102DPPC   C18 5068   1.779   0.683   2.260
  102DPPC   C19 5069   1.693   0.738   2.374
  102DPPC   C20 5070   1.748   0.695   2.510
  102DPPC   C21 5071   1.652   0.747   2.618
  102DPPC   C22 5072   1.718   0.743   2.756
  102DPPC   C23 5073   1.635   0.773   2.881
  102DPPC   C24 5074   1.595   0.920   2.881
  102DPPC   C25 5075   1.479   0.959   2.972
  102DPPC   C26 5076   1.482   1.110   2.994
  102DPPC   C27 5077   1.595   1.141   3.092
  102DPPC   C28 5078   1.640   1.283   3.057
  102DPPC   C29 5079   1.526   1.383   3.078
  102DPPC   C30 5080   1.567   1.524   3.037
  102DPPC   C31 5081   1.598   1.526   2.887
  102DPPC   C32 5082   2.168   0.667   2.029
  102DPPC   O33 5083   2.235   0.761   2.114
  102DPPC   C34 5084   2.299   0.696   2.215
  102DPPC   O35 5085   2.318   0.575   2.227
  102DPPC   C36 5086   2.356   0.777   2.331
  102DPPC   C37 5087   2.261   0.783   2.451
  102DPPC   C38 5088   2.256   0.650   2.526
  102DPPC   C39 5089   2.144   0.640   2.630
  102DPPC   C40 5090   2.176   0.754   2.727
  102DPPC   C41 5091   2.093   0.728   2.853
  102DPPC   C42 5092   2.134   0.593   2.914
  102DPPC   C43 5093   2.064   0.562   3.046
  102DPPC   C44 5094   2.134   0.443   3.111
  102DPPC   C45 5095   2.031   0.382   3.206
  102DPPC   C46 5096   2.077   0.262   3.289
  102DPPC   C47 5097   1.978   0.226   3.400
  102DPPC   C48 5098   1.993   0.075   3.423
  102DPPC   C49 5099   1.922   0.035   3.553
  102DPPC   C50 5100   1.772   0.020   3.525
  103DPPC    C1 5101   2.604   7.288   1.347
  103DPPC    C2 5102   2.555   7.084   1.458
  103DPPC    C3 5103   2.771   7.169   1.461
  103DPPC    N4 5104   2.630   7.210   1.469
  103DPPC    C5 5105   2.595   7.276   1.596
  103DPPC    C6 5106   2.670   7.405   1.627
  103DPPC    O7 5107   2.802   7.380   1.676
  103DPPC    P8 5108   2.891   7.513   1.695
  103DPPC    O9 5109   2.888   7.558   1.555
  103DPPC   O10 5110   3.019   7.477   1.759
  103DPPC   O11 5111   2.801   7.582   1.810
  103DPPC   C12 5112   2.848   7.550   1.942
  103DPPC   C13 5113   2.723   7.564   2.029
  103DPPC   O14 5114   2.628   7.459   2.008
  103DPPC   C15 5115   2.671   7.340   2.058
  103DPPC   O16 5116   2.781   7.323   2.111
  103DPPC   C17 5117   2.576   7.224   2.024
  103DPPC   C18 5118   2.585   7.128   2.143
  103DPPC   C19 5119   2.525   7.183   2.273
  103DPPC   C20 5120   2.549   7.078   2.381
  103DPPC   C21 5121   2.499   7.123   2.519
  103DPPC   C22 5122   2.511   7.017   2.629
  103DPPC   C23 5123   2.443   7.079   2.751
  103DPPC   C24 5124   2.407   6.987   2.868
  103DPPC   C25 5125   2.382   7.046   3.007
  103DPPC   C26 5126   2.339   6.954   3.122
  103DPPC   C27 5127   2.312   7.035   3.248
  103DPPC   C28 5128   2.301   6.924   3.353
  103DPPC   C29 5129   2.424   6.833   3.352
  103DPPC   C30 5130   2.419   6.716   3.450
  103DPPC   C31 5131   2.543   6.630   3.475
  103DPPC   C32 5132   2.674   7.708   2.014
  103DPPC   O33 5133   2.774   7.799   2.059
  103DPPC   C34 5134   2.745   7.931   2.047
  103DPPC   O35 5135   2.633   7.965   2.009
  103DPPC   C36 5136   2.847   8.032   2.101
  103DPPC   C37 5137   2.844   8.033   2.254
  103DPPC   C38 5138   2.920   8.146   2.322
  103DPPC   C39 5139   2.897   8.156   2.473
  103DPPC   C40 5140   3.007   8.249   2.523
  103DPPC   C41 5141   3.018   8.242   2.675
  103DPPC   C42 5142   2.886   8.297   2.730
  103DPPC   C43 5143   2.907   8.327   2.878
  103DPPC   C44 5144   2.786   8.368   2.963
  103DPPC   C45 5145   2.816   8.415   3.105
  103DPPC   C46 5146   2.679   8.462   3.154
  103DPPC   C47 5147   2.700   8.548   3.279
  103DPPC   C48 5148   2.560   8.591   3.324
  103DPPC   C49 5149   2.572   8.700   3.431
  103DPPC   C50 5150   2.631   8.640   3.559
  104DPPC    C1 5151   3.942   3.880   1.650
  104DPPC    C2 5152   4.008   3.653   1.650
  104DPPC    C3 5153   4.143   3.809   1.542
  104DPPC    N4 5154   4.058   3.791   1.661
  104DPPC    C5 5155   4.124   3.823   1.788
  104DPPC    C6 5156   4.229   3.733   1.854
  104DPPC    O7 5157   4.335   3.684   1.771
  104DPPC    P8 5158   4.370   3.536   1.825
  104DPPC    O9 5159   4.490   3.489   1.752
  104DPPC   O10 5160   4.242   3.463   1.815
  104DPPC   O11 5161   4.405   3.579   1.976
  104DPPC   C12 5162   4.543   3.601   2.006
  104DPPC   C13 5163   4.560   3.689   2.130
  104DPPC   O14 5164   4.698   3.705   2.166
  104DPPC   C15 5165   4.729   3.813   2.244
  104DPPC   O16 5166   4.676   3.923   2.233
  104DPPC   C17 5167   4.848   3.787   2.337
  104DPPC   C18 5168   4.868   3.648   2.399
  104DPPC   C19 5169   4.977   3.629   2.505
  104DPPC   C20 5170   4.948   3.519   2.607
  104DPPC   C21 5171   5.072   3.504   2.694
  104DPPC   C22 5172   5.024   3.458   2.832
  104DPPC   C23 5173   5.135   3.420   2.930
  104DPPC   C24 5174   5.077   3.378   3.065
  104DPPC   C25 5175   5.177   3.323   3.167
  104DPPC   C26 5176   5.133   3.329   3.314
  104DPPC   C27 5177   5.089   3.469   3.355
  104DPPC   C28 5178   5.034   3.462   3.498
  104DPPC   C29 5179   4.989   3.582   3.582
  104DPPC   C30 5180   4.896   3.541   3.696
  104DPPC   C31 5181   4.884   3.677   3.765
  104DPPC   C32 5182   4.492   3.602   2.236
  104DPPC   O33 5183   4.462   3.666   2.361
  104DPPC   C34 5184   4.369   3.610   2.443
  104DPPC   O35 5185   4.293   3.522   2.402
  104DPPC   C36 5186   4.353   3.688   2.574
  104DPPC   C37 5187   4.484   3.650   2.644
  104DPPC   C38 5188   4.511   3.763   2.745
  104DPPC   C39 5189   4.635   3.737   2.830
  104DPPC   C40 5190   4.623   3.601   2.900
  104DPPC   C41 5191   4.712   3.599   3.024
  104DPPC   C42 5192   4.694   3.717   3.120
  104DPPC   C43 5193   4.773   3.697   3.249
  104DPPC   C44 5194   4.802   3.828   3.323
  104DPPC   C45 5195   4.672   3.894   3.369
  104DPPC   C46 5196   4.679   3.998   3.482
  104DPPC   C47 5197   4.542   4.009   3.550
  104DPPC   C48 5198   4.535   4.095   3.676
  104DPPC   C49 5199   4.526   4.240   3.629
  104DPPC   C50 5200   4.544   4.332   3.750
  105DPPC    C1 5201   4.517   5.067   1.857
  105DPPC    C2 5202   4.526   4.918   1.677
  105DPPC    C3 5203   4.574   5.160   1.643
  105DPPC    N4 5204   4.586   5.042   1.730
  105DPPC    C5 5205   4.731   5.016   1.729
  105DPPC    C6 5206   4.788   4.936   1.846
  105DPPC    O7 5207   4.837   5.016   1.954
  105DPPC    P8 5208   4.917   4.919   2.055
  105DPPC    O9 5209   4.994   5.021   2.129
  105DPPC   O10 5210   4.989   4.824   1.967
  105DPPC   O11 5211   4.798   4.846   2.135
  105DPPC   C12 5212   4.787   4.900   2.267
  105DPPC   C13 5213   4.664   4.861   2.349
  105DPPC   O14 5214   4.616   4.960   2.441
  105DPPC   C15 5215   4.533   5.049   2.381
  105DPPC   O16 5216   4.460   5.006   2.292
  105DPPC   C17 5217   4.505   5.176   2.463
  105DPPC   C18 5218   4.355   5.194   2.485
  105DPPC   C19 5219   4.342   5.309   2.585
  105DPPC   C20 5220   4.387   5.437   2.513
  105DPPC   C21 5221   4.383   5.557   2.608
  105DPPC   C22 5222   4.440   5.676   2.530
  105DPPC   C23 5223   4.419   5.810   2.602
  105DPPC   C24 5224   4.512   5.815   2.723
  105DPPC   C25 5225   4.480   5.938   2.808
  105DPPC   C26 5226   4.346   5.910   2.876
  105DPPC   C27 5227   4.306   6.041   2.946
  105DPPC   C28 5228   4.160   6.021   2.986
  105DPPC   C29 5229   4.091   6.136   3.061
  105DPPC   C30 5230   4.124   6.271   2.997
  105DPPC   C31 5231   4.015   6.364   3.049
  105DPPC   C32 5232   4.687   4.719   2.400
  105DPPC   O33 5233   4.805   4.714   2.481
  105DPPC   C34 5234   4.834   4.595   2.540
  105DPPC   O35 5235   4.767   4.492   2.524
  105DPPC   C36 5236   4.981   4.587   2.581
  105DPPC   C37 5237   4.985   4.557   2.731
  105DPPC   C38 5238   4.940   4.682   2.809
  105DPPC   C39 5239   4.953   4.662   2.960
  105DPPC   C40 5240   4.879   4.770   3.039
  105DPPC   C41 5241   4.902   4.757   3.190
  105DPPC   C42 5242   4.862   4.890   3.253
  105DPPC   C43 5243   4.869   4.893   3.406
  105DPPC   C44 5244   4.804   5.018   3.466
  105DPPC   C45 5245   4.849   5.020   3.612
  105DPPC   C46 5246   4.799   4.900   3.693
  105DPPC   C47 5247   4.866   4.910   3.830
  105DPPC   C48 5248   4.837   4.791   3.921
  105DPPC   C49 5249   4.909   4.806   4.055
  105DPPC   C50 5250   5.061   4.818   4.046
  106DPPC    C1 5251   9.169   0.492   1.269
  106DPPC    C2 5252   9.015   0.384   1.406
  106DPPC    C3 5253   9.165   0.249   1.292
  106DPPC    N4 5254   9.155   0.378   1.362
  106DPPC    C5 5255   9.257   0.388   1.466
  106DPPC    C6 5256   9.408   0.376   1.443
  106DPPC    O7 5257   9.476   0.449   1.546
  106DPPC    P8 5258   9.635   0.426   1.533
  106DPPC    O9 5259   9.668   0.463   1.394
  106DPPC   O10 5260   9.702   0.310   1.596
  106DPPC   O11 5261   9.671   0.556   1.621
  106DPPC   C12 5262   9.659   0.536   1.762
  106DPPC   C13 5263   9.570   0.641   1.828
  106DPPC   O14 5264   9.629   0.697   1.946
  106DPPC   C15 5265   9.661   0.829   1.942
  106DPPC   O16 5266   9.633   0.891   1.840
  106DPPC   C17 5267   9.725   0.896   2.063
  106DPPC   C18 5268   9.655   0.850   2.191
  106DPPC   C19 5269   9.749   0.855   2.312
  106DPPC   C20 5270   9.691   0.806   2.445
  106DPPC   C21 5271   9.800   0.847   2.544
  106DPPC   C22 5272   9.897   0.731   2.564
  106DPPC   C23 5273  10.011   0.786   2.650
  106DPPC   C24 5274  10.104   0.871   2.563
  106DPPC   C25 5275  10.245   0.858   2.622
  106DPPC   C26 5276  10.359   0.911   2.535
  106DPPC   C27 5277  10.498   0.895   2.597
  106DPPC   C28 5278  10.485   0.945   2.741
  106DPPC   C29 5279  10.618   0.938   2.817
  106DPPC   C30 5280  10.591   0.992   2.958
  106DPPC   C31 5281  10.565   1.143   2.953
  106DPPC   C32 5282   9.432   0.575   1.839
  106DPPC   O33 5283   9.434   0.444   1.896
  106DPPC   C34 5284   9.317   0.377   1.874
  106DPPC   O35 5285   9.221   0.440   1.831
  106DPPC   C36 5286   9.310   0.231   1.921
  106DPPC   C37 5287   9.366   0.206   2.061
  106DPPC   C38 5288   9.286   0.280   2.168
  106DPPC   C39 5289   9.360   0.394   2.238
  106DPPC   C40 5290   9.267   0.451   2.346
  106DPPC   C41 5291   9.206   0.345   2.437
  106DPPC   C42 5292   9.106   0.427   2.519
  106DPPC   C43 5293   9.094   0.361   2.656
  106DPPC   C44 5294   9.015   0.444   2.758
  106DPPC   C45 5295   9.005   0.362   2.886
  106DPPC   C46 5296   8.954   0.455   2.996
  106DPPC   C47 5297   8.921   0.394   3.133
  106DPPC   C48 5298   8.806   0.293   3.133
  106DPPC   C49 5299   8.793   0.243   3.277
  106DPPC   C50 5300   8.787   0.364   3.371
  107DPPC    C1 5301   6.209   7.841   2.124
  107DPPC    C2 5302   6.168   7.937   1.920
  107DPPC    C3 5303   6.085   8.051   2.125
  107DPPC    N4 5304   6.192   7.972   2.060
  107DPPC    C5 5305   6.327   8.028   2.049
  107DPPC    C6 5306   6.370   8.117   2.167
  107DPPC    O7 5307   6.299   8.241   2.169
  107DPPC    P8 5308   6.397   8.350   2.102
  107DPPC    O9 5309   6.323   8.387   1.979
  107DPPC   O10 5310   6.533   8.290   2.104
  107DPPC   O11 5311   6.388   8.468   2.210
  107DPPC   C12 5312   6.247   8.482   2.230
  107DPPC   C13 5313   6.192   8.519   2.368
  107DPPC   O14 5314   6.230   8.653   2.404
  107DPPC   C15 5315   6.137   8.748   2.431
  107DPPC   O16 5316   6.032   8.740   2.368
  107DPPC   C17 5317   6.192   8.881   2.484
  107DPPC   C18 5318   6.269   8.866   2.615
  107DPPC   C19 5319   6.187   8.815   2.734
  107DPPC   C20 5320   6.076   8.912   2.776
  107DPPC   C21 5321   6.140   8.999   2.884
  107DPPC   C22 5322   6.059   9.125   2.920
  107DPPC   C23 5323   6.110   9.235   3.013
  107DPPC   C24 5324   6.223   9.310   2.943
  107DPPC   C25 5325   6.287   9.422   3.025
  107DPPC   C26 5326   6.187   9.534   3.055
  107DPPC   C27 5327   6.158   9.610   2.925
  107DPPC   C28 5328   6.051   9.715   2.955
  107DPPC   C29 5329   6.046   9.837   2.864
  107DPPC   C30 5330   5.996   9.792   2.726
  107DPPC   C31 5331   5.982   9.901   2.620
  107DPPC   C32 5332   6.243   8.405   2.457
  107DPPC   O33 5333   6.175   8.398   2.583
  107DPPC   C34 5334   6.041   8.374   2.590
  107DPPC   O35 5335   5.982   8.343   2.487
  107DPPC   C36 5336   5.975   8.401   2.726
  107DPPC   C37 5337   6.078   8.457   2.825
  107DPPC   C38 5338   6.017   8.502   2.958
  107DPPC   C39 5339   6.124   8.575   3.039
  107DPPC   C40 5340   6.070   8.703   3.102
  107DPPC   C41 5341   6.176   8.779   3.182
  107DPPC   C42 5342   6.215   8.691   3.301
  107DPPC   C43 5343   6.108   8.675   3.410
  107DPPC   C44 5344   6.180   8.637   3.539
  107DPPC   C45 5345   6.081   8.609   3.652
  107DPPC   C46 5346   6.166   8.576   3.776
  107DPPC   C47 5347   6.070   8.586   3.894
  107DPPC   C48 5348   5.994   8.719   3.891
  107DPPC   C49 5349   5.846   8.694   3.917
  107DPPC   C50 5350   5.756   8.815   3.895
  108DPPC    C1 5351   7.190   0.518   1.278
  108DPPC    C2 5352   7.038   0.705   1.303
  108DPPC    C3 5353   7.046   0.580   1.103
  108DPPC    N4 5354   7.055   0.569   1.249
  108DPPC    C5 5355   6.939   0.487   1.284
  108DPPC    C6 5356   6.957   0.379   1.391
  108DPPC    O7 5357   6.942   0.429   1.524
  108DPPC    P8 5358   6.959   0.299   1.617
  108DPPC    O9 5359   7.103   0.267   1.615
  108DPPC   O10 5360   6.854   0.207   1.569
  108DPPC   O11 5361   6.907   0.369   1.752
  108DPPC   C12 5362   7.009   0.451   1.809
  108DPPC   C13 5363   6.964   0.542   1.923
  108DPPC   O14 5364   7.043   0.660   1.944
  108DPPC   C15 5365   6.962   0.769   1.946
  108DPPC   O16 5366   6.849   0.762   1.897
  108DPPC   C17 5367   7.012   0.900   2.006
  108DPPC   C18 5368   6.982   0.918   2.155
  108DPPC   C19 5369   6.999   1.067   2.189
  108DPPC   C20 5370   6.933   1.104   2.321
  108DPPC   C21 5371   7.039   1.055   2.420
  108DPPC   C22 5372   6.999   1.080   2.566
  108DPPC   C23 5373   6.872   1.012   2.619
  108DPPC   C24 5374   6.898   0.927   2.744
  108DPPC   C25 5375   6.964   1.031   2.836
  108DPPC   C26 5376   7.026   0.963   2.957
  108DPPC   C27 5377   6.931   0.880   3.044
  108DPPC   C28 5378   6.985   0.838   3.181
  108DPPC   C29 5379   6.891   0.737   3.247
  108DPPC   C30 5380   6.951   0.727   3.388
  108DPPC   C31 5381   6.872   0.648   3.492
  108DPPC   C32 5382   6.977   0.438   2.034
  108DPPC   O33 5383   6.944   0.468   2.170
  108DPPC   C34 5384   6.957   0.359   2.250
  108DPPC   O35 5385   7.016   0.257   2.216
  108DPPC   C36 5386   6.954   0.384   2.401
  108DPPC   C37 5387   6.914   0.260   2.481
  108DPPC   C38 5388   6.936   0.292   2.629
  108DPPC   C39 5389   6.898   0.170   2.713
  108DPPC   C40 5390   6.986   0.047   2.687
  108DPPC   C41 5391   6.935  -0.079   2.757
  108DPPC   C42 5392   6.938  -0.054   2.908
  108DPPC   C43 5393   6.880  -0.171   2.989
  108DPPC   C44 5394   6.915  -0.169   3.138
  108DPPC   C45 5395   6.868  -0.298   3.206
  108DPPC   C46 5396   6.911  -0.299   3.353
  108DPPC   C47 5397   6.829  -0.201   3.437
  108DPPC   C48 5398   6.870  -0.203   3.585
  108DPPC   C49 5399   7.016  -0.179   3.625
  108DPPC   C50 5400   7.028  -0.100   3.756
  109DPPC    C1 5401   9.377   5.989   0.536
  109DPPC    C2 5402   9.424   5.977   0.764
  109DPPC    C3 5403   9.497   6.161   0.631
  109DPPC    N4 5404   9.384   6.071   0.658
  109DPPC    C5 5405   9.254   6.138   0.673
  109DPPC    C6 5406   9.211   6.165   0.817
  109DPPC    O7 5407   9.139   6.053   0.868
  109DPPC    P8 5408   9.030   6.090   0.980
  109DPPC    O9 5409   8.933   5.981   0.958
  109DPPC   O10 5410   8.994   6.234   0.971
  109DPPC   O11 5411   9.122   6.079   1.111
  109DPPC   C12 5412   9.105   5.948   1.165
  109DPPC   C13 5413   9.218   5.894   1.253
  109DPPC   O14 5414   9.194   5.764   1.309
  109DPPC   C15 5415   9.297   5.692   1.362
  109DPPC   O16 5416   9.414   5.720   1.334
  109DPPC   C17 5417   9.257   5.557   1.421
  109DPPC   C18 5418   9.183   5.579   1.553
  109DPPC   C19 5419   9.269   5.661   1.649
  109DPPC   C20 5420   9.210   5.630   1.787
  109DPPC   C21 5421   9.281   5.690   1.908
  109DPPC   C22 5422   9.207   5.671   2.040
  109DPPC   C23 5423   9.274   5.754   2.150
  109DPPC   C24 5424   9.212   5.729   2.288
  109DPPC   C25 5425   9.284   5.792   2.407
  109DPPC   C26 5426   9.193   5.802   2.530
  109DPPC   C27 5427   9.259   5.826   2.666
  109DPPC   C28 5428   9.142   5.801   2.760
  109DPPC   C29 5429   9.183   5.805   2.908
  109DPPC   C30 5430   9.059   5.793   2.996
  109DPPC   C31 5431   9.101   5.811   3.142
  109DPPC   C32 5432   9.248   6.006   1.353
  109DPPC   O33 5433   9.154   6.023   1.460
  109DPPC   C34 5434   9.148   6.149   1.513
  109DPPC   O35 5435   9.234   6.231   1.481
  109DPPC   C36 5436   9.066   6.153   1.642
  109DPPC   C37 5437   9.156   6.133   1.764
  109DPPC   C38 5438   9.098   6.183   1.896
  109DPPC   C39 5439   9.205   6.185   2.006
  109DPPC   C40 5440   9.145   6.227   2.141
  109DPPC   C41 5441   9.260   6.225   2.242
  109DPPC   C42 5442   9.188   6.256   2.373
  109DPPC   C43 5443   9.284   6.273   2.491
  109DPPC   C44 5444   9.380   6.154   2.502
  109DPPC   C45 5445   9.464   6.183   2.626
  109DPPC   C46 5446   9.566   6.073   2.654
  109DPPC   C47 5447   9.657   6.114   2.770
  109DPPC   C48 5448   9.768   6.010   2.786
  109DPPC   C49 5449   9.840   6.029   2.919
  109DPPC   C50 5450   9.935   5.910   2.904
  110DPPC    C1 5451   1.394   3.395   1.023
  110DPPC    C2 5452   1.607   3.313   1.133
  110DPPC    C3 5453   1.610   3.486   0.973
  110DPPC    N4 5454   1.527   3.423   1.077
  110DPPC    C5 5455   1.512   3.529   1.178
  110DPPC    C6 5456   1.421   3.499   1.297
  110DPPC    O7 5457   1.382   3.610   1.378
  110DPPC    P8 5458   1.245   3.683   1.335
  110DPPC    O9 5459   1.185   3.594   1.233
  110DPPC   O10 5460   1.262   3.828   1.312
  110DPPC   O11 5461   1.184   3.670   1.484
  110DPPC   C12 5462   1.119   3.543   1.493
  110DPPC   C13 5463   1.180   3.440   1.589
  110DPPC   O14 5464   1.105   3.318   1.600
  110DPPC   C15 5465   1.174   3.204   1.626
  110DPPC   O16 5466   1.284   3.176   1.578
  110DPPC   C17 5467   1.080   3.097   1.682
  110DPPC   C18 5468   1.092   3.118   1.833
  110DPPC   C19 5469   1.007   3.015   1.907
  110DPPC   C20 5470   1.023   3.039   2.057
  110DPPC   C21 5471   0.920   2.956   2.135
  110DPPC   C22 5472   0.918   3.001   2.281
  110DPPC   C23 5473   0.819   2.915   2.359
  110DPPC   C24 5474   0.681   2.918   2.293
  110DPPC   C25 5475   0.586   2.861   2.399
  110DPPC   C26 5476   0.613   2.947   2.522
  110DPPC   C27 5477   0.522   2.914   2.641
  110DPPC   C28 5478   0.539   3.020   2.750
  110DPPC   C29 5479   0.678   3.000   2.810
  110DPPC   C30 5480   0.722   3.093   2.924
  110DPPC   C31 5481   0.647   3.077   3.056
  110DPPC   C32 5482   1.215   3.512   1.719
  110DPPC   O33 5483   1.293   3.435   1.811
  110DPPC   C34 5484   1.307   3.498   1.931
  110DPPC   O35 5485   1.300   3.620   1.944
  110DPPC   C36 5486   1.376   3.420   2.043
  110DPPC   C37 5487   1.269   3.358   2.133
  110DPPC   C38 5488   1.334   3.274   2.244
  110DPPC   C39 5489   1.237   3.207   2.341
  110DPPC   C40 5490   1.295   3.144   2.467
  110DPPC   C41 5491   1.186   3.061   2.533
  110DPPC   C42 5492   1.254   2.980   2.644
  110DPPC   C43 5493   1.153   2.915   2.739
  110DPPC   C44 5494   1.240   2.854   2.850
  110DPPC   C45 5495   1.167   2.811   2.977
  110DPPC   C46 5496   1.120   2.934   3.054
  110DPPC   C47 5497   1.038   2.921   3.182
  110DPPC   C48 5498   1.009   3.062   3.234
  110DPPC   C49 5499   0.924   3.028   3.357
  110DPPC   C50 5500   0.845   3.156   3.385
  111DPPC    C1 5501   1.740   1.017   1.748
  111DPPC    C2 5502   1.766   1.079   1.516
  111DPPC    C3 5503   1.754   0.858   1.568
  111DPPC    N4 5504   1.699   0.987   1.610
  111DPPC    C5 5505   1.553   0.987   1.589
  111DPPC    C6 5506   1.462   0.871   1.630
  111DPPC    O7 5507   1.488   0.829   1.764
  111DPPC    P8 5508   1.390   0.704   1.790
  111DPPC    O9 5509   1.477   0.602   1.851
  111DPPC   O10 5510   1.325   0.659   1.664
  111DPPC   O11 5511   1.297   0.781   1.897
  111DPPC   C12 5512   1.383   0.795   2.010
  111DPPC   C13 5513   1.301   0.805   2.139
  111DPPC   O14 5514   1.369   0.872   2.246
  111DPPC   C15 5515   1.297   0.932   2.344
  111DPPC   O16 5516   1.175   0.922   2.336
  111DPPC   C17 5517   1.370   0.981   2.469
  111DPPC   C18 5518   1.427   1.116   2.426
  111DPPC   C19 5519   1.495   1.172   2.551
  111DPPC   C20 5520   1.541   1.316   2.528
  111DPPC   C21 5521   1.438   1.414   2.472
  111DPPC   C22 5522   1.504   1.551   2.460
  111DPPC   C23 5523   1.397   1.653   2.499
  111DPPC   C24 5524   1.322   1.633   2.631
  111DPPC   C25 5525   1.196   1.719   2.624
  111DPPC   C26 5526   1.107   1.708   2.748
  111DPPC   C27 5527   1.008   1.825   2.746
  111DPPC   C28 5528   0.960   1.838   2.891
  111DPPC   C29 5529   0.877   1.966   2.903
  111DPPC   C30 5530   0.822   1.991   3.044
  111DPPC   C31 5531   0.752   1.868   3.101
  111DPPC   C32 5532   1.232   0.669   2.147
  111DPPC   O33 5533   1.319   0.567   2.197
  111DPPC   C34 5534   1.298   0.434   2.176
  111DPPC   O35 5535   1.227   0.405   2.080
  111DPPC   C36 5536   1.365   0.325   2.260
  111DPPC   C37 5537   1.424   0.377   2.392
  111DPPC   C38 5538   1.316   0.443   2.477
  111DPPC   C39 5539   1.363   0.484   2.617
  111DPPC   C40 5540   1.250   0.560   2.688
  111DPPC   C41 5541   1.289   0.609   2.827
  111DPPC   C42 5542   1.313   0.492   2.923
  111DPPC   C43 5543   1.337   0.552   3.062
  111DPPC   C44 5544   1.219   0.617   3.134
  111DPPC   C45 5545   1.264   0.654   3.276
  111DPPC   C46 5546   1.304   0.801   3.285
  111DPPC   C47 5547   1.326   0.847   3.429
  111DPPC   C48 5548   1.348   0.998   3.421
  111DPPC   C49 5549   1.228   1.046   3.338
  111DPPC   C50 5550   1.209   1.196   3.357
  112DPPC    C1 5551   4.942   8.000   1.863
  112DPPC    C2 5552   5.115   8.013   2.018
  112DPPC    C3 5553   4.902   8.020   2.105
  112DPPC    N4 5554   4.981   7.956   1.998
  112DPPC    C5 5555   4.995   7.810   2.005
  112DPPC    C6 5556   4.878   7.711   1.998
  112DPPC    O7 5557   4.772   7.727   2.092
  112DPPC    P8 5558   4.668   7.605   2.085
  112DPPC    O9 5559   4.658   7.551   1.948
  112DPPC   O10 5560   4.547   7.642   2.163
  112DPPC   O11 5561   4.753   7.492   2.162
  112DPPC   C12 5562   4.689   7.470   2.287
  112DPPC   C13 5563   4.761   7.377   2.385
  112DPPC   O14 5564   4.680   7.306   2.480
  112DPPC   C15 5565   4.643   7.185   2.432
  112DPPC   O16 5566   4.665   7.147   2.316
  112DPPC   C17 5567   4.596   7.087   2.539
  112DPPC   C18 5568   4.676   7.096   2.669
  112DPPC   C19 5569   4.627   7.009   2.785
  112DPPC   C20 5570   4.620   6.863   2.741
  112DPPC   C21 5571   4.588   6.785   2.869
  112DPPC   C22 5572   4.448   6.804   2.929
  112DPPC   C23 5573   4.418   6.689   3.026
  112DPPC   C24 5574   4.291   6.725   3.104
  112DPPC   C25 5575   4.171   6.760   3.015
  112DPPC   C26 5576   4.044   6.771   3.100
  112DPPC   C27 5577   3.940   6.842   3.012
  112DPPC   C28 5578   3.831   6.882   3.112
  112DPPC   C29 5579   3.736   6.986   3.053
  112DPPC   C30 5580   3.627   7.034   3.149
  112DPPC   C31 5581   3.514   7.127   3.104
  112DPPC   C32 5582   4.871   7.468   2.440
  112DPPC   O33 5583   4.983   7.404   2.503
  112DPPC   C34 5584   5.096   7.462   2.551
  112DPPC   O35 5585   5.131   7.576   2.524
  112DPPC   C36 5586   5.186   7.369   2.633
  112DPPC   C37 5587   5.231   7.439   2.762
  112DPPC   C38 5588   5.321   7.352   2.850
  112DPPC   C39 5589   5.343   7.428   2.981
  112DPPC   C40 5590   5.426   7.348   3.081
  112DPPC   C41 5591   5.554   7.282   3.030
  112DPPC   C42 5592   5.665   7.387   3.019
  112DPPC   C43 5593   5.762   7.364   3.135
  112DPPC   C44 5594   5.865   7.477   3.127
  112DPPC   C45 5595   5.935   7.476   3.263
  112DPPC   C46 5596   5.996   7.615   3.287
  112DPPC   C47 5597   6.044   7.624   3.432
  112DPPC   C48 5598   5.919   7.613   3.519
  112DPPC   C49 5599   5.968   7.601   3.663
  112DPPC   C50 5600   5.858   7.643   3.760
  113DPPC    C1 5601   0.984   1.497   1.610
  113DPPC    C2 5602   1.046   1.538   1.831
  113DPPC    C3 5603   0.842   1.451   1.785
  113DPPC    N4 5604   0.983   1.438   1.745
  113DPPC    C5 5605   1.032   1.300   1.758
  113DPPC    C6 5606   1.163   1.268   1.685
  113DPPC    O7 5607   1.272   1.349   1.730
  113DPPC    P8 5608   1.413   1.301   1.670
  113DPPC    O9 5609   1.526   1.397   1.672
  113DPPC   O10 5610   1.388   1.225   1.545
  113DPPC   O11 5611   1.433   1.202   1.796
  113DPPC   C12 5612   1.474   1.294   1.897
  113DPPC   C13 5613   1.479   1.234   2.037
  113DPPC   O14 5614   1.585   1.142   2.068
  113DPPC   C15 5615   1.710   1.189   2.093
  113DPPC   O16 5616   1.730   1.304   2.054
  113DPPC   C17 5617   1.809   1.079   2.131
  113DPPC   C18 5618   1.921   1.121   2.227
  113DPPC   C19 5619   1.860   1.127   2.367
  113DPPC   C20 5620   1.972   1.165   2.464
  113DPPC   C21 5621   1.920   1.163   2.607
  113DPPC   C22 5622   2.035   1.170   2.707
  113DPPC   C23 5623   1.979   1.169   2.849
  113DPPC   C24 5624   2.092   1.165   2.953
  113DPPC   C25 5625   2.039   1.152   3.096
  113DPPC   C26 5626   2.131   1.069   3.186
  113DPPC   C27 5627   2.061   1.053   3.321
  113DPPC   C28 5628   1.919   1.000   3.301
  113DPPC   C29 5629   1.903   0.853   3.259
  113DPPC   C30 5630   1.757   0.815   3.286
  113DPPC   C31 5631   1.742   0.665   3.260
  113DPPC   C32 5632   1.345   1.168   2.074
  113DPPC   O33 5633   1.246   1.263   2.113
  113DPPC   C34 5634   1.131   1.195   2.141
  113DPPC   O35 5635   1.099   1.097   2.073
  113DPPC   C36 5636   1.027   1.287   2.204
  113DPPC   C37 5637   0.963   1.224   2.327
  113DPPC   C38 5638   0.850   1.316   2.375
  113DPPC   C39 5639   0.810   1.273   2.516
  113DPPC   C40 5640   0.719   1.380   2.576
  113DPPC   C41 5641   0.650   1.341   2.707
  113DPPC   C42 5642   0.760   1.289   2.801
  113DPPC   C43 5643   0.709   1.290   2.946
  113DPPC   C44 5644   0.581   1.210   2.968
  113DPPC   C45 5645   0.608   1.065   3.009
  113DPPC   C46 5646   0.481   0.987   3.041
  113DPPC   C47 5647   0.521   0.842   3.073
  113DPPC   C48 5648   0.395   0.757   3.090
  113DPPC   C49 5649   0.433   0.614   3.130
  113DPPC   C50 5650   0.297   0.543   3.126
  114DPPC    C1 5651   1.166   3.901   1.834
  114DPPC    C2 5652   1.261   3.966   1.619
  114DPPC    C3 5653   1.207   4.126   1.783
  114DPPC    N4 5654   1.260   3.990   1.764
  114DPPC    C5 5655   1.385   3.967   1.838
  114DPPC    C6 5656   1.517   4.032   1.795
  114DPPC    O7 5657   1.626   3.981   1.872
  114DPPC    P8 5658   1.759   4.049   1.810
  114DPPC    O9 5659   1.723   4.096   1.675
  114DPPC   O10 5660   1.873   3.954   1.818
  114DPPC   O11 5661   1.765   4.167   1.919
  114DPPC   C12 5662   1.804   4.098   2.038
  114DPPC   C13 5663   1.745   4.166   2.161
  114DPPC   O14 5664   1.794   4.106   2.282
  114DPPC   C15 5665   1.908   4.154   2.339
  114DPPC   O16 5666   1.990   4.208   2.265
  114DPPC   C17 5667   1.957   4.091   2.469
  114DPPC   C18 5668   2.042   3.966   2.444
  114DPPC   C19 5669   2.167   3.972   2.532
  114DPPC   C20 5670   2.255   3.848   2.528
  114DPPC   C21 5671   2.354   3.834   2.644
  114DPPC   C22 5672   2.277   3.852   2.775
  114DPPC   C23 5673   2.377   3.887   2.885
  114DPPC   C24 5674   2.299   3.974   2.984
  114DPPC   C25 5675   2.399   4.050   3.071
  114DPPC   C26 5676   2.349   4.127   3.193
  114DPPC   C27 5677   2.459   4.210   3.259
  114DPPC   C28 5678   2.408   4.285   3.382
  114DPPC   C29 5679   2.522   4.359   3.452
  114DPPC   C30 5680   2.599   4.454   3.360
  114DPPC   C31 5681   2.709   4.506   3.452
  114DPPC   C32 5682   1.597   4.138   2.137
  114DPPC   O33 5683   1.505   4.237   2.186
  114DPPC   C34 5684   1.377   4.192   2.191
  114DPPC   O35 5685   1.338   4.123   2.096
  114DPPC   C36 5686   1.275   4.262   2.281
  114DPPC   C37 5687   1.217   4.165   2.385
  114DPPC   C38 5688   1.126   4.238   2.484
  114DPPC   C39 5689   1.068   4.126   2.570
  114DPPC   C40 5690   1.170   4.069   2.669
  114DPPC   C41 5691   1.108   3.966   2.764
  114DPPC   C42 5692   0.995   4.018   2.853
  114DPPC   C43 5693   1.054   4.115   2.956
  114DPPC   C44 5694   0.946   4.192   3.033
  114DPPC   C45 5695   1.011   4.319   3.089
  114DPPC   C46 5696   0.921   4.406   3.176
  114DPPC   C47 5697   0.845   4.501   3.084
  114DPPC   C48 5698   0.692   4.488   3.081
  114DPPC   C49 5699   0.619   4.587   2.990
  114DPPC   C50 5700   0.471   4.548   2.989
  115DPPC    C1 5701   4.051   3.127   2.178
  115DPPC    C2 5702   3.952   3.267   2.017
  115DPPC    C3 5703   3.844   3.239   2.225
  115DPPC    N4 5704   3.976   3.252   2.161
  115DPPC    C5 5705   4.060   3.357   2.220
  115DPPC    C6 5706   4.047   3.498   2.162
  115DPPC    O7 5707   3.927   3.565   2.201
  115DPPC    P8 5708   3.918   3.712   2.137
  115DPPC    O9 5709   3.813   3.677   2.039
  115DPPC   O10 5710   4.063   3.731   2.114
  115DPPC   O11 5711   3.859   3.789   2.265
  115DPPC   C12 5712   3.979   3.810   2.339
  115DPPC   C13 5713   3.974   3.905   2.459
  115DPPC   O14 5714   4.099   3.918   2.529
  115DPPC   C15 5715   4.151   4.043   2.540
  115DPPC   O16 5716   4.103   4.134   2.472
  115DPPC   C17 5717   4.272   4.059   2.632
  115DPPC   C18 5718   4.311   4.207   2.643
  115DPPC   C19 5719   4.454   4.214   2.695
  115DPPC   C20 5720   4.492   4.356   2.735
  115DPPC   C21 5721   4.629   4.368   2.802
  115DPPC   C22 5722   4.629   4.284   2.930
  115DPPC   C23 5723   4.774   4.251   2.967
  115DPPC   C24 5724   4.794   4.238   3.118
  115DPPC   C25 5725   4.934   4.187   3.152
  115DPPC   C26 5726   4.949   4.183   3.304
  115DPPC   C27 5727   5.095   4.163   3.345
  115DPPC   C28 5728   5.118   4.156   3.496
  115DPPC   C29 5729   5.059   4.029   3.557
  115DPPC   C30 5730   5.058   4.035   3.710
  115DPPC   C31 5731   4.934   4.115   3.750
  115DPPC   C32 5732   3.848   3.853   2.528
  115DPPC   O33 5733   3.805   3.930   2.640
  115DPPC   C34 5734   3.749   4.052   2.622
  115DPPC   O35 5735   3.728   4.111   2.516
  115DPPC   C36 5736   3.724   4.123   2.756
  115DPPC   C37 5737   3.832   4.108   2.864
  115DPPC   C38 5738   3.835   3.975   2.939
  115DPPC   C39 5739   3.928   3.996   3.058
  115DPPC   C40 5740   4.063   4.043   3.002
  115DPPC   C41 5741   4.163   4.064   3.116
  115DPPC   C42 5742   4.129   4.187   3.200
  115DPPC   C43 5743   4.213   4.165   3.326
  115DPPC   C44 5744   4.184   4.279   3.424
  115DPPC   C45 5745   4.033   4.293   3.442
  115DPPC   C46 5746   4.001   4.411   3.534
  115DPPC   C47 5747   3.851   4.425   3.557
  115DPPC   C48 5748   3.789   4.546   3.628
  115DPPC   C49 5749   3.638   4.521   3.643
  115DPPC   C50 5750   3.563   4.626   3.724
  116DPPC    C1 5751   6.795   8.431   2.227
  116DPPC    C2 5752   7.017   8.408   2.288
  116DPPC    C3 5753   6.849   8.263   2.370
  116DPPC    N4 5754   6.899   8.329   2.248
  116DPPC    C5 5755   6.927   8.245   2.131
  116DPPC    C6 5756   6.820   8.139   2.105
  116DPPC    O7 5757   6.835   8.019   2.181
  116DPPC    P8 5758   6.715   7.916   2.150
  116DPPC    O9 5759   6.757   7.774   2.154
  116DPPC   O10 5760   6.643   7.970   2.033
  116DPPC   O11 5761   6.630   7.950   2.282
  116DPPC   C12 5762   6.625   7.840   2.374
  116DPPC   C13 5763   6.531   7.863   2.492
  116DPPC   O14 5764   6.395   7.872   2.447
  116DPPC   C15 5765   6.279   7.892   2.514
  116DPPC   O16 5766   6.170   7.887   2.458
  116DPPC   C17 5767   6.294   7.867   2.664
  116DPPC   C18 5768   6.255   7.981   2.759
  116DPPC   C19 5769   6.304   7.938   2.897
  116DPPC   C20 5770   6.272   8.054   2.992
  116DPPC   C21 5771   6.375   8.163   2.963
  116DPPC   C22 5772   6.343   8.283   3.053
  116DPPC   C23 5773   6.334   8.236   3.198
  116DPPC   C24 5774   6.350   8.352   3.297
  116DPPC   C25 5775   6.378   8.316   3.443
  116DPPC   C26 5776   6.269   8.232   3.510
  116DPPC   C27 5777   6.314   8.182   3.647
  116DPPC   C28 5778   6.229   8.062   3.692
  116DPPC   C29 5779   6.262   8.001   3.828
  116DPPC   C30 5780   6.163   7.894   3.873
  116DPPC   C31 5781   6.023   7.949   3.904
  116DPPC   C32 5782   6.585   7.987   2.564
  116DPPC   O33 5783   6.702   7.943   2.633
  116DPPC   C34 5784   6.751   8.044   2.710
  116DPPC   O35 5785   6.681   8.142   2.732
  116DPPC   C36 5786   6.875   8.009   2.793
  116DPPC   C37 5787   6.999   7.982   2.707
  116DPPC   C38 5788   7.118   7.956   2.800
  116DPPC   C39 5789   7.142   8.057   2.912
  116DPPC   C40 5790   7.245   8.018   3.017
  116DPPC   C41 5791   7.374   7.969   2.949
  116DPPC   C42 5792   7.463   8.086   2.905
  116DPPC   C43 5793   7.540   8.162   3.012
  116DPPC   C44 5794   7.677   8.098   3.037
  116DPPC   C45 5795   7.746   8.158   3.160
  116DPPC   C46 5796   7.772   8.307   3.136
  116DPPC   C47 5797   7.874   8.357   3.239
  116DPPC   C48 5798   7.808   8.401   3.370
  116DPPC   C49 5799   7.894   8.503   3.445
  116DPPC   C50 5800   8.028   8.444   3.490
  117DPPC    C1 5801   5.729   4.494   1.957
  117DPPC    C2 5802   5.868   4.533   1.787
  117DPPC    C3 5803   5.915   4.589   2.020
  117DPPC    N4 5804   5.872   4.485   1.926
  117DPPC    C5 5805   5.908   4.344   1.948
  117DPPC    C6 5806   6.035   4.294   1.878
  117DPPC    O7 5807   6.052   4.153   1.890
  117DPPC    P8 5808   6.180   4.115   1.800
  117DPPC    O9 5809   6.167   4.188   1.671
  117DPPC   O10 5810   6.241   3.981   1.808
  117DPPC   O11 5811   6.289   4.202   1.879
  117DPPC   C12 5812   6.342   4.137   1.995
  117DPPC   C13 5813   6.449   4.222   2.065
  117DPPC   O14 5814   6.545   4.149   2.142
  117DPPC   C15 5815   6.643   4.074   2.084
  117DPPC   O16 5816   6.653   4.072   1.962
  117DPPC   C17 5817   6.738   3.991   2.171
  117DPPC   C18 5818   6.697   3.995   2.318
  117DPPC   C19 5819   6.816   3.949   2.402
  117DPPC   C20 5820   6.818   3.983   2.552
  117DPPC   C21 5821   6.883   3.875   2.639
  117DPPC   C22 5822   6.829   3.738   2.601
  117DPPC   C23 5823   6.895   3.625   2.680
  117DPPC   C24 5824   6.876   3.651   2.830
  117DPPC   C25 5825   6.922   3.526   2.904
  117DPPC   C26 5826   6.838   3.405   2.861
  117DPPC   C27 5827   6.751   3.349   2.974
  117DPPC   C28 5828   6.672   3.226   2.929
  117DPPC   C29 5829   6.599   3.172   3.052
  117DPPC   C30 5830   6.478   3.083   3.025
  117DPPC   C31 5831   6.404   3.036   3.150
  117DPPC   C32 5832   6.377   4.338   2.135
  117DPPC   O33 5833   6.281   4.296   2.233
  117DPPC   C34 5834   6.205   4.403   2.271
  117DPPC   O35 5835   6.198   4.496   2.190
  117DPPC   C36 5836   6.106   4.370   2.382
  117DPPC   C37 5837   5.976   4.318   2.321
  117DPPC   C38 5838   5.873   4.301   2.433
  117DPPC   C39 5839   5.869   4.431   2.514
  117DPPC   C40 5840   5.744   4.514   2.488
  117DPPC   C41 5841   5.747   4.626   2.592
  117DPPC   C42 5842   5.752   4.560   2.730
  117DPPC   C43 5843   5.710   4.666   2.833
  117DPPC   C44 5844   5.742   4.618   2.975
  117DPPC   C45 5845   5.733   4.724   3.085
  117DPPC   C46 5846   5.760   4.652   3.217
  117DPPC   C47 5847   5.707   4.749   3.324
  117DPPC   C48 5848   5.755   4.706   3.462
  117DPPC   C49 5849   5.723   4.557   3.462
  117DPPC   C50 5850   5.768   4.503   3.598
  118DPPC    C1 5851   4.689   0.085   1.632
  118DPPC    C2 5852   4.916   0.035   1.659
  118DPPC    C3 5853   4.816   0.265   1.717
  118DPPC    N4 5854   4.807   0.118   1.713
  118DPPC    C5 5855   4.795   0.087   1.856
  118DPPC    C6 5856   4.771  -0.058   1.899
  118DPPC    O7 5857   4.629  -0.077   1.899
  118DPPC    P8 5858   4.599  -0.229   1.943
  118DPPC    O9 5859   4.668  -0.307   1.838
  118DPPC   O10 5860   4.454  -0.245   1.970
  118DPPC   O11 5861   4.680  -0.218   2.081
  118DPPC   C12 5862   4.580  -0.209   2.183
  118DPPC   C13 5863   4.627  -0.194   2.328
  118DPPC   O14 5864   4.643  -0.319   2.396
  118DPPC   C15 5865   4.767  -0.331   2.451
  118DPPC   O16 5866   4.840  -0.232   2.455
  118DPPC   C17 5867   4.799  -0.457   2.532
  118DPPC   C18 5868   4.810  -0.590   2.457
  118DPPC   C19 5869   4.900  -0.680   2.542
  118DPPC   C20 5870   4.833  -0.712   2.676
  118DPPC   C21 5871   4.785  -0.855   2.701
  118DPPC   C22 5872   4.697  -0.876   2.824
  118DPPC   C23 5873   4.620  -1.007   2.842
  118DPPC   C24 5874   4.539  -1.015   2.972
  118DPPC   C25 5875   4.453  -1.140   2.960
  118DPPC   C26 5876   4.347  -1.169   3.066
  118DPPC   C27 5877   4.265  -1.295   3.040
  118DPPC   C28 5878   4.178  -1.330   3.160
  118DPPC   C29 5879   4.254  -1.330   3.293
  118DPPC   C30 5880   4.160  -1.335   3.414
  118DPPC   C31 5881   4.064  -1.452   3.391
  118DPPC   C32 5882   4.530  -0.094   2.391
  118DPPC   O33 5883   4.399  -0.149   2.411
  118DPPC   C34 5884   4.311  -0.051   2.445
  118DPPC   O35 5885   4.341   0.064   2.477
  118DPPC   C36 5886   4.169  -0.101   2.472
  118DPPC   C37 5887   4.185  -0.210   2.578
  118DPPC   C38 5888   4.047  -0.262   2.619
  118DPPC   C39 5889   4.063  -0.369   2.727
  118DPPC   C40 5890   3.920  -0.405   2.767
  118DPPC   C41 5891   3.902  -0.518   2.869
  118DPPC   C42 5892   3.756  -0.515   2.913
  118DPPC   C43 5893   3.719  -0.637   2.997
  118DPPC   C44 5894   3.567  -0.638   3.008
  118DPPC   C45 5895   3.529  -0.754   3.100
  118DPPC   C46 5896   3.376  -0.764   3.100
  118DPPC   C47 5897   3.343  -0.884   3.190
  118DPPC   C48 5898   3.325  -0.835   3.333
  118DPPC   C49 5899   3.215  -0.729   3.347
  118DPPC   C50 5900   3.090  -0.790   3.283
  119DPPC    C1 5901   0.442   6.210   0.656
  119DPPC    C2 5902   0.556   6.115   0.855
  119DPPC    C3 5903   0.619   6.325   0.763
  119DPPC    N4 5904   0.506   6.234   0.786
  119DPPC    C5 5905   0.413   6.300   0.879
  119DPPC    C6 5906   0.270   6.248   0.892
  119DPPC    O7 5907   0.209   6.296   1.012
  119DPPC    P8 5908   0.083   6.199   1.039
  119DPPC    O9 5909   0.129   6.060   1.019
  119DPPC   O10 5910  -0.023   6.266   0.961
  119DPPC   O11 5911   0.063   6.212   1.198
  119DPPC   C12 5912   0.163   6.122   1.246
  119DPPC   C13 5913   0.209   6.155   1.388
  119DPPC   O14 5914   0.123   6.126   1.500
  119DPPC   C15 5915   0.149   6.003   1.551
  119DPPC   O16 5916   0.248   5.943   1.510
  119DPPC   C17 5917   0.052   5.938   1.650
  119DPPC   C18 5918   0.080   5.976   1.796
  119DPPC   C19 5919   0.030   6.111   1.847
  119DPPC   C20 5920   0.114   6.126   1.974
  119DPPC   C21 5921   0.084   6.264   2.033
  119DPPC   C22 5922   0.167   6.270   2.161
  119DPPC   C23 5923   0.125   6.383   2.255
  119DPPC   C24 5924   0.183   6.363   2.395
  119DPPC   C25 5925   0.335   6.376   2.395
  119DPPC   C26 5926   0.378   6.370   2.541
  119DPPC   C27 5927   0.527   6.364   2.575
  119DPPC   C28 5928   0.620   6.457   2.496
  119DPPC   C29 5929   0.752   6.460   2.572
  119DPPC   C30 5930   0.728   6.501   2.718
  119DPPC   C31 5931   0.854   6.480   2.802
  119DPPC   C32 5932   0.256   6.300   1.374
  119DPPC   O33 5933   0.283   6.360   1.501
  119DPPC   C34 5934   0.294   6.495   1.501
  119DPPC   O35 5935   0.284   6.546   1.390
  119DPPC   C36 5936   0.278   6.579   1.628
  119DPPC   C37 5937   0.301   6.505   1.760
  119DPPC   C38 5938   0.273   6.587   1.886
  119DPPC   C39 5939   0.361   6.712   1.895
  119DPPC   C40 5940   0.359   6.790   2.027
  119DPPC   C41 5941   0.409   6.680   2.121
  119DPPC   C42 5942   0.359   6.728   2.257
  119DPPC   C43 5943   0.439   6.854   2.292
  119DPPC   C44 5944   0.385   6.908   2.424
  119DPPC   C45 5945   0.433   7.047   2.465
  119DPPC   C46 5946   0.373   7.087   2.600
  119DPPC   C47 5947   0.243   7.165   2.583
  119DPPC   C48 5948   0.182   7.205   2.718
  119DPPC   C49 5949   0.282   7.276   2.809
  119DPPC   C50 5950   0.243   7.276   2.957
  120DPPC    C1 5951   4.137   6.472   2.132
  120DPPC    C2 5952   3.939   6.563   2.026
  120DPPC    C3 5953   3.910   6.399   2.190
  120DPPC    N4 5954   3.996   6.511   2.151
  120DPPC    C5 5955   3.995   6.614   2.256
  120DPPC    C6 5956   4.088   6.735   2.259
  120DPPC    O7 5957   4.072   6.821   2.372
  120DPPC    P8 5958   4.209   6.903   2.396
  120DPPC    O9 5959   4.191   7.006   2.501
  120DPPC   O10 5960   4.252   6.938   2.259
  120DPPC   O11 5961   4.297   6.784   2.459
  120DPPC   C12 5962   4.254   6.765   2.594
  120DPPC   C13 5963   4.173   6.637   2.610
  120DPPC   O14 5964   4.059   6.653   2.697
  120DPPC   C15 5965   3.937   6.624   2.644
  120DPPC   O16 5966   3.919   6.558   2.542
  120DPPC   C17 5967   3.812   6.635   2.732
  120DPPC   C18 5968   3.789   6.499   2.797
  120DPPC   C19 5969   3.654   6.480   2.868
  120DPPC   C20 5970   3.632   6.586   2.976
  120DPPC   C21 5971   3.487   6.586   3.026
  120DPPC   C22 5972   3.484   6.692   3.137
  120DPPC   C23 5973   3.344   6.689   3.200
  120DPPC   C24 5974   3.331   6.810   3.293
  120DPPC   C25 5975   3.206   6.787   3.378
  120DPPC   C26 5976   3.209   6.651   3.449
  120DPPC   C27 5977   3.070   6.611   3.498
  120DPPC   C28 5978   3.071   6.622   3.650
  120DPPC   C29 5979   2.949   6.564   3.723
  120DPPC   C30 5980   2.847   6.674   3.752
  120DPPC   C31 5981   2.726   6.629   3.835
  120DPPC   C32 5982   4.251   6.506   2.628
  120DPPC   O33 5983   4.368   6.515   2.710
  120DPPC   C34 5984   4.429   6.395   2.725
  120DPPC   O35 5985   4.389   6.297   2.661
  120DPPC   C36 5986   4.549   6.366   2.817
  120DPPC   C37 5987   4.510   6.355   2.964
  120DPPC   C38 5988   4.626   6.327   3.059
  120DPPC   C39 5989   4.718   6.450   3.052
  120DPPC   C40 5990   4.842   6.446   3.141
  120DPPC   C41 5991   4.903   6.586   3.157
  120DPPC   C42 5992   4.933   6.652   3.023
  120DPPC   C43 5993   4.967   6.800   3.039
  120DPPC   C44 5994   4.975   6.866   2.901
  120DPPC   C45 5995   5.012   7.014   2.905
  120DPPC   C46 5996   4.935   7.099   3.007
  120DPPC   C47 5997   5.017   7.225   3.036
  120DPPC   C48 5998   4.940   7.321   3.127
  120DPPC   C49 5999   5.037   7.432   3.166
  120DPPC   C50 6000   4.971   7.534   3.259
  121DPPC    C1 6001   7.243   3.182   2.266
  121DPPC    C2 6002   7.293   2.997   2.397
  121DPPC    C3 6003   7.135   2.972   2.211
  121DPPC    N4 6004   7.258   3.036   2.260
  121DPPC    C5 6005   7.367   2.988   2.174
  121DPPC    C6 6006   7.400   3.060   2.043
  121DPPC    O7 6007   7.528   3.011   2.002
  121DPPC    P8 6008   7.570   3.057   1.854
  121DPPC    O9 6009   7.457   3.108   1.774
  121DPPC   O10 6010   7.665   2.960   1.794
  121DPPC   O11 6011   7.666   3.180   1.898
  121DPPC   C12 6012   7.780   3.134   1.971
  121DPPC   C13 6013   7.819   3.214   2.096
  121DPPC   O14 6014   7.942   3.173   2.158
  121DPPC   C15 6015   8.043   3.264   2.160
  121DPPC   O16 6016   8.048   3.353   2.074
  121DPPC   C17 6017   8.163   3.241   2.251
  121DPPC   C18 6018   8.159   3.335   2.373
  121DPPC   C19 6019   8.054   3.285   2.472
  121DPPC   C20 6020   8.073   3.361   2.604
  121DPPC   C21 6021   8.025   3.284   2.728
  121DPPC   C22 6022   8.058   3.373   2.849
  121DPPC   C23 6023   7.979   3.333   2.974
  121DPPC   C24 6024   7.831   3.363   2.951
  121DPPC   C25 6025   7.749   3.314   3.070
  121DPPC   C26 6026   7.801   3.367   3.204
  121DPPC   C27 6027   7.754   3.509   3.234
  121DPPC   C28 6028   7.831   3.561   3.356
  121DPPC   C29 6029   7.973   3.580   3.303
  121DPPC   C30 6030   8.066   3.624   3.416
  121DPPC   C31 6031   8.071   3.524   3.532
  121DPPC   C32 6032   7.709   3.200   2.202
  121DPPC   O33 6033   7.706   3.312   2.290
  121DPPC   C34 6034   7.623   3.290   2.395
  121DPPC   O35 6035   7.516   3.229   2.382
  121DPPC   C36 6036   7.660   3.355   2.529
  121DPPC   C37 6037   7.674   3.505   2.507
  121DPPC   C38 6038   7.751   3.574   2.620
  121DPPC   C39 6039   7.781   3.723   2.604
  121DPPC   C40 6040   7.864   3.757   2.728
  121DPPC   C41 6041   7.909   3.903   2.716
  121DPPC   C42 6042   7.978   3.940   2.848
  121DPPC   C43 6043   7.882   3.925   2.967
  121DPPC   C44 6044   7.945   3.992   3.089
  121DPPC   C45 6045   7.850   4.006   3.209
  121DPPC   C46 6046   7.935   4.067   3.321
  121DPPC   C47 6047   7.861   4.084   3.454
  121DPPC   C48 6048   7.961   4.113   3.566
  121DPPC   C49 6049   7.894   4.122   3.703
  121DPPC   C50 6050   8.004   4.176   3.795
  122DPPC    C1 6051   6.909   6.523   1.655
  122DPPC    C2 6052   7.142   6.537   1.608
  122DPPC    C3 6053   6.988   6.683   1.511
  122DPPC    N4 6054   7.021   6.616   1.637
  122DPPC    C5 6055   7.025   6.702   1.757
  122DPPC    C6 6056   7.146   6.791   1.784
  122DPPC    O7 6057   7.159   6.905   1.699
  122DPPC    P8 6058   7.319   6.924   1.705
  122DPPC    O9 6059   7.340   7.050   1.630
  122DPPC   O10 6060   7.370   6.790   1.672
  122DPPC   O11 6061   7.338   6.969   1.859
  122DPPC   C12 6062   7.279   7.092   1.903
  122DPPC   C13 6063   7.330   7.133   2.042
  122DPPC   O14 6064   7.468   7.161   2.065
  122DPPC   C15 6065   7.520   7.281   2.028
  122DPPC   O16 6066   7.455   7.363   1.962
  122DPPC   C17 6067   7.647   7.322   2.102
  122DPPC   C18 6068   7.632   7.313   2.254
  122DPPC   C19 6069   7.768   7.362   2.305
  122DPPC   C20 6070   7.761   7.368   2.457
  122DPPC   C21 6071   7.903   7.368   2.516
  122DPPC   C22 6072   7.970   7.231   2.521
  122DPPC   C23 6073   8.107   7.245   2.588
  122DPPC   C24 6074   8.130   7.104   2.643
  122DPPC   C25 6075   8.248   7.091   2.739
  122DPPC   C26 6076   8.249   6.943   2.780
  122DPPC   C27 6077   8.344   6.928   2.899
  122DPPC   C28 6078   8.310   7.034   3.003
  122DPPC   C29 6079   8.383   7.011   3.136
  122DPPC   C30 6080   8.372   7.137   3.221
  122DPPC   C31 6081   8.418   7.118   3.366
  122DPPC   C32 6082   7.290   7.009   2.122
  122DPPC   O33 6083   7.147   7.008   2.129
  122DPPC   C34 6084   7.089   6.910   2.203
  122DPPC   O35 6085   7.143   6.800   2.205
  122DPPC   C36 6086   6.939   6.927   2.230
  122DPPC   C37 6087   6.911   6.901   2.378
  122DPPC   C38 6088   6.894   6.751   2.399
  122DPPC   C39 6089   6.864   6.730   2.548
  122DPPC   C40 6090   6.985   6.763   2.636
  122DPPC   C41 6091   6.946   6.738   2.781
  122DPPC   C42 6092   7.057   6.758   2.885
  122DPPC   C43 6093   7.111   6.900   2.895
  122DPPC   C44 6094   7.247   6.912   2.965
  122DPPC   C45 6095   7.232   6.850   3.105
  122DPPC   C46 6096   7.362   6.862   3.184
  122DPPC   C47 6097   7.388   6.742   3.276
  122DPPC   C48 6098   7.513   6.754   3.365
  122DPPC   C49 6099   7.633   6.704   3.285
  122DPPC   C50 6100   7.757   6.748   3.364
  123DPPC    C1 6101   8.133   8.059   1.893
  123DPPC    C2 6102   7.949   8.164   1.809
  123DPPC    C3 6103   8.064   8.055   1.663
  123DPPC    N4 6104   8.020   8.035   1.802
  123DPPC    C5 6105   7.940   7.914   1.825
  123DPPC    C6 6106   8.010   7.780   1.803
  123DPPC    O7 6107   7.920   7.671   1.782
  123DPPC    P8 6108   8.008   7.555   1.712
  123DPPC    O9 6109   8.070   7.642   1.609
  123DPPC   O10 6110   7.909   7.448   1.687
  123DPPC   O11 6111   8.097   7.527   1.844
  123DPPC   C12 6112   8.046   7.401   1.891
  123DPPC   C13 6113   8.128   7.361   2.014
  123DPPC   O14 6114   8.068   7.241   2.064
  123DPPC   C15 6115   8.131   7.125   2.031
  123DPPC   O16 6116   8.202   7.118   1.932
  123DPPC   C17 6117   8.060   6.997   2.077
  123DPPC   C18 6118   8.158   6.900   2.142
  123DPPC   C19 6119   8.088   6.777   2.201
  123DPPC   C20 6120   8.191   6.704   2.287
  123DPPC   C21 6121   8.184   6.739   2.436
  123DPPC   C22 6122   8.092   6.657   2.527
  123DPPC   C23 6123   8.106   6.506   2.506
  123DPPC   C24 6124   7.989   6.451   2.589
  123DPPC   C25 6125   7.968   6.300   2.578
  123DPPC   C26 6126   7.851   6.253   2.666
  123DPPC   C27 6127   7.807   6.110   2.635
  123DPPC   C28 6128   7.713   6.048   2.738
  123DPPC   C29 6129   7.799   6.045   2.864
  123DPPC   C30 6130   7.746   5.961   2.981
  123DPPC   C31 6131   7.823   5.979   3.112
  123DPPC   C32 6132   8.111   7.480   2.108
  123DPPC   O33 6133   8.234   7.524   2.167
  123DPPC   C34 6134   8.210   7.624   2.256
  123DPPC   O35 6135   8.118   7.625   2.337
  123DPPC   C36 6136   8.342   7.702   2.268
  123DPPC   C37 6137   8.380   7.734   2.412
  123DPPC   C38 6138   8.415   7.610   2.495
  123DPPC   C39 6139   8.425   7.635   2.645
  123DPPC   C40 6140   8.461   7.510   2.725
  123DPPC   C41 6141   8.435   7.528   2.875
  123DPPC   C42 6142   8.299   7.474   2.918
  123DPPC   C43 6143   8.300   7.514   3.065
  123DPPC   C44 6144   8.160   7.494   3.123
  123DPPC   C45 6145   8.161   7.526   3.273
  123DPPC   C46 6146   8.217   7.668   3.279
  123DPPC   C47 6147   8.236   7.688   3.429
  123DPPC   C48 6148   8.302   7.563   3.489
  123DPPC   C49 6149   8.351   7.588   3.632
  123DPPC   C50 6150   8.241   7.604   3.738
  124DPPC    C1 6151   6.370   3.338   2.169
  124DPPC    C2 6152   6.346   3.178   2.333
  124DPPC    C3 6153   6.167   3.216   2.174
  124DPPC    N4 6154   6.312   3.205   2.193
  124DPPC    C5 6155   6.361   3.104   2.098
  124DPPC    C6 6156   6.510   3.104   2.064
  124DPPC    O7 6157   6.605   3.108   2.171
  124DPPC    P8 6158   6.753   3.106   2.108
  124DPPC    O9 6159   6.740   3.172   1.976
  124DPPC   O10 6160   6.837   2.984   2.118
  124DPPC   O11 6161   6.813   3.203   2.221
  124DPPC   C12 6162   6.827   3.141   2.349
  124DPPC   C13 6163   6.863   3.238   2.461
  124DPPC   O14 6164   6.858   3.174   2.590
  124DPPC   C15 6165   6.964   3.095   2.621
  124DPPC   O16 6166   7.053   3.082   2.538
  124DPPC   C17 6167   6.978   3.029   2.759
  124DPPC   C18 6168   7.120   3.034   2.816
  124DPPC   C19 6169   7.121   2.999   2.965
  124DPPC   C20 6170   7.031   3.085   3.054
  124DPPC   C21 6171   7.041   3.040   3.200
  124DPPC   C22 6172   6.961   3.123   3.300
  124DPPC   C23 6173   6.959   3.072   3.444
  124DPPC   C24 6174   6.833   3.134   3.504
  124DPPC   C25 6175   6.712   3.110   3.414
  124DPPC   C26 6176   6.582   3.147   3.485
  124DPPC   C27 6177   6.574   3.299   3.485
  124DPPC   C28 6178   6.457   3.332   3.577
  124DPPC   C29 6179   6.457   3.465   3.654
  124DPPC   C30 6180   6.345   3.463   3.758
  124DPPC   C31 6181   6.390   3.422   3.899
  124DPPC   C32 6182   6.776   3.363   2.452
  124DPPC   O33 6183   6.633   3.367   2.462
  124DPPC   C34 6184   6.594   3.497   2.451
  124DPPC   O35 6185   6.643   3.564   2.361
  124DPPC   C36 6186   6.488   3.546   2.550
  124DPPC   C37 6187   6.479   3.461   2.677
  124DPPC   C38 6188   6.364   3.509   2.766
  124DPPC   C39 6189   6.346   3.414   2.884
  124DPPC   C40 6190   6.208   3.428   2.949
  124DPPC   C41 6191   6.196   3.375   3.092
  124DPPC   C42 6192   6.048   3.359   3.129
  124DPPC   C43 6193   6.021   3.335   3.278
  124DPPC   C44 6194   5.987   3.187   3.295
  124DPPC   C45 6195   5.970   3.169   3.446
  124DPPC   C46 6196   5.983   3.019   3.471
  124DPPC   C47 6197   5.951   2.989   3.617
  124DPPC   C48 6198   5.959   2.838   3.644
  124DPPC   C49 6199   5.866   2.795   3.757
  124DPPC   C50 6200   5.890   2.646   3.782
  125DPPC    C1 6201   2.427   0.014   1.562
  125DPPC    C2 6202   2.299   0.129   1.730
  125DPPC    C3 6203   2.200   0.041   1.542
  125DPPC    N4 6204   2.304   0.012   1.641
  125DPPC    C5 6205   2.287  -0.108   1.726
  125DPPC    C6 6206   2.291  -0.243   1.654
  125DPPC    O7 6207   2.166  -0.278   1.593
  125DPPC    P8 6208   2.187  -0.402   1.494
  125DPPC    O9 6209   2.318  -0.378   1.429
  125DPPC   O10 6210   2.061  -0.415   1.417
  125DPPC   O11 6211   2.189  -0.504   1.619
  125DPPC   C12 6212   2.053  -0.545   1.638
  125DPPC   C13 6213   2.026  -0.607   1.775
  125DPPC   O14 6214   1.949  -0.526   1.864
  125DPPC   C15 6215   1.817  -0.517   1.831
  125DPPC   O16 6216   1.753  -0.600   1.766
  125DPPC   C17 6217   1.751  -0.410   1.918
  125DPPC   C18 6218   1.686  -0.479   2.038
  125DPPC   C19 6219   1.607  -0.373   2.114
  125DPPC   C20 6220   1.686  -0.285   2.211
  125DPPC   C21 6221   1.596  -0.175   2.268
  125DPPC   C22 6222   1.673  -0.106   2.381
  125DPPC   C23 6223   1.570  -0.021   2.457
  125DPPC   C24 6224   1.452  -0.115   2.479
  125DPPC   C25 6225   1.338  -0.049   2.558
  125DPPC   C26 6226   1.379   0.005   2.695
  125DPPC   C27 6227   1.271   0.092   2.758
  125DPPC   C28 6228   1.160  -0.003   2.804
  125DPPC   C29 6229   1.033   0.078   2.828
  125DPPC   C30 6230   0.916  -0.003   2.885
  125DPPC   C31 6231   0.796   0.091   2.899
  125DPPC   C32 6232   2.163  -0.637   1.837
  125DPPC   O33 6233   2.167  -0.711   1.959
  125DPPC   C34 6234   2.291  -0.732   2.013
  125DPPC   O35 6235   2.389  -0.737   1.939
  125DPPC   C36 6236   2.287  -0.785   2.156
  125DPPC   C37 6237   2.198  -0.699   2.246
  125DPPC   C38 6238   2.267  -0.569   2.288
  125DPPC   C39 6239   2.407  -0.604   2.340
  125DPPC   C40 6240   2.485  -0.474   2.364
  125DPPC   C41 6241   2.413  -0.371   2.450
  125DPPC   C42 6242   2.512  -0.269   2.507
  125DPPC   C43 6243   2.422  -0.174   2.587
  125DPPC   C44 6244   2.508  -0.058   2.637
  125DPPC   C45 6245   2.575   0.021   2.525
  125DPPC   C46 6246   2.632   0.151   2.581
  125DPPC   C47 6247   2.512   0.211   2.655
  125DPPC   C48 6248   2.544   0.348   2.714
  125DPPC   C49 6249   2.432   0.382   2.812
  125DPPC   C50 6250   2.484   0.492   2.905
  126DPPC    C1 6251   6.584   3.752   1.806
  126DPPC    C2 6252   6.550   3.911   1.646
  126DPPC    C3 6253   6.607   3.696   1.563
  126DPPC    N4 6254   6.533   3.766   1.669
  126DPPC    C5 6255   6.390   3.738   1.653
  126DPPC    C6 6256   6.334   3.606   1.708
  126DPPC    O7 6257   6.196   3.576   1.690
  126DPPC    P8 6258   6.127   3.442   1.746
  126DPPC    O9 6259   6.234   3.370   1.819
  126DPPC   O10 6260   6.060   3.400   1.621
  126DPPC   O11 6261   6.031   3.515   1.852
  126DPPC   C12 6262   6.083   3.565   1.976
  126DPPC   C13 6263   6.135   3.708   1.968
  126DPPC   O14 6264   6.192   3.754   2.092
  126DPPC   C15 6265   6.320   3.722   2.124
  126DPPC   O16 6266   6.387   3.639   2.062
  126DPPC   C17 6267   6.369   3.799   2.246
  126DPPC   C18 6268   6.248   3.847   2.327
  126DPPC   C19 6269   6.289   3.873   2.472
  126DPPC   C20 6270   6.185   3.944   2.559
  126DPPC   C21 6271   6.224   3.956   2.706
  126DPPC   C22 6272   6.118   4.032   2.786
  126DPPC   C23 6273   6.113   4.180   2.748
  126DPPC   C24 6274   6.022   4.248   2.850
  126DPPC   C25 6275   6.085   4.242   2.990
  126DPPC   C26 6276   6.014   4.335   3.089
  126DPPC   C27 6277   6.088   4.353   3.221
  126DPPC   C28 6278   6.221   4.430   3.220
  126DPPC   C29 6279   6.294   4.404   3.352
  126DPPC   C30 6280   6.307   4.253   3.372
  126DPPC   C31 6281   6.347   4.215   3.515
  126DPPC   C32 6282   6.015   3.787   1.915
  126DPPC   O33 6283   5.905   3.786   2.005
  126DPPC   C34 6284   5.806   3.872   1.968
  126DPPC   O35 6285   5.794   3.911   1.852
  126DPPC   C36 6286   5.695   3.876   2.073
  126DPPC   C37 6287   5.729   3.956   2.199
  126DPPC   C38 6288   5.625   3.965   2.310
  126DPPC   C39 6289   5.695   3.997   2.442
  126DPPC   C40 6290   5.590   4.049   2.540
  126DPPC   C41 6291   5.665   4.072   2.671
  126DPPC   C42 6292   5.576   4.120   2.785
  126DPPC   C43 6293   5.659   4.128   2.914
  126DPPC   C44 6294   5.564   4.182   3.020
  126DPPC   C45 6295   5.624   4.155   3.158
  126DPPC   C46 6296   5.524   4.187   3.270
  126DPPC   C47 6297   5.587   4.169   3.408
  126DPPC   C48 6298   5.481   4.166   3.518
  126DPPC   C49 6299   5.547   4.152   3.655
  126DPPC   C50 6300   5.446   4.123   3.766
  127DPPC    C1 6301   2.239   6.172   1.352
  127DPPC    C2 6302   2.416   6.255   1.484
  127DPPC    C3 6303   2.417   6.241   1.236
  127DPPC    N4 6304   2.343   6.276   1.358
  127DPPC    C5 6305   2.261   6.397   1.352
  127DPPC    C6 6306   2.338   6.527   1.378
  127DPPC    O7 6307   2.241   6.624   1.416
  127DPPC    P8 6308   2.312   6.761   1.463
  127DPPC    O9 6309   2.292   6.851   1.347
  127DPPC   O10 6310   2.448   6.737   1.517
  127DPPC   O11 6311   2.214   6.819   1.577
  127DPPC   C12 6312   2.228   6.747   1.700
  127DPPC   C13 6313   2.181   6.817   1.828
  127DPPC   O14 6314   2.205   6.744   1.949
  127DPPC   C15 6315   2.326   6.727   2.008
  127DPPC   O16 6316   2.424   6.760   1.942
  127DPPC   C17 6317   2.338   6.700   2.159
  127DPPC   C18 6318   2.477   6.645   2.193
  127DPPC   C19 6319   2.490   6.619   2.343
  127DPPC   C20 6320   2.632   6.571   2.374
  127DPPC   C21 6321   2.641   6.555   2.526
  127DPPC   C22 6322   2.636   6.689   2.598
  127DPPC   C23 6323   2.643   6.670   2.750
  127DPPC   C24 6324   2.769   6.606   2.808
  127DPPC   C25 6325   2.763   6.618   2.960
  127DPPC   C26 6326   2.895   6.553   3.002
  127DPPC   C27 6327   2.893   6.527   3.152
  127DPPC   C28 6328   2.787   6.422   3.187
  127DPPC   C29 6329   2.811   6.372   3.329
  127DPPC   C30 6330   2.698   6.271   3.351
  127DPPC   C31 6331   2.706   6.212   3.492
  127DPPC   C32 6332   2.033   6.840   1.796
  127DPPC   O33 6333   1.953   6.939   1.860
  127DPPC   C34 6334   1.862   6.998   1.778
  127DPPC   O35 6335   1.864   6.972   1.657
  127DPPC   C36 6336   1.765   7.098   1.840
  127DPPC   C37 6337   1.718   7.040   1.974
  127DPPC   C38 6338   1.586   7.109   2.011
  127DPPC   C39 6339   1.539   7.074   2.152
  127DPPC   C40 6340   1.408   7.144   2.189
  127DPPC   C41 6341   1.332   7.084   2.307
  127DPPC   C42 6342   1.423   7.101   2.429
  127DPPC   C43 6343   1.359   7.041   2.555
  127DPPC   C44 6344   1.448   7.090   2.670
  127DPPC   C45 6345   1.596   7.055   2.657
  127DPPC   C46 6346   1.655   7.105   2.789
  127DPPC   C47 6347   1.798   7.050   2.791
  127DPPC   C48 6348   1.846   7.057   2.936
  127DPPC   C49 6349   1.839   7.202   2.984
  127DPPC   C50 6350   1.915   7.220   3.115
  128DPPC    C1 6351   2.061   3.988   1.512
  128DPPC    C2 6352   1.856   3.871   1.496
  128DPPC    C3 6353   2.046   3.785   1.381
  128DPPC    N4 6354   2.002   3.854   1.503
  128DPPC    C5 6355   2.035   3.778   1.624
  128DPPC    C6 6356   2.178   3.726   1.639
  128DPPC    O7 6357   2.237   3.766   1.763
  128DPPC    P8 6358   2.395   3.791   1.742
  128DPPC    O9 6359   2.405   3.939   1.749
  128DPPC   O10 6360   2.456   3.709   1.634
  128DPPC   O11 6361   2.445   3.718   1.876
  128DPPC   C12 6362   2.479   3.581   1.857
  128DPPC   C13 6363   2.487   3.498   1.985
  128DPPC   O14 6364   2.393   3.390   1.991
  128DPPC   C15 6365   2.448   3.276   2.039
  128DPPC   O16 6366   2.559   3.245   1.994
  128DPPC   C17 6367   2.353   3.168   2.092
  128DPPC   C18 6368   2.402   3.125   2.230
  128DPPC   C19 6369   2.395   3.237   2.334
  128DPPC   C20 6370   2.389   3.191   2.480
  128DPPC   C21 6371   2.349   3.301   2.579
  128DPPC   C22 6372   2.377   3.259   2.724
  128DPPC   C23 6373   2.363   3.381   2.815
  128DPPC   C24 6374   2.361   3.339   2.962
  128DPPC   C25 6375   2.322   3.464   3.042
  128DPPC   C26 6376   2.437   3.559   3.076
  128DPPC   C27 6377   2.386   3.630   3.201
  128DPPC   C28 6378   2.506   3.693   3.272
  128DPPC   C29 6379   2.606   3.583   3.305
  128DPPC   C30 6380   2.710   3.641   3.401
  128DPPC   C31 6381   2.646   3.686   3.533
  128DPPC   C32 6382   2.472   3.590   2.106
  128DPPC   O33 6383   2.540   3.541   2.222
  128DPPC   C34 6384   2.576   3.643   2.305
  128DPPC   O35 6385   2.562   3.763   2.281
  128DPPC   C36 6386   2.612   3.598   2.447
  128DPPC   C37 6387   2.668   3.708   2.537
  128DPPC   C38 6388   2.685   3.643   2.674
  128DPPC   C39 6389   2.730   3.748   2.775
  128DPPC   C40 6390   2.805   3.678   2.888
  128DPPC   C41 6391   2.871   3.771   2.990
  128DPPC   C42 6392   2.976   3.691   3.067
  128DPPC   C43 6393   3.051   3.795   3.151
  128DPPC   C44 6394   3.074   3.718   3.281
  128DPPC   C45 6395   3.148   3.807   3.382
  128DPPC   C46 6396   3.277   3.861   3.321
  128DPPC   C47 6397   3.357   3.929   3.433
  128DPPC   C48 6398   3.483   3.979   3.362
  128DPPC   C49 6399   3.576   4.049   3.461
  128DPPC   C50 6400   3.697   4.107   3.387
  129DPPC    C1 6401   2.789   2.158   5.702
  129DPPC    C2 6402   2.701   2.132   5.929
  129DPPC    C3 6403   2.740   2.343   5.829
  129DPPC    N4 6404   2.694   2.206   5.802
  129DPPC    C5 6405   2.553   2.203   5.759
  129DPPC    C6 6406   2.496   2.082   5.685
  129DPPC    O7 6407   2.393   2.113   5.591
  129DPPC    P8 6408   2.301   1.984   5.563
  129DPPC    O9 6409   2.207   2.053   5.472
  129DPPC   O10 6410   2.254   1.942   5.696
  129DPPC   O11 6411   2.403   1.878   5.498
  129DPPC   C12 6412   2.439   1.938   5.373
  129DPPC   C13 6413   2.586   1.907   5.345
  129DPPC   O14 6414   2.639   1.989   5.240
  129DPPC   C15 6415   2.695   2.109   5.270
  129DPPC   O16 6416   2.652   2.164   5.371
  129DPPC   C17 6417   2.766   2.195   5.165
  129DPPC   C18 6418   2.693   2.325   5.134
  129DPPC   C19 6419   2.721   2.378   4.993
  129DPPC   C20 6420   2.677   2.265   4.899
  129DPPC   C21 6421   2.705   2.305   4.754
  129DPPC   C22 6422   2.635   2.202   4.665
  129DPPC   C23 6423   2.591   2.270   4.535
  129DPPC   C24 6424   2.552   2.166   4.431
  129DPPC   C25 6425   2.526   2.225   4.292
  129DPPC   C26 6426   2.535   2.118   4.183
  129DPPC   C27 6427   2.538   2.183   4.045
  129DPPC   C28 6428   2.560   2.070   3.944
  129DPPC   C29 6429   2.579   2.130   3.804
  129DPPC   C30 6430   2.558   2.021   3.700
  129DPPC   C31 6431   2.600   2.080   3.565
  129DPPC   C32 6432   2.598   1.757   5.320
  129DPPC   O33 6433   2.487   1.711   5.243
  129DPPC   C34 6434   2.496   1.577   5.218
  129DPPC   O35 6435   2.593   1.518   5.265
  129DPPC   C36 6436   2.390   1.509   5.133
  129DPPC   C37 6437   2.433   1.371   5.082
  129DPPC   C38 6438   2.556   1.394   4.993
  129DPPC   C39 6439   2.595   1.254   4.944
  129DPPC   C40 6440   2.496   1.193   4.845
  129DPPC   C41 6441   2.578   1.083   4.777
  129DPPC   C42 6442   2.508   1.030   4.651
  129DPPC   C43 6443   2.582   0.903   4.608
  129DPPC   C44 6444   2.497   0.825   4.508
  129DPPC   C45 6445   2.585   0.723   4.435
  129DPPC   C46 6446   2.509   0.657   4.319
  129DPPC   C47 6447   2.603   0.561   4.246
  129DPPC   C48 6448   2.544   0.534   4.107
  129DPPC   C49 6449   2.639   0.451   4.021
  129DPPC   C50 6450   2.582   0.385   3.895
  130DPPC    C1 6451   0.679   7.666   1.320
  130DPPC    C2 6452   0.856   7.829   1.318
  130DPPC    C3 6453   0.627   7.893   1.337
  130DPPC    N4 6454   0.727   7.793   1.377
  130DPPC    C5 6455   0.711   7.789   1.523
  130DPPC    C6 6456   0.785   7.680   1.600
  130DPPC    O7 6457   0.695   7.588   1.662
  130DPPC    P8 6458   0.766   7.524   1.791
  130DPPC    O9 6459   0.897   7.589   1.808
  130DPPC   O10 6460   0.747   7.377   1.790
  130DPPC   O11 6461   0.660   7.588   1.894
  130DPPC   C12 6462   0.727   7.693   1.966
  130DPPC   C13 6463   0.641   7.757   2.075
  130DPPC   O14 6464   0.730   7.794   2.181
  130DPPC   C15 6465   0.819   7.897   2.178
  130DPPC   O16 6466   0.805   7.979   2.087
  130DPPC   C17 6467   0.905   7.911   2.304
  130DPPC   C18 6468   0.852   8.010   2.408
  130DPPC   C19 6469   0.864   7.944   2.545
  130DPPC   C20 6470   1.005   7.887   2.565
  130DPPC   C21 6471   1.095   8.009   2.590
  130DPPC   C22 6472   1.243   7.968   2.590
  130DPPC   C23 6473   1.309   8.073   2.679
  130DPPC   C24 6474   1.323   8.030   2.825
  130DPPC   C25 6475   1.440   7.932   2.839
  130DPPC   C26 6476   1.453   7.885   2.984
  130DPPC   C27 6477   1.496   7.989   3.088
  130DPPC   C28 6478   1.504   7.951   3.236
  130DPPC   C29 6479   1.610   7.840   3.235
  130DPPC   C30 6480   1.623   7.780   3.375
  130DPPC   C31 6481   1.492   7.773   3.453
  130DPPC   C32 6482   0.539   7.650   2.115
  130DPPC   O33 6483   0.423   7.705   2.178
  130DPPC   C34 6484   0.350   7.605   2.235
  130DPPC   O35 6485   0.370   7.486   2.212
  130DPPC   C36 6486   0.220   7.651   2.301
  130DPPC   C37 6487   0.166   7.546   2.399
  130DPPC   C38 6488   0.021   7.562   2.444
  130DPPC   C39 6489  -0.012   7.699   2.504
  130DPPC   C40 6490  -0.143   7.716   2.581
  130DPPC   C41 6491  -0.154   7.866   2.604
  130DPPC   C42 6492  -0.299   7.900   2.640
  130DPPC   C43 6493  -0.323   8.047   2.675
  130DPPC   C44 6494  -0.439   8.078   2.769
  130DPPC   C45 6495  -0.460   8.228   2.791
  130DPPC   C46 6496  -0.573   8.269   2.885
  130DPPC   C47 6497  -0.534   8.218   3.024
  130DPPC   C48 6498  -0.657   8.218   3.116
  130DPPC   C49 6499  -0.710   8.362   3.124
  130DPPC   C50 6500  -0.856   8.363   3.171
  131DPPC    C1 6501   1.422   3.985   5.630
  131DPPC    C2 6502   1.447   3.810   5.460
  131DPPC    C3 6503   1.308   3.999   5.429
  131DPPC    N4 6504   1.436   3.954   5.487
  131DPPC    C5 6505   1.536   4.034   5.415
  131DPPC    C6 6506   1.549   4.184   5.444
  131DPPC    O7 6507   1.470   4.264   5.355
  131DPPC    P8 6508   1.489   4.416   5.404
  131DPPC    O9 6509   1.548   4.422   5.540
  131DPPC   O10 6510   1.367   4.493   5.372
  131DPPC   O11 6511   1.602   4.453   5.296
  131DPPC   C12 6512   1.543   4.439   5.167
  131DPPC   C13 6513   1.647   4.435   5.055
  131DPPC   O14 6514   1.582   4.450   4.929
  131DPPC   C15 6515   1.639   4.547   4.851
  131DPPC   O16 6516   1.738   4.611   4.885
  131DPPC   C17 6517   1.591   4.539   4.706
  131DPPC   C18 6518   1.695   4.454   4.632
  131DPPC   C19 6519   1.639   4.423   4.493
  131DPPC   C20 6520   1.757   4.408   4.397
  131DPPC   C21 6521   1.717   4.361   4.257
  131DPPC   C22 6522   1.840   4.384   4.169
  131DPPC   C23 6523   1.818   4.328   4.028
  131DPPC   C24 6524   1.934   4.358   3.933
  131DPPC   C25 6525   2.070   4.311   3.984
  131DPPC   C26 6526   2.177   4.335   3.876
  131DPPC   C27 6527   2.317   4.302   3.929
  131DPPC   C28 6528   2.420   4.306   3.816
  131DPPC   C29 6529   2.563   4.311   3.871
  131DPPC   C30 6530   2.635   4.440   3.831
  131DPPC   C31 6531   2.783   4.441   3.869
  131DPPC   C32 6532   1.729   4.308   5.077
  131DPPC   O33 6533   1.803   4.247   4.971
  131DPPC   C34 6534   1.868   4.128   4.969
  131DPPC   O35 6535   1.837   4.051   5.060
  131DPPC   C36 6536   1.950   4.074   4.852
  131DPPC   C37 6537   1.866   4.080   4.724
  131DPPC   C38 6538   1.939   4.017   4.606
  131DPPC   C39 6539   1.846   4.025   4.484
  131DPPC   C40 6540   1.703   3.970   4.487
  131DPPC   C41 6541   1.662   3.972   4.339
  131DPPC   C42 6542   1.509   3.965   4.336
  131DPPC   C43 6543   1.465   3.959   4.189
  131DPPC   C44 6544   1.521   3.837   4.116
  131DPPC   C45 6545   1.455   3.824   3.979
  131DPPC   C46 6546   1.507   3.920   3.871
  131DPPC   C47 6547   1.506   3.856   3.732
  131DPPC   C48 6548   1.528   3.958   3.620
  131DPPC   C49 6549   1.527   3.892   3.482
  131DPPC   C50 6550   1.631   3.785   3.450
  132DPPC    C1 6551   9.232   6.380   1.204
  132DPPC    C2 6552   9.433   6.490   1.307
  132DPPC    C3 6553   9.290   6.603   1.165
  132DPPC    N4 6554   9.291   6.498   1.268
  132DPPC    C5 6555   9.210   6.534   1.386
  132DPPC    C6 6556   9.058   6.546   1.384
  132DPPC    O7 6557   9.009   6.578   1.515
  132DPPC    P8 6558   8.852   6.552   1.535
  132DPPC    O9 6559   8.833   6.408   1.505
  132DPPC   O10 6560   8.796   6.657   1.448
  132DPPC   O11 6561   8.841   6.568   1.695
  132DPPC   C12 6562   8.954   6.520   1.767
  132DPPC   C13 6563   8.947   6.549   1.917
  132DPPC   O14 6564   9.063   6.506   1.991
  132DPPC   C15 6565   9.176   6.581   1.990
  132DPPC   O16 6566   9.199   6.652   1.892
  132DPPC   C17 6567   9.277   6.569   2.104
  132DPPC   C18 6568   9.249   6.652   2.230
  132DPPC   C19 6569   9.358   6.638   2.337
  132DPPC   C20 6570   9.301   6.692   2.468
  132DPPC   C21 6571   9.370   6.659   2.601
  132DPPC   C22 6572   9.518   6.696   2.607
  132DPPC   C23 6573   9.542   6.728   2.755
  132DPPC   C24 6574   9.679   6.675   2.797
  132DPPC   C25 6575   9.716   6.714   2.941
  132DPPC   C26 6576   9.866   6.684   2.938
  132DPPC   C27 6577   9.907   6.689   3.086
  132DPPC   C28 6578  10.059   6.686   3.106
  132DPPC   C29 6579  10.081   6.638   3.250
  132DPPC   C30 6580  10.070   6.485   3.248
  132DPPC   C31 6581  10.086   6.426   3.388
  132DPPC   C32 6582   8.817   6.486   1.969
  132DPPC   O33 6583   8.798   6.483   2.110
  132DPPC   C34 6584   8.682   6.432   2.162
  132DPPC   O35 6585   8.591   6.406   2.083
  132DPPC   C36 6586   8.670   6.428   2.314
  132DPPC   C37 6587   8.595   6.545   2.379
  132DPPC   C38 6588   8.538   6.507   2.516
  132DPPC   C39 6589   8.494   6.629   2.596
  132DPPC   C40 6590   8.493   6.600   2.746
  132DPPC   C41 6591   8.395   6.486   2.778
  132DPPC   C42 6592   8.404   6.452   2.927
  132DPPC   C43 6593   8.382   6.581   3.007
  132DPPC   C44 6594   8.352   6.537   3.150
  132DPPC   C45 6595   8.294   6.656   3.226
  132DPPC   C46 6596   8.282   6.617   3.374
  132DPPC   C47 6597   8.210   6.734   3.442
  132DPPC   C48 6598   8.202   6.726   3.594
  132DPPC   C49 6599   8.102   6.617   3.632
  132DPPC   C50 6600   8.113   6.594   3.783
  133DPPC    C1 6601   7.295   0.271   5.522
  133DPPC    C2 6602   7.273   0.473   5.613
  133DPPC    C3 6603   7.395   0.286   5.733
  133DPPC    N4 6604   7.370   0.363   5.610
  133DPPC    C5 6605   7.499   0.398   5.548
  133DPPC    C6 6606   7.600   0.498   5.603
  133DPPC    O7 6607   7.720   0.501   5.525
  133DPPC    P8 6608   7.831   0.601   5.584
  133DPPC    O9 6609   7.956   0.602   5.506
  133DPPC   O10 6610   7.813   0.593   5.731
  133DPPC   O11 6611   7.755   0.735   5.536
  133DPPC   C12 6612   7.780   0.757   5.397
  133DPPC   C13 6613   7.691   0.859   5.326
  133DPPC   O14 6614   7.745   0.992   5.312
  133DPPC   C15 6615   7.835   1.008   5.212
  133DPPC   O16 6616   7.870   0.904   5.155
  133DPPC   C17 6617   7.919   1.135   5.201
  133DPPC   C18 6618   7.856   1.259   5.137
  133DPPC   C19 6619   7.864   1.256   4.984
  133DPPC   C20 6620   7.812   1.389   4.929
  133DPPC   C21 6621   7.887   1.512   4.981
  133DPPC   C22 6622   7.806   1.638   4.948
  133DPPC   C23 6623   7.895   1.762   4.962
  133DPPC   C24 6624   7.797   1.881   4.967
  133DPPC   C25 6625   7.719   1.886   4.836
  133DPPC   C26 6626   7.604   1.986   4.829
  133DPPC   C27 6627   7.531   1.970   4.695
  133DPPC   C28 6628   7.420   2.076   4.697
  133DPPC   C29 6629   7.335   2.058   4.571
  133DPPC   C30 6630   7.203   2.135   4.574
  133DPPC   C31 6631   7.115   2.102   4.453
  133DPPC   C32 6632   7.566   0.869   5.414
  133DPPC   O33 6633   7.438   0.862   5.352
  133DPPC   C34 6634   7.391   0.737   5.325
  133DPPC   O35 6635   7.433   0.632   5.375
  133DPPC   C36 6636   7.253   0.735   5.259
  133DPPC   C37 6637   7.270   0.716   5.108
  133DPPC   C38 6638   7.131   0.746   5.052
  133DPPC   C39 6639   7.150   0.768   4.902
  133DPPC   C40 6640   7.206   0.643   4.833
  133DPPC   C41 6641   7.199   0.665   4.682
  133DPPC   C42 6642   7.210   0.533   4.605
  133DPPC   C43 6643   7.186   0.563   4.458
  133DPPC   C44 6644   7.284   0.654   4.383
  133DPPC   C45 6645   7.262   0.650   4.232
  133DPPC   C46 6646   7.275   0.507   4.181
  133DPPC   C47 6647   7.248   0.501   4.030
  133DPPC   C48 6648   7.269   0.361   3.971
  133DPPC   C49 6649   7.263   0.362   3.819
  133DPPC   C50 6650   7.117   0.377   3.773
  134DPPC    C1 6651   0.269   7.732   5.363
  134DPPC    C2 6652   0.209   7.780   5.570
  134DPPC    C3 6653   0.445   7.764   5.520
  134DPPC    N4 6654   0.315   7.816   5.475
  134DPPC    C5 6655   0.315   7.961   5.455
  134DPPC    C6 6656   0.400   8.024   5.345
  134DPPC    O7 6657   0.372   7.991   5.209
  134DPPC    P8 6658   0.478   8.078   5.125
  134DPPC    O9 6659   0.600   7.995   5.138
  134DPPC   O10 6660   0.468   8.213   5.185
  134DPPC   O11 6661   0.427   8.070   4.973
  134DPPC   C12 6662   0.444   8.192   4.899
  134DPPC   C13 6663   0.477   8.172   4.751
  134DPPC   O14 6664   0.476   8.294   4.676
  134DPPC   C15 6665   0.572   8.390   4.678
  134DPPC   O16 6666   0.680   8.358   4.727
  134DPPC   C17 6667   0.555   8.520   4.601
  134DPPC   C18 6668   0.464   8.507   4.478
  134DPPC   C19 6669   0.491   8.623   4.382
  134DPPC   C20 6670   0.419   8.611   4.248
  134DPPC   C21 6671   0.492   8.689   4.139
  134DPPC   C22 6672   0.397   8.796   4.085
  134DPPC   C23 6673   0.451   8.891   3.978
  134DPPC   C24 6674   0.436   9.037   4.021
  134DPPC   C25 6675   0.504   9.129   3.920
  134DPPC   C26 6676   0.485   9.277   3.953
  134DPPC   C27 6677   0.555   9.360   3.845
  134DPPC   C28 6678   0.507   9.505   3.844
  134DPPC   C29 6679   0.615   9.591   3.779
  134DPPC   C30 6680   0.620   9.542   3.635
  134DPPC   C31 6681   0.723   9.630   3.563
  134DPPC   C32 6682   0.368   8.075   4.704
  134DPPC   O33 6683   0.236   8.122   4.730
  134DPPC   C34 6684   0.134   8.031   4.728
  134DPPC   O35 6685   0.155   7.915   4.692
  134DPPC   C36 6686   0.001   8.089   4.774
  134DPPC   C37 6687  -0.082   8.133   4.653
  134DPPC   C38 6688  -0.135   8.023   4.561
  134DPPC   C39 6689  -0.208   8.082   4.440
  134DPPC   C40 6690  -0.259   7.987   4.331
  134DPPC   C41 6691  -0.300   8.053   4.200
  134DPPC   C42 6692  -0.389   8.174   4.230
  134DPPC   C43 6693  -0.445   8.214   4.093
  134DPPC   C44 6694  -0.505   8.089   4.030
  134DPPC   C45 6695  -0.616   8.149   3.943
  134DPPC   C46 6696  -0.694   8.040   3.868
  134DPPC   C47 6697  -0.817   8.093   3.793
  134DPPC   C48 6698  -0.906   7.972   3.763
  134DPPC   C49 6699  -1.023   8.033   3.686
  134DPPC   C50 6700  -0.964   8.112   3.570
  135DPPC    C1 6701   7.881   7.746   5.648
  135DPPC    C2 6702   7.942   7.922   5.782
  135DPPC    C3 6703   8.075   7.897   5.588
  135DPPC    N4 6704   7.939   7.881   5.641
  135DPPC    C5 6705   7.839   7.963   5.569
  135DPPC    C6 6706   7.789   7.917   5.432
  135DPPC    O7 6707   7.665   7.960   5.375
  135DPPC    P8 6708   7.659   7.916   5.221
  135DPPC    O9 6709   7.528   7.959   5.166
  135DPPC   O10 6710   7.714   7.779   5.214
  135DPPC   O11 6711   7.771   8.024   5.179
  135DPPC   C12 6712   7.722   8.142   5.114
  135DPPC   C13 6713   7.829   8.250   5.102
  135DPPC   O14 6714   7.778   8.384   5.089
  135DPPC   C15 6715   7.865   8.489   5.086
  135DPPC   O16 6716   7.970   8.478   5.148
  135DPPC   C17 6717   7.803   8.629   5.077
  135DPPC   C18 6718   7.893   8.729   5.004
  135DPPC   C19 6719   7.935   8.675   4.868
  135DPPC   C20 6720   7.820   8.635   4.776
  135DPPC   C21 6721   7.845   8.506   4.698
  135DPPC   C22 6722   7.703   8.463   4.658
  135DPPC   C23 6723   7.633   8.564   4.568
  135DPPC   C24 6724   7.703   8.567   4.431
  135DPPC   C25 6725   7.631   8.640   4.317
  135DPPC   C26 6726   7.714   8.640   4.188
  135DPPC   C27 6727   7.646   8.730   4.085
  135DPPC   C28 6728   7.753   8.778   3.987
  135DPPC   C29 6729   7.669   8.872   3.900
  135DPPC   C30 6730   7.742   8.927   3.777
  135DPPC   C31 6731   7.706   8.845   3.653
  135DPPC   C32 6732   7.940   8.200   5.008
  135DPPC   O33 6733   7.887   8.142   4.889
  135DPPC   C34 6734   7.984   8.100   4.804
  135DPPC   O35 6735   8.101   8.132   4.827
  135DPPC   C36 6736   7.937   8.073   4.661
  135DPPC   C37 6737   7.808   7.992   4.679
  135DPPC   C38 6738   7.725   7.993   4.551
  135DPPC   C39 6739   7.602   7.903   4.543
  135DPPC   C40 6740   7.527   7.892   4.409
  135DPPC   C41 6741   7.512   8.037   4.362
  135DPPC   C42 6742   7.439   8.027   4.227
  135DPPC   C43 6743   7.531   7.945   4.136
  135DPPC   C44 6744   7.481   7.958   3.992
  135DPPC   C45 6745   7.589   7.913   3.892
  135DPPC   C46 6746   7.555   7.899   3.744
  135DPPC   C47 6747   7.463   7.780   3.714
  135DPPC   C48 6748   7.431   7.779   3.564
  135DPPC   C49 6749   7.340   7.667   3.513
  135DPPC   C50 6750   7.323   7.683   3.362
  136DPPC    C1 6751   7.104   3.180   6.060
  136DPPC    C2 6752   7.315   3.179   5.976
  136DPPC    C3 6753   7.197   3.365   5.947
  136DPPC    N4 6754   7.224   3.265   6.051
  136DPPC    C5 6755   7.280   3.317   6.177
  136DPPC    C6 6756   7.426   3.361   6.173
  136DPPC    O7 6757   7.454   3.480   6.099
  136DPPC    P8 6758   7.607   3.478   6.049
  136DPPC    O9 6759   7.671   3.378   6.138
  136DPPC   O10 6760   7.644   3.621   6.045
  136DPPC   O11 6761   7.574   3.424   5.901
  136DPPC   C12 6762   7.554   3.545   5.827
  136DPPC   C13 6763   7.629   3.538   5.693
  136DPPC   O14 6764   7.593   3.650   5.610
  136DPPC   C15 6765   7.658   3.769   5.623
  136DPPC   O16 6766   7.756   3.781   5.697
  136DPPC   C17 6767   7.597   3.891   5.555
  136DPPC   C18 6768   7.657   3.938   5.422
  136DPPC   C19 6769   7.590   4.057   5.353
  136DPPC   C20 6770   7.662   4.082   5.221
  136DPPC   C21 6771   7.679   3.967   5.122
  136DPPC   C22 6772   7.759   4.016   5.001
  136DPPC   C23 6773   7.689   4.138   4.940
  136DPPC   C24 6774   7.796   4.222   4.871
  136DPPC   C25 6775   7.852   4.176   4.736
  136DPPC   C26 6776   7.970   4.259   4.687
  136DPPC   C27 6777   8.043   4.182   4.577
  136DPPC   C28 6778   8.153   4.261   4.506
  136DPPC   C29 6779   8.101   4.396   4.456
  136DPPC   C30 6780   8.164   4.430   4.320
  136DPPC   C31 6781   8.126   4.569   4.271
  136DPPC   C32 6782   7.562   3.411   5.641
  136DPPC   O33 6783   7.641   3.325   5.558
  136DPPC   C34 6784   7.594   3.212   5.498
  136DPPC   O35 6785   7.477   3.179   5.513
  136DPPC   C36 6786   7.674   3.161   5.378
  136DPPC   C37 6787   7.639   3.259   5.266
  136DPPC   C38 6788   7.587   3.192   5.139
  136DPPC   C39 6789   7.519   3.287   5.040
  136DPPC   C40 6790   7.467   3.217   4.914
  136DPPC   C41 6791   7.384   3.317   4.834
  136DPPC   C42 6792   7.320   3.253   4.710
  136DPPC   C43 6793   7.259   3.364   4.624
  136DPPC   C44 6794   7.219   3.302   4.490
  136DPPC   C45 6795   7.145   3.398   4.397
  136DPPC   C46 6796   7.111   3.318   4.271
  136DPPC   C47 6797   7.057   3.416   4.166
  136DPPC   C48 6798   7.076   3.350   4.029
  136DPPC   C49 6799   6.979   3.232   4.018
  136DPPC   C50 6800   7.006   3.185   3.875
  137DPPC    C1 6801   3.093   6.128   5.044
  137DPPC    C2 6802   3.205   5.955   5.166
  137DPPC    C3 6803   3.310   6.168   5.103
  137DPPC    N4 6804   3.189   6.101   5.152
  137DPPC    C5 6805   3.156   6.173   5.276
  137DPPC    C6 6806   3.021   6.141   5.340
  137DPPC    O7 6807   2.906   6.210   5.291
  137DPPC    P8 6808   2.771   6.125   5.316
  137DPPC    O9 6809   2.658   6.200   5.258
  137DPPC   O10 6810   2.787   6.082   5.457
  137DPPC   O11 6811   2.801   5.998   5.223
  137DPPC   C12 6812   2.701   5.969   5.125
  137DPPC   C13 6813   2.736   5.837   5.057
  137DPPC   O14 6814   2.858   5.843   4.982
  137DPPC   C15 6815   2.928   5.728   4.966
  137DPPC   O16 6816   2.898   5.637   5.043
  137DPPC   C17 6817   3.054   5.721   4.880
  137DPPC   C18 6818   3.030   5.783   4.742
  137DPPC   C19 6819   3.155   5.757   4.658
  137DPPC   C20 6820   3.196   5.610   4.643
  137DPPC   C21 6821   3.302   5.602   4.533
  137DPPC   C22 6822   3.358   5.461   4.513
  137DPPC   C23 6823   3.480   5.444   4.422
  137DPPC   C24 6824   3.524   5.298   4.403
  137DPPC   C25 6825   3.638   5.283   4.302
  137DPPC   C26 6826   3.664   5.134   4.284
  137DPPC   C27 6827   3.785   5.100   4.197
  137DPPC   C28 6828   3.767   5.164   4.059
  137DPPC   C29 6829   3.857   5.100   3.953
  137DPPC   C30 6830   3.771   5.096   3.827
  137DPPC   C31 6831   3.832   5.007   3.718
  137DPPC   C32 6832   2.608   5.798   4.982
  137DPPC   O33 6833   2.544   5.901   4.906
  137DPPC   C34 6834   2.446   5.861   4.820
  137DPPC   O35 6835   2.417   5.742   4.808
  137DPPC   C36 6836   2.389   5.967   4.726
  137DPPC   C37 6837   2.354   5.921   4.584
  137DPPC   C38 6838   2.335   6.026   4.475
  137DPPC   C39 6839   2.304   5.956   4.343
  137DPPC   C40 6840   2.364   6.038   4.229
  137DPPC   C41 6841   2.273   6.155   4.192
  137DPPC   C42 6842   2.300   6.203   4.049
  137DPPC   C43 6843   2.274   6.084   3.957
  137DPPC   C44 6844   2.319   6.095   3.811
  137DPPC   C45 6845   2.266   5.976   3.730
  137DPPC   C46 6846   2.296   5.844   3.801
  137DPPC   C47 6847   2.235   5.729   3.722
  137DPPC   C48 6848   2.083   5.722   3.736
  137DPPC   C49 6849   2.012   5.613   3.656
  137DPPC   C50 6850   1.871   5.585   3.709
  138DPPC    C1 6851   2.074   2.673   5.699
  138DPPC    C2 6852   2.034   2.896   5.771
  138DPPC    C3 6853   2.204   2.763   5.861
  138DPPC    N4 6854   2.139   2.800   5.734
  138DPPC    C5 6855   2.225   2.836   5.621
  138DPPC    C6 6856   2.158   2.890   5.493
  138DPPC    O7 6857   2.079   2.804   5.412
  138DPPC    P8 6858   2.046   2.891   5.281
  138DPPC    O9 6859   1.989   3.011   5.347
  138DPPC   O10 6860   1.970   2.804   5.189
  138DPPC   O11 6861   2.201   2.911   5.241
  138DPPC   C12 6862   2.211   2.998   5.128
  138DPPC   C13 6863   2.349   3.060   5.107
  138DPPC   O14 6864   2.362   3.173   5.020
  138DPPC   C15 6865   2.340   3.299   5.066
  138DPPC   O16 6866   2.317   3.314   5.186
  138DPPC   C17 6867   2.341   3.411   4.961
  138DPPC   C18 6868   2.453   3.512   4.983
  138DPPC   C19 6869   2.452   3.620   4.874
  138DPPC   C20 6870   2.315   3.687   4.858
  138DPPC   C21 6871   2.305   3.777   4.734
  138DPPC   C22 6872   2.264   3.702   4.607
  138DPPC   C23 6873   2.261   3.802   4.491
  138DPPC   C24 6874   2.280   3.714   4.367
  138DPPC   C25 6875   2.301   3.783   4.232
  138DPPC   C26 6876   2.314   3.662   4.139
  138DPPC   C27 6877   2.333   3.705   3.993
  138DPPC   C28 6878   2.215   3.798   3.962
  138DPPC   C29 6879   2.252   3.883   3.840
  138DPPC   C30 6880   2.142   3.977   3.792
  138DPPC   C31 6881   2.033   3.889   3.731
  138DPPC   C32 6882   2.435   2.943   5.059
  138DPPC   O33 6883   2.369   2.876   4.951
  138DPPC   C34 6884   2.410   2.747   4.941
  138DPPC   O35 6885   2.474   2.698   5.034
  138DPPC   C36 6886   2.385   2.659   4.818
  138DPPC   C37 6887   2.447   2.727   4.695
  138DPPC   C38 6888   2.430   2.623   4.584
  138DPPC   C39 6889   2.288   2.589   4.540
  138DPPC   C40 6890   2.281   2.475   4.438
  138DPPC   C41 6891   2.136   2.460   4.390
  138DPPC   C42 6892   2.116   2.328   4.315
  138DPPC   C43 6893   1.971   2.328   4.268
  138DPPC   C44 6894   1.924   2.204   4.190
  138DPPC   C45 6895   1.772   2.206   4.210
  138DPPC   C46 6896   1.714   2.101   4.116
  138DPPC   C47 6897   1.561   2.097   4.127
  138DPPC   C48 6898   1.501   1.971   4.065
  138DPPC   C49 6899   1.354   1.946   4.098
  138DPPC   C50 6900   1.364   1.954   4.250
  139DPPC    C1 6901   9.075   3.794   5.376
  139DPPC    C2 6902   8.900   3.952   5.329
  139DPPC    C3 6903   8.899   3.819   5.525
  139DPPC    N4 6904   8.985   3.895   5.434
  139DPPC    C5 6905   9.054   3.993   5.519
  139DPPC    C6 6906   9.135   4.098   5.442
  139DPPC    O7 6907   9.205   4.182   5.536
  139DPPC    P8 6908   9.242   4.322   5.467
  139DPPC    O9 6909   9.274   4.426   5.568
  139DPPC   O10 6910   9.144   4.350   5.360
  139DPPC   O11 6911   9.371   4.278   5.382
  139DPPC   C12 6912   9.388   4.357   5.265
  139DPPC   C13 6913   9.454   4.282   5.149
  139DPPC   O14 6914   9.501   4.365   5.042
  139DPPC   C15 6915   9.614   4.441   5.052
  139DPPC   O16 6916   9.679   4.439   5.156
  139DPPC   C17 6917   9.627   4.551   4.947
  139DPPC   C18 6918   9.716   4.509   4.830
  139DPPC   C19 6919   9.715   4.604   4.710
  139DPPC   C20 6920   9.752   4.533   4.580
  139DPPC   C21 6921   9.733   4.617   4.453
  139DPPC   C22 6922   9.713   4.515   4.341
  139DPPC   C23 6923   9.722   4.589   4.207
  139DPPC   C24 6924   9.728   4.488   4.093
  139DPPC   C25 6925   9.736   4.557   3.957
  139DPPC   C26 6926   9.740   4.446   3.852
  139DPPC   C27 6927   9.796   4.496   3.719
  139DPPC   C28 6928   9.715   4.604   3.647
  139DPPC   C29 6929   9.794   4.628   3.518
  139DPPC   C30 6930   9.721   4.728   3.428
  139DPPC   C31 6931   9.782   4.743   3.289
  139DPPC   C32 6932   9.355   4.170   5.119
  139DPPC   O33 6933   9.416   4.044   5.091
  139DPPC   C34 6934   9.333   3.936   5.094
  139DPPC   O35 6935   9.220   3.957   5.138
  139DPPC   C36 6936   9.374   3.800   5.039
  139DPPC   C37 6937   9.338   3.802   4.890
  139DPPC   C38 6938   9.386   3.679   4.811
  139DPPC   C39 6939   9.340   3.708   4.668
  139DPPC   C40 6940   9.343   3.597   4.563
  139DPPC   C41 6941   9.286   3.648   4.430
  139DPPC   C42 6942   9.253   3.522   4.350
  139DPPC   C43 6943   9.231   3.555   4.202
  139DPPC   C44 6944   9.114   3.649   4.175
  139DPPC   C45 6945   9.086   3.654   4.025
  139DPPC   C46 6946   9.169   3.747   3.936
  139DPPC   C47 6947   9.149   3.716   3.787
  139DPPC   C48 6948   9.219   3.813   3.692
  139DPPC   C49 6949   9.197   3.755   3.552
  139DPPC   C50 6950   9.270   3.837   3.445
  140DPPC    C1 6951   0.169   2.436   5.389
  140DPPC    C2 6952   0.302   2.562   5.558
  140DPPC    C3 6953   0.145   2.657   5.432
  140DPPC    N4 6954   0.170   2.530   5.502
  140DPPC    C5 6955   0.081   2.508   5.617
  140DPPC    C6 6956  -0.062   2.455   5.599
  140DPPC    O7 6957  -0.136   2.548   5.519
  140DPPC    P8 6958  -0.291   2.516   5.494
  140DPPC    O9 6959  -0.337   2.644   5.435
  140DPPC   O10 6960  -0.353   2.460   5.617
  140DPPC   O11 6961  -0.277   2.408   5.376
  140DPPC   C12 6962  -0.236   2.459   5.249
  140DPPC   C13 6963  -0.243   2.345   5.146
  140DPPC   O14 6964  -0.144   2.340   5.042
  140DPPC   C15 6965  -0.019   2.290   5.056
  140DPPC   O16 6966   0.035   2.247   5.159
  140DPPC   C17 6967   0.044   2.251   4.922
  140DPPC   C18 6968   0.096   2.375   4.849
  140DPPC   C19 6969   0.130   2.337   4.704
  140DPPC   C20 6970   0.262   2.399   4.657
  140DPPC   C21 6971   0.289   2.386   4.507
  140DPPC   C22 6972   0.423   2.451   4.472
  140DPPC   C23 6973   0.501   2.381   4.360
  140DPPC   C24 6974   0.421   2.380   4.230
  140DPPC   C25 6975   0.505   2.349   4.106
  140DPPC   C26 6976   0.442   2.317   3.970
  140DPPC   C27 6977   0.548   2.297   3.861
  140DPPC   C28 6978   0.490   2.254   3.726
  140DPPC   C29 6979   0.380   2.148   3.737
  140DPPC   C30 6980   0.362   2.081   3.600
  140DPPC   C31 6981   0.263   1.965   3.613
  140DPPC   C32 6982  -0.384   2.364   5.089
  140DPPC   O33 6983  -0.409   2.500   5.055
  140DPPC   C34 6984  -0.495   2.535   4.955
  140DPPC   O35 6985  -0.512   2.469   4.852
  140DPPC   C36 6986  -0.559   2.674   4.963
  140DPPC   C37 6987  -0.704   2.625   4.970
  140DPPC   C38 6988  -0.784   2.706   4.869
  140DPPC   C39 6989  -0.935   2.688   4.893
  140DPPC   C40 6990  -0.993   2.805   4.813
  140DPPC   C41 6991  -0.961   2.792   4.664
  140DPPC   C42 6992  -1.004   2.914   4.581
  140DPPC   C43 6993  -0.981   2.892   4.432
  140DPPC   C44 6994  -1.045   3.000   4.345
  140DPPC   C45 6995  -1.020   2.959   4.200
  140DPPC   C46 6996  -1.084   2.822   4.173
  140DPPC   C47 6997  -1.027   2.775   4.040
  140DPPC   C48 6998  -1.126   2.792   3.924
  140DPPC   C49 6999  -1.104   2.685   3.817
  140DPPC   C50 7000  -0.970   2.723   3.752
  141DPPC    C1 7001   5.854   1.746   6.281
  141DPPC    C2 7002   5.700   1.613   6.171
  141DPPC    C3 7003   5.621   1.816   6.238
  141DPPC    N4 7004   5.742   1.753   6.186
  141DPPC    C5 7005   5.771   1.805   6.051
  141DPPC    C6 7006   5.815   1.952   6.047
  141DPPC    O7 7007   5.702   2.040   6.049
  141DPPC    P8 7008   5.747   2.178   5.980
  141DPPC    O9 7009   5.875   2.209   6.047
  141DPPC   O10 7010   5.626   2.264   5.983
  141DPPC   O11 7011   5.765   2.134   5.826
  141DPPC   C12 7012   5.648   2.096   5.754
  141DPPC   C13 7013   5.672   2.087   5.603
  141DPPC   O14 7014   5.754   1.985   5.543
  141DPPC   C15 7015   5.678   1.887   5.488
  141DPPC   O16 7016   5.557   1.874   5.499
  141DPPC   C17 7017   5.763   1.773   5.431
  141DPPC   C18 7018   5.771   1.787   5.279
  141DPPC   C19 7019   5.842   1.669   5.213
  141DPPC   C20 7020   5.776   1.640   5.078
  141DPPC   C21 7021   5.625   1.623   5.101
  141DPPC   C22 7022   5.546   1.569   4.981
  141DPPC   C23 7023   5.555   1.664   4.862
  141DPPC   C24 7024   5.504   1.600   4.733
  141DPPC   C25 7025   5.562   1.461   4.708
  141DPPC   C26 7026   5.521   1.406   4.571
  141DPPC   C27 7027   5.614   1.466   4.465
  141DPPC   C28 7028   5.580   1.412   4.326
  141DPPC   C29 7029   5.439   1.461   4.292
  141DPPC   C30 7030   5.431   1.596   4.221
  141DPPC   C31 7031   5.289   1.652   4.209
  141DPPC   C32 7032   5.729   2.224   5.566
  141DPPC   O33 7033   5.634   2.331   5.571
  141DPPC   C34 7034   5.682   2.457   5.556
  141DPPC   O35 7035   5.803   2.468   5.574
  141DPPC   C36 7036   5.586   2.575   5.536
  141DPPC   C37 7037   5.552   2.607   5.390
  141DPPC   C38 7038   5.493   2.490   5.313
  141DPPC   C39 7039   5.450   2.544   5.176
  141DPPC   C40 7040   5.569   2.577   5.086
  141DPPC   C41 7041   5.523   2.624   4.949
  141DPPC   C42 7042   5.635   2.614   4.845
  141DPPC   C43 7043   5.590   2.651   4.704
  141DPPC   C44 7044   5.470   2.563   4.671
  141DPPC   C45 7045   5.416   2.604   4.534
  141DPPC   C46 7046   5.358   2.745   4.535
  141DPPC   C47 7047   5.320   2.791   4.394
  141DPPC   C48 7048   5.429   2.804   4.288
  141DPPC   C49 7049   5.367   2.843   4.153
  141DPPC   C50 7050   5.262   2.746   4.099
  142DPPC    C1 7051   1.567   6.006   4.982
  142DPPC    C2 7052   1.575   6.237   5.010
  142DPPC    C3 7053   1.622   6.148   4.800
  142DPPC    N4 7054   1.533   6.133   4.915
  142DPPC    C5 7055   1.394   6.120   4.870
  142DPPC    C6 7056   1.311   6.247   4.850
  142DPPC    O7 7057   1.348   6.329   4.739
  142DPPC    P8 7058   1.297   6.481   4.760
  142DPPC    O9 7059   1.385   6.566   4.677
  142DPPC   O10 7060   1.276   6.504   4.905
  142DPPC   O11 7061   1.155   6.471   4.684
  142DPPC   C12 7062   1.172   6.432   4.547
  142DPPC   C13 7063   1.045   6.458   4.465
  142DPPC   O14 7064   1.040   6.373   4.350
  142DPPC   C15 7065   0.923   6.363   4.282
  142DPPC   O16 7066   0.812   6.392   4.326
  142DPPC   C17 7067   0.937   6.285   4.151
  142DPPC   C18 7068   0.831   6.317   4.044
  142DPPC   C19 7069   0.876   6.230   3.926
  142DPPC   C20 7070   0.778   6.206   3.812
  142DPPC   C21 7071   0.649   6.149   3.873
  142DPPC   C22 7072   0.667   6.002   3.910
  142DPPC   C23 7073   0.537   5.961   3.979
  142DPPC   C24 7074   0.541   5.825   4.049
  142DPPC   C25 7075   0.408   5.750   4.057
  142DPPC   C26 7076   0.311   5.848   4.124
  142DPPC   C27 7077   0.174   5.782   4.145
  142DPPC   C28 7078   0.068   5.869   4.211
  142DPPC   C29 7079  -0.065   5.794   4.228
  142DPPC   C30 7080  -0.070   5.659   4.299
  142DPPC   C31 7081  -0.197   5.577   4.277
  142DPPC   C32 7082   1.039   6.607   4.432
  142DPPC   O33 7083   1.149   6.672   4.367
  142DPPC   C34 7084   1.112   6.799   4.335
  142DPPC   O35 7085   1.026   6.863   4.394
  142DPPC   C36 7086   1.223   6.864   4.251
  142DPPC   C37 7087   1.201   7.014   4.237
  142DPPC   C38 7088   1.091   7.050   4.136
  142DPPC   C39 7089   1.086   7.194   4.086
  142DPPC   C40 7090   0.972   7.224   3.988
  142DPPC   C41 7091   0.976   7.131   3.867
  142DPPC   C42 7092   0.906   7.193   3.746
  142DPPC   C43 7093   0.762   7.208   3.796
  142DPPC   C44 7094   0.676   7.294   3.702
  142DPPC   C45 7095   0.742   7.432   3.704
  142DPPC   C46 7096   0.677   7.515   3.593
  142DPPC   C47 7097   0.737   7.655   3.586
  142DPPC   C48 7098   0.686   7.746   3.474
  142DPPC   C49 7099   0.749   7.697   3.344
  142DPPC   C50 7100   0.897   7.733   3.332
  143DPPC    C1 7101   0.317   0.000   5.270
  143DPPC    C2 7102   0.137   0.144   5.354
  143DPPC    C3 7103   0.355   0.161   5.442
  143DPPC    N4 7104   0.279   0.133   5.320
  143DPPC    C5 7105   0.310   0.230   5.214
  143DPPC    C6 7106   0.271   0.378   5.219
  143DPPC    O7 7107   0.383   0.452   5.268
  143DPPC    P8 7108   0.335   0.604   5.292
  143DPPC    O9 7109   0.458   0.679   5.324
  143DPPC   O10 7110   0.225   0.589   5.390
  143DPPC   O11 7111   0.305   0.630   5.136
  143DPPC   C12 7112   0.399   0.721   5.077
  143DPPC   C13 7113   0.382   0.768   4.933
  143DPPC   O14 7114   0.293   0.880   4.925
  143DPPC   C15 7115   0.347   1.004   4.931
  143DPPC   O16 7116   0.453   1.020   4.990
  143DPPC   C17 7117   0.272   1.120   4.863
  143DPPC   C18 7118   0.168   1.069   4.763
  143DPPC   C19 7119   0.030   1.101   4.821
  143DPPC   C20 7120  -0.086   1.066   4.728
  143DPPC   C21 7121  -0.134   1.191   4.654
  143DPPC   C22 7122  -0.264   1.164   4.578
  143DPPC   C23 7123  -0.232   1.043   4.491
  143DPPC   C24 7124  -0.364   1.003   4.424
  143DPPC   C25 7125  -0.410   1.108   4.323
  143DPPC   C26 7126  -0.547   1.084   4.261
  143DPPC   C27 7127  -0.576   1.198   4.163
  143DPPC   C28 7128  -0.489   1.215   4.038
  143DPPC   C29 7129  -0.518   1.091   3.953
  143DPPC   C30 7130  -0.430   1.098   3.828
  143DPPC   C31 7131  -0.484   1.223   3.758
  143DPPC   C32 7132   0.361   0.643   4.847
  143DPPC   O33 7133   0.311   0.665   4.714
  143DPPC   C34 7134   0.277   0.552   4.648
  143DPPC   O35 7135   0.226   0.463   4.716
  143DPPC   C36 7136   0.233   0.573   4.503
  143DPPC   C37 7137   0.165   0.447   4.449
  143DPPC   C38 7138   0.095   0.459   4.313
  143DPPC   C39 7139  -0.021   0.558   4.330
  143DPPC   C40 7140  -0.102   0.580   4.202
  143DPPC   C41 7141  -0.010   0.645   4.098
  143DPPC   C42 7142  -0.037   0.569   3.968
  143DPPC   C43 7143   0.044   0.623   3.850
  143DPPC   C44 7144   0.032   0.772   3.821
  143DPPC   C45 7145   0.123   0.792   3.699
  143DPPC   C46 7146   0.158   0.936   3.662
  143DPPC   C47 7147   0.247   0.929   3.538
  143DPPC   C48 7148   0.293   1.063   3.481
  143DPPC   C49 7149   0.194   1.173   3.443
  143DPPC   C50 7150   0.263   1.295   3.380
  144DPPC    C1 7151   8.715   0.227   5.722
  144DPPC    C2 7152   8.918   0.343   5.773
  144DPPC    C3 7153   8.913   0.112   5.711
  144DPPC    N4 7154   8.855   0.244   5.683
  144DPPC    C5 7155   8.867   0.279   5.541
  144DPPC    C6 7156   8.871   0.428   5.504
  144DPPC    O7 7157   8.760   0.512   5.535
  144DPPC    P8 7158   8.805   0.663   5.502
  144DPPC    O9 7159   8.939   0.660   5.564
  144DPPC   O10 7160   8.694   0.738   5.565
  144DPPC   O11 7161   8.799   0.658   5.341
  144DPPC   C12 7162   8.664   0.675   5.299
  144DPPC   C13 7163   8.648   0.633   5.153
  144DPPC   O14 7164   8.515   0.653   5.101
  144DPPC   C15 7165   8.495   0.776   5.046
  144DPPC   O16 7166   8.541   0.883   5.085
  144DPPC   C17 7167   8.371   0.791   4.957
  144DPPC   C18 7168   8.392   0.837   4.812
  144DPPC   C19 7169   8.488   0.739   4.745
  144DPPC   C20 7170   8.523   0.778   4.601
  144DPPC   C21 7171   8.395   0.760   4.520
  144DPPC   C22 7172   8.432   0.769   4.371
  144DPPC   C23 7173   8.524   0.890   4.354
  144DPPC   C24 7174   8.548   0.933   4.209
  144DPPC   C25 7175   8.430   0.978   4.123
  144DPPC   C26 7176   8.485   1.040   3.995
  144DPPC   C27 7177   8.557   0.943   3.900
  144DPPC   C28 7178   8.628   1.033   3.799
  144DPPC   C29 7179   8.685   0.960   3.677
  144DPPC   C30 7180   8.565   0.885   3.617
  144DPPC   C31 7181   8.610   0.833   3.480
  144DPPC   C32 7182   8.711   0.494   5.142
  144DPPC   O33 7183   8.706   0.439   5.010
  144DPPC   C34 7184   8.820   0.473   4.945
  144DPPC   O35 7185   8.915   0.517   5.010
  144DPPC   C36 7186   8.843   0.411   4.807
  144DPPC   C37 7187   8.714   0.395   4.727
  144DPPC   C38 7188   8.729   0.273   4.637
  144DPPC   C39 7189   8.607   0.280   4.545
  144DPPC   C40 7190   8.608   0.157   4.454
  144DPPC   C41 7191   8.527   0.171   4.324
  144DPPC   C42 7192   8.536   0.040   4.245
  144DPPC   C43 7193   8.419   0.040   4.146
  144DPPC   C44 7194   8.451  -0.053   4.029
  144DPPC   C45 7195   8.315  -0.082   3.964
  144DPPC   C46 7196   8.252   0.048   3.911
  144DPPC   C47 7197   8.115   0.043   3.843
  144DPPC   C48 7198   8.093   0.167   3.755
  144DPPC   C49 7199   8.125   0.294   3.834
  144DPPC   C50 7200   8.099   0.423   3.756
  145DPPC    C1 7201   8.047   5.564   5.611
  145DPPC    C2 7202   8.296   5.580   5.642
  145DPPC    C3 7203   8.214   5.381   5.577
  145DPPC    N4 7204   8.182   5.524   5.568
  145DPPC    C5 7205   8.186   5.552   5.424
  145DPPC    C6 7206   8.208   5.700   5.387
  145DPPC    O7 7207   8.224   5.719   5.247
  145DPPC    P8 7208   8.228   5.877   5.215
  145DPPC    O9 7209   8.291   5.882   5.082
  145DPPC   O10 7210   8.291   5.941   5.333
  145DPPC   O11 7211   8.069   5.861   5.203
  145DPPC   C12 7212   8.043   5.829   5.066
  145DPPC   C13 7213   7.900   5.783   5.034
  145DPPC   O14 7214   7.900   5.718   4.906
  145DPPC   C15 7215   7.803   5.627   4.877
  145DPPC   O16 7216   7.723   5.599   4.966
  145DPPC   C17 7217   7.777   5.600   4.729
  145DPPC   C18 7218   7.668   5.703   4.697
  145DPPC   C19 7219   7.627   5.671   4.553
  145DPPC   C20 7220   7.488   5.609   4.561
  145DPPC   C21 7221   7.450   5.550   4.425
  145DPPC   C22 7222   7.420   5.673   4.339
  145DPPC   C23 7223   7.309   5.764   4.392
  145DPPC   C24 7224   7.319   5.902   4.327
  145DPPC   C25 7225   7.186   5.976   4.312
  145DPPC   C26 7226   7.227   6.115   4.263
  145DPPC   C27 7227   7.274   6.124   4.118
  145DPPC   C28 7228   7.158   6.096   4.022
  145DPPC   C29 7229   7.207   6.070   3.879
  145DPPC   C30 7230   7.289   5.941   3.877
  145DPPC   C31 7231   7.336   5.915   3.734
  145DPPC   C32 7232   7.798   5.892   5.065
  145DPPC   O33 7233   7.804   6.006   4.979
  145DPPC   C34 7234   7.694   6.084   4.996
  145DPPC   O35 7235   7.620   6.073   5.094
  145DPPC   C36 7236   7.650   6.156   4.869
  145DPPC   C37 7237   7.555   6.071   4.783
  145DPPC   C38 7238   7.499   6.148   4.663
  145DPPC   C39 7239   7.594   6.189   4.551
  145DPPC   C40 7240   7.523   6.268   4.440
  145DPPC   C41 7241   7.607   6.323   4.324
  145DPPC   C42 7242   7.657   6.195   4.256
  145DPPC   C43 7243   7.716   6.219   4.117
  145DPPC   C44 7244   7.606   6.279   4.030
  145DPPC   C45 7245   7.657   6.302   3.888
  145DPPC   C46 7246   7.542   6.373   3.816
  145DPPC   C47 7247   7.598   6.409   3.678
  145DPPC   C48 7248   7.627   6.283   3.595
  145DPPC   C49 7249   7.684   6.301   3.454
  145DPPC   C50 7250   7.820   6.368   3.472
  146DPPC    C1 7251   6.914   4.107   5.888
  146DPPC    C2 7252   7.115   4.121   6.020
  146DPPC    C3 7253   6.925   4.062   6.126
  146DPPC    N4 7254   6.992   4.045   5.996
  146DPPC    C5 7255   7.035   3.906   5.973
  146DPPC    C6 7256   6.927   3.812   5.918
  146DPPC    O7 7257   6.970   3.677   5.896
  146DPPC    P8 7258   6.847   3.581   5.859
  146DPPC    O9 7259   6.722   3.628   5.924
  146DPPC   O10 7260   6.892   3.440   5.861
  146DPPC   O11 7261   6.829   3.619   5.703
  146DPPC   C12 7262   6.915   3.538   5.623
  146DPPC   C13 7263   6.937   3.567   5.474
  146DPPC   O14 7264   7.041   3.660   5.441
  146DPPC   C15 7265   7.173   3.632   5.462
  146DPPC   O16 7266   7.210   3.562   5.557
  146DPPC   C17 7267   7.264   3.739   5.403
  146DPPC   C18 7268   7.198   3.824   5.295
  146DPPC   C19 7269   7.222   3.758   5.159
  146DPPC   C20 7270   7.375   3.757   5.151
  146DPPC   C21 7271   7.413   3.708   5.012
  146DPPC   C22 7272   7.354   3.812   4.916
  146DPPC   C23 7273   7.409   3.785   4.776
  146DPPC   C24 7274   7.561   3.805   4.763
  146DPPC   C25 7275   7.589   3.806   4.613
  146DPPC   C26 7276   7.581   3.663   4.560
  146DPPC   C27 7277   7.621   3.678   4.413
  146DPPC   C28 7278   7.553   3.803   4.357
  146DPPC   C29 7279   7.601   3.842   4.217
  146DPPC   C30 7280   7.533   3.974   4.179
  146DPPC   C31 7281   7.517   3.978   4.027
  146DPPC   C32 7282   6.810   3.620   5.406
  146DPPC   O33 7283   6.714   3.521   5.367
  146DPPC   C34 7284   6.611   3.572   5.295
  146DPPC   O35 7285   6.613   3.682   5.242
  146DPPC   C36 7286   6.489   3.479   5.295
  146DPPC   C37 7287   6.422   3.478   5.157
  146DPPC   C38 7288   6.332   3.361   5.119
  146DPPC   C39 7289   6.240   3.418   5.010
  146DPPC   C40 7290   6.308   3.449   4.876
  146DPPC   C41 7291   6.216   3.512   4.771
  146DPPC   C42 7292   6.284   3.531   4.635
  146DPPC   C43 7293   6.186   3.608   4.546
  146DPPC   C44 7294   6.217   3.568   4.401
  146DPPC   C45 7295   6.104   3.626   4.316
  146DPPC   C46 7296   6.117   3.558   4.180
  146DPPC   C47 7297   6.014   3.626   4.088
  146DPPC   C48 7298   6.005   3.573   3.945
  146DPPC   C49 7299   5.887   3.633   3.869
  146DPPC   C50 7300   5.755   3.592   3.935
  147DPPC    C1 7301   8.270   3.054   6.204
  147DPPC    C2 7302   8.124   2.865   6.208
  147DPPC    C3 7303   8.034   3.087   6.241
  147DPPC    N4 7304   8.135   3.007   6.171
  147DPPC    C5 7305   8.113   3.003   6.025
  147DPPC    C6 7306   8.122   3.135   5.949
  147DPPC    O7 7307   8.024   3.238   5.964
  147DPPC    P8 7308   8.101   3.378   5.945
  147DPPC    O9 7309   8.220   3.351   6.029
  147DPPC   O10 7310   8.014   3.496   5.961
  147DPPC   O11 7311   8.135   3.350   5.790
  147DPPC   C12 7312   8.013   3.394   5.729
  147DPPC   C13 7313   8.056   3.384   5.582
  147DPPC   O14 7314   7.963   3.451   5.496
  147DPPC   C15 7315   8.008   3.572   5.452
  147DPPC   O16 7316   8.104   3.622   5.510
  147DPPC   C17 7317   7.910   3.637   5.354
  147DPPC   C18 7318   7.936   3.595   5.209
  147DPPC   C19 7319   7.800   3.607   5.140
  147DPPC   C20 7320   7.821   3.570   4.993
  147DPPC   C21 7321   7.919   3.673   4.934
  147DPPC   C22 7322   7.940   3.640   4.786
  147DPPC   C23 7323   8.022   3.750   4.719
  147DPPC   C24 7324   8.025   3.704   4.573
  147DPPC   C25 7325   8.051   3.827   4.486
  147DPPC   C26 7326   8.063   3.793   4.338
  147DPPC   C27 7327   8.063   3.920   4.253
  147DPPC   C28 7328   7.942   4.008   4.285
  147DPPC   C29 7329   7.950   4.143   4.214
  147DPPC   C30 7330   7.812   4.211   4.222
  147DPPC   C31 7331   7.810   4.332   4.130
  147DPPC   C32 7332   8.088   3.236   5.560
  147DPPC   O33 7333   7.982   3.151   5.604
  147DPPC   C34 7334   8.005   3.018   5.616
  147DPPC   O35 7335   8.109   2.959   5.646
  147DPPC   C36 7336   7.878   2.935   5.644
  147DPPC   C37 7337   7.884   2.795   5.583
  147DPPC   C38 7338   7.885   2.791   5.431
  147DPPC   C39 7339   7.860   2.649   5.380
  147DPPC   C40 7340   7.868   2.656   5.228
  147DPPC   C41 7341   7.765   2.743   5.155
  147DPPC   C42 7342   7.792   2.730   5.004
  147DPPC   C43 7343   7.678   2.809   4.940
  147DPPC   C44 7344   7.688   2.789   4.789
  147DPPC   C45 7345   7.571   2.866   4.728
  147DPPC   C46 7346   7.565   2.866   4.575
  147DPPC   C47 7347   7.434   2.937   4.541
  147DPPC   C48 7348   7.385   2.942   4.396
  147DPPC   C49 7349   7.236   2.970   4.374
  147DPPC   C50 7350   7.195   2.973   4.227
  148DPPC    C1 7351   2.650   6.481   5.490
  148DPPC    C2 7352   2.874   6.505   5.554
  148DPPC    C3 7353   2.806   6.533   5.323
  148DPPC    N4 7354   2.771   6.560   5.464
  148DPPC    C5 7355   2.763   6.703   5.494
  148DPPC    C6 7356   2.845   6.809   5.419
  148DPPC    O7 7357   2.985   6.783   5.411
  148DPPC    P8 7358   3.072   6.917   5.435
  148DPPC    O9 7359   3.213   6.876   5.423
  148DPPC   O10 7360   3.034   6.983   5.562
  148DPPC   O11 7361   3.011   6.993   5.307
  148DPPC   C12 7362   3.070   6.967   5.180
  148DPPC   C13 7363   2.978   7.011   5.066
  148DPPC   O14 7364   3.012   6.943   4.945
  148DPPC   C15 7365   2.990   6.811   4.920
  148DPPC   O16 7366   2.923   6.746   5.001
  148DPPC   C17 7367   3.047   6.747   4.794
  148DPPC   C18 7368   2.952   6.658   4.713
  148DPPC   C19 7369   3.015   6.583   4.595
  148DPPC   C20 7370   3.103   6.692   4.533
  148DPPC   C21 7371   3.199   6.612   4.444
  148DPPC   C22 7372   3.257   6.703   4.336
  148DPPC   C23 7373   3.162   6.786   4.250
  148DPPC   C24 7374   3.241   6.858   4.141
  148DPPC   C25 7375   3.300   6.765   4.035
  148DPPC   C26 7376   3.344   6.844   3.912
  148DPPC   C27 7377   3.456   6.762   3.847
  148DPPC   C28 7378   3.526   6.838   3.734
  148DPPC   C29 7379   3.615   6.744   3.653
  148DPPC   C30 7380   3.668   6.815   3.528
  148DPPC   C31 7381   3.792   6.731   3.493
  148DPPC   C32 7382   2.994   7.163   5.069
  148DPPC   O33 7383   3.126   7.215   5.089
  148DPPC   C34 7384   3.126   7.351   5.103
  148DPPC   O35 7385   3.018   7.409   5.101
  148DPPC   C36 7386   3.254   7.434   5.092
  148DPPC   C37 7387   3.294   7.494   4.957
  148DPPC   C38 7388   3.418   7.582   4.970
  148DPPC   C39 7389   3.491   7.604   4.837
  148DPPC   C40 7390   3.540   7.467   4.789
  148DPPC   C41 7391   3.599   7.484   4.649
  148DPPC   C42 7392   3.707   7.592   4.641
  148DPPC   C43 7393   3.755   7.605   4.497
  148DPPC   C44 7394   3.870   7.514   4.453
  148DPPC   C45 7395   3.916   7.544   4.310
  148DPPC   C46 7396   3.978   7.419   4.247
  148DPPC   C47 7397   4.004   7.456   4.100
  148DPPC   C48 7398   4.085   7.352   4.022
  148DPPC   C49 7399   4.097   7.392   3.875
  148DPPC   C50 7400   4.190   7.295   3.801
  149DPPC    C1 7401   5.213   0.487   5.318
  149DPPC    C2 7402   5.275   0.542   5.093
  149DPPC    C3 7403   5.112   0.660   5.219
  149DPPC    N4 7404   5.245   0.597   5.226
  149DPPC    C5 7405   5.340   0.697   5.275
  149DPPC    C6 7406   5.428   0.676   5.398
  149DPPC    O7 7407   5.522   0.778   5.436
  149DPPC    P8 7408   5.637   0.723   5.534
  149DPPC    O9 7409   5.596   0.591   5.586
  149DPPC   O10 7410   5.707   0.826   5.615
  149DPPC   O11 7411   5.727   0.661   5.416
  149DPPC   C12 7412   5.818   0.760   5.365
  149DPPC   C13 7413   5.843   0.745   5.215
  149DPPC   O14 7414   5.961   0.816   5.173
  149DPPC   C15 7415   6.070   0.765   5.111
  149DPPC   O16 7416   6.098   0.646   5.124
  149DPPC   C17 7417   6.168   0.871   5.061
  149DPPC   C18 7418   6.152   0.879   4.909
  149DPPC   C19 7419   6.263   0.958   4.840
  149DPPC   C20 7420   6.258   0.939   4.688
  149DPPC   C21 7421   6.343   1.033   4.603
  149DPPC   C22 7422   6.354   0.965   4.466
  149DPPC   C23 7423   6.433   1.062   4.379
  149DPPC   C24 7424   6.463   1.010   4.238
  149DPPC   C25 7425   6.567   1.114   4.195
  149DPPC   C26 7426   6.555   1.176   4.056
  149DPPC   C27 7427   6.676   1.269   4.048
  149DPPC   C28 7428   6.672   1.339   3.912
  149DPPC   C29 7429   6.771   1.457   3.910
  149DPPC   C30 7430   6.754   1.545   3.787
  149DPPC   C31 7431   6.625   1.628   3.782
  149DPPC   C32 7432   5.708   0.769   5.147
  149DPPC   O33 7433   5.707   0.758   5.005
  149DPPC   C34 7434   5.587   0.804   4.961
  149DPPC   O35 7435   5.483   0.807   5.026
  149DPPC   C36 7436   5.574   0.812   4.808
  149DPPC   C37 7437   5.587   0.955   4.756
  149DPPC   C38 7438   5.586   0.972   4.604
  149DPPC   C39 7439   5.706   0.934   4.516
  149DPPC   C40 7440   5.704   0.979   4.370
  149DPPC   C41 7441   5.823   0.925   4.291
  149DPPC   C42 7442   5.935   1.022   4.253
  149DPPC   C43 7443   5.859   1.136   4.186
  149DPPC   C44 7444   5.932   1.184   4.061
  149DPPC   C45 7445   5.856   1.304   4.004
  149DPPC   C46 7446   5.901   1.361   3.870
  149DPPC   C47 7447   5.818   1.481   3.823
  149DPPC   C48 7448   5.668   1.458   3.803
  149DPPC   C49 7449   5.594   1.591   3.787
  149DPPC   C50 7450   5.441   1.586   3.781
  150DPPC    C1 7451   4.700   0.892   5.925
  150DPPC    C2 7452   4.833   0.718   5.853
  150DPPC    C3 7453   4.742   0.878   5.694
  150DPPC    N4 7454   4.803   0.860   5.826
  150DPPC    C5 7455   4.912   0.957   5.842
  150DPPC    C6 7456   5.040   0.942   5.759
  150DPPC    O7 7457   5.032   0.973   5.620
  150DPPC    P8 7458   5.165   0.947   5.532
  150DPPC    O9 7459   5.192   0.808   5.576
  150DPPC   O10 7460   5.266   1.052   5.557
  150DPPC   O11 7461   5.099   0.944   5.386
  150DPPC   C12 7462   5.054   1.078   5.367
  150DPPC   C13 7463   4.925   1.111   5.291
  150DPPC   O14 7464   4.799   1.074   5.350
  150DPPC   C15 7465   4.714   1.176   5.377
  150DPPC   O16 7466   4.742   1.292   5.348
  150DPPC   C17 7467   4.572   1.141   5.422
  150DPPC   C18 7468   4.472   1.237   5.359
  150DPPC   C19 7469   4.392   1.153   5.259
  150DPPC   C20 7470   4.284   1.240   5.195
  150DPPC   C21 7471   4.188   1.169   5.100
  150DPPC   C22 7472   4.094   1.273   5.039
  150DPPC   C23 7473   3.962   1.196   5.022
  150DPPC   C24 7474   3.852   1.276   4.952
  150DPPC   C25 7475   3.739   1.185   4.903
  150DPPC   C26 7476   3.641   1.269   4.821
  150DPPC   C27 7477   3.523   1.175   4.792
  150DPPC   C28 7478   3.406   1.271   4.772
  150DPPC   C29 7479   3.285   1.206   4.705
  150DPPC   C30 7480   3.332   1.170   4.564
  150DPPC   C31 7481   3.219   1.088   4.500
  150DPPC   C32 7482   4.941   1.050   5.151
  150DPPC   O33 7483   5.059   1.087   5.079
  150DPPC   C34 7484   5.110   1.008   4.981
  150DPPC   O35 7485   5.072   0.891   4.977
  150DPPC   C36 7486   5.210   1.071   4.884
  150DPPC   C37 7487   5.142   1.106   4.751
  150DPPC   C38 7488   5.228   1.193   4.659
  150DPPC   C39 7489   5.159   1.225   4.526
  150DPPC   C40 7490   5.144   1.104   4.434
  150DPPC   C41 7491   5.063   1.153   4.314
  150DPPC   C42 7492   5.020   1.044   4.216
  150DPPC   C43 7493   4.888   1.076   4.144
  150DPPC   C44 7494   4.775   1.105   4.243
  150DPPC   C45 7495   4.641   1.113   4.170
  150DPPC   C46 7496   4.544   1.193   4.258
  150DPPC   C47 7497   4.403   1.162   4.209
  150DPPC   C48 7498   4.406   1.195   4.060
  150DPPC   C49 7499   4.264   1.199   4.003
  150DPPC   C50 7500   4.264   1.245   3.857
  151DPPC    C1 7501   0.996   0.898   5.203
  151DPPC    C2 7502   1.124   0.739   5.087
  151DPPC    C3 7503   1.016   0.681   5.294
  151DPPC    N4 7504   1.003   0.756   5.168
  151DPPC    C5 7505   0.892   0.725   5.076
  151DPPC    C6 7506   0.805   0.605   5.115
  151DPPC    O7 7507   0.712   0.563   5.015
  151DPPC    P8 7508   0.682   0.406   5.030
  151DPPC    O9 7509   0.546   0.360   4.993
  151DPPC   O10 7510   0.754   0.358   5.150
  151DPPC   O11 7511   0.764   0.383   4.893
  151DPPC   C12 7512   0.670   0.399   4.786
  151DPPC   C13 7513   0.723   0.427   4.645
  151DPPC   O14 7514   0.761   0.313   4.566
  151DPPC   C15 7515   0.877   0.246   4.586
  151DPPC   O16 7516   0.954   0.270   4.680
  151DPPC   C17 7517   0.898   0.131   4.488
  151DPPC   C18 7518   0.935   0.175   4.346
  151DPPC   C19 7519   0.962   0.053   4.256
  151DPPC   C20 7520   1.044   0.090   4.133
  151DPPC   C21 7521   0.967   0.180   4.036
  151DPPC   C22 7522   0.858   0.106   3.959
  151DPPC   C23 7523   0.918   0.009   3.857
  151DPPC   C24 7524   0.812  -0.071   3.781
  151DPPC   C25 7525   0.719   0.021   3.702
  151DPPC   C26 7526   0.621  -0.047   3.606
  151DPPC   C27 7527   0.558   0.054   3.510
  151DPPC   C28 7528   0.481   0.161   3.588
  151DPPC   C29 7529   0.390   0.260   3.515
  151DPPC   C30 7530   0.350   0.381   3.599
  151DPPC   C31 7531   0.278   0.495   3.526
  151DPPC   C32 7532   0.824   0.542   4.656
  151DPPC   O33 7533   0.755   0.656   4.710
  151DPPC   C34 7534   0.825   0.770   4.733
  151DPPC   O35 7535   0.947   0.764   4.722
  151DPPC   C36 7536   0.749   0.902   4.744
  151DPPC   C37 7537   0.678   0.927   4.611
  151DPPC   C38 7538   0.529   0.960   4.610
  151DPPC   C39 7539   0.468   0.940   4.471
  151DPPC   C40 7540   0.317   0.955   4.457
  151DPPC   C41 7541   0.278   0.942   4.309
  151DPPC   C42 7542   0.131   0.983   4.300
  151DPPC   C43 7543   0.080   0.991   4.156
  151DPPC   C44 7544   0.176   1.094   4.096
  151DPPC   C45 7545   0.150   1.245   4.108
  151DPPC   C46 7546   0.232   1.331   4.012
  151DPPC   C47 7547   0.182   1.323   3.868
  151DPPC   C48 7548   0.050   1.399   3.849
  151DPPC   C49 7549   0.012   1.414   3.701
  151DPPC   C50 7550  -0.134   1.456   3.684
  152DPPC    C1 7551   4.871   1.806   6.074
  152DPPC    C2 7552   5.083   1.819   5.952
  152DPPC    C3 7553   5.017   1.615   6.032
  152DPPC    N4 7554   4.962   1.740   5.979
  152DPPC    C5 7555   4.895   1.720   5.849
  152DPPC    C6 7556   4.785   1.619   5.818
  152DPPC    O7 7557   4.654   1.656   5.773
  152DPPC    P8 7558   4.550   1.533   5.763
  152DPPC    O9 7559   4.452   1.530   5.873
  152DPPC   O10 7560   4.621   1.414   5.711
  152DPPC   O11 7561   4.465   1.618   5.656
  152DPPC   C12 7562   4.539   1.629   5.534
  152DPPC   C13 7563   4.462   1.707   5.428
  152DPPC   O14 7564   4.467   1.644   5.299
  152DPPC   C15 7565   4.340   1.637   5.250
  152DPPC   O16 7566   4.246   1.614   5.325
  152DPPC   C17 7567   4.331   1.613   5.099
  152DPPC   C18 7568   4.366   1.741   5.023
  152DPPC   C19 7569   4.514   1.778   5.002
  152DPPC   C20 7570   4.514   1.909   4.924
  152DPPC   C21 7571   4.653   1.973   4.917
  152DPPC   C22 7572   4.694   2.005   4.773
  152DPPC   C23 7573   4.828   2.078   4.780
  152DPPC   C24 7574   4.875   2.106   4.637
  152DPPC   C25 7575   4.797   2.230   4.594
  152DPPC   C26 7576   4.827   2.255   4.446
  152DPPC   C27 7577   4.799   2.131   4.360
  152DPPC   C28 7578   4.919   2.097   4.271
  152DPPC   C29 7579   4.899   1.972   4.185
  152DPPC   C30 7580   4.988   1.960   4.061
  152DPPC   C31 7581   4.907   2.044   3.962
  152DPPC   C32 7582   4.483   1.859   5.433
  152DPPC   O33 7583   4.623   1.885   5.421
  152DPPC   C34 7584   4.665   2.009   5.383
  152DPPC   O35 7585   4.589   2.102   5.360
  152DPPC   C36 7586   4.808   2.014   5.329
  152DPPC   C37 7587   4.833   1.889   5.245
  152DPPC   C38 7588   4.971   1.891   5.177
  152DPPC   C39 7589   4.976   1.769   5.084
  152DPPC   C40 7590   5.101   1.798   5.002
  152DPPC   C41 7591   5.126   1.693   4.893
  152DPPC   C42 7592   5.013   1.710   4.790
  152DPPC   C43 7593   5.037   1.630   4.662
  152DPPC   C44 7594   4.946   1.675   4.548
  152DPPC   C45 7595   4.958   1.580   4.430
  152DPPC   C46 7596   4.887   1.635   4.305
  152DPPC   C47 7597   4.907   1.547   4.182
  152DPPC   C48 7598   4.802   1.580   4.076
  152DPPC   C49 7599   4.818   1.485   3.958
  152DPPC   C50 7600   4.699   1.487   3.863
  153DPPC    C1 7601   2.037   1.283   5.627
  153DPPC    C2 7602   2.198   1.151   5.737
  153DPPC    C3 7603   1.966   1.093   5.724
  153DPPC    N4 7604   2.081   1.144   5.648
  153DPPC    C5 7605   2.085   1.077   5.517
  153DPPC    C6 7606   2.125   0.929   5.521
  153DPPC    O7 7607   2.262   0.908   5.556
  153DPPC    P8 7608   2.269   0.760   5.620
  153DPPC    O9 7609   2.131   0.725   5.661
  153DPPC   O10 7610   2.389   0.752   5.705
  153DPPC   O11 7611   2.301   0.687   5.480
  153DPPC   C12 7612   2.428   0.727   5.428
  153DPPC   C13 7613   2.497   0.627   5.334
  153DPPC   O14 7614   2.617   0.675   5.273
  153DPPC   C15 7615   2.703   0.588   5.213
  153DPPC   O16 7616   2.700   0.469   5.243
  153DPPC   C17 7617   2.796   0.635   5.100
  153DPPC   C18 7618   2.746   0.582   4.966
  153DPPC   C19 7619   2.837   0.616   4.847
  153DPPC   C20 7620   2.775   0.562   4.718
  153DPPC   C21 7621   2.903   0.548   4.634
  153DPPC   C22 7622   2.888   0.462   4.508
  153DPPC   C23 7623   3.008   0.468   4.414
  153DPPC   C24 7624   2.969   0.386   4.291
  153DPPC   C25 7625   3.036   0.425   4.160
  153DPPC   C26 7626   2.994   0.355   4.030
  153DPPC   C27 7627   3.062   0.420   3.910
  153DPPC   C28 7628   3.024   0.358   3.775
  153DPPC   C29 7629   3.040   0.432   3.641
  153DPPC   C30 7630   2.956   0.365   3.532
  153DPPC   C31 7631   3.022   0.232   3.493
  153DPPC   C32 7632   2.387   0.595   5.233
  153DPPC   O33 7633   2.417   0.502   5.128
  153DPPC   C34 7634   2.314   0.448   5.057
  153DPPC   O35 7635   2.200   0.479   5.091
  153DPPC   C36 7636   2.339   0.379   4.923
  153DPPC   C37 7637   2.248   0.405   4.803
  153DPPC   C38 7638   2.306   0.343   4.676
  153DPPC   C39 7639   2.201   0.341   4.565
  153DPPC   C40 7640   2.212   0.457   4.466
  153DPPC   C41 7641   2.099   0.449   4.364
  153DPPC   C42 7642   2.102   0.569   4.270
  153DPPC   C43 7643   1.957   0.573   4.220
  153DPPC   C44 7644   1.854   0.605   4.328
  153DPPC   C45 7645   1.718   0.585   4.262
  153DPPC   C46 7646   1.615   0.662   4.345
  153DPPC   C47 7647   1.650   0.811   4.336
  153DPPC   C48 7648   1.562   0.906   4.417
  153DPPC   C49 7649   1.594   1.044   4.359
  153DPPC   C50 7650   1.499   1.142   4.428
  154DPPC    C1 7651   9.107   7.594   5.525
  154DPPC    C2 7652   9.195   7.807   5.491
  154DPPC    C3 7653   9.053   7.710   5.326
  154DPPC    N4 7654   9.074   7.727   5.471
  154DPPC    C5 7655   8.956   7.775   5.544
  154DPPC    C6 7656   8.900   7.917   5.532
  154DPPC    O7 7657   8.821   7.932   5.413
  154DPPC    P8 7658   8.797   8.087   5.378
  154DPPC    O9 7659   8.774   8.162   5.504
  154DPPC   O10 7660   8.708   8.110   5.261
  154DPPC   O11 7661   8.948   8.111   5.328
  154DPPC   C12 7662   8.953   8.164   5.195
  154DPPC   C13 7663   9.089   8.222   5.153
  154DPPC   O14 7664   9.084   8.301   5.033
  154DPPC   C15 7665   9.190   8.374   4.989
  154DPPC   O16 7666   9.292   8.399   5.054
  154DPPC   C17 7667   9.163   8.435   4.852
  154DPPC   C18 7668   9.251   8.552   4.808
  154DPPC   C19 7669   9.198   8.627   4.686
  154DPPC   C20 7670   9.300   8.725   4.628
  154DPPC   C21 7671   9.306   8.696   4.478
  154DPPC   C22 7672   9.163   8.733   4.436
  154DPPC   C23 7673   9.152   8.726   4.283
  154DPPC   C24 7674   9.011   8.741   4.225
  154DPPC   C25 7675   9.012   8.681   4.085
  154DPPC   C26 7676   8.875   8.713   4.024
  154DPPC   C27 7677   8.838   8.638   3.895
  154DPPC   C28 7678   8.927   8.685   3.780
  154DPPC   C29 7679   8.895   8.610   3.651
  154DPPC   C30 7680   8.912   8.462   3.685
  154DPPC   C31 7681   8.893   8.372   3.563
  154DPPC   C32 7682   9.166   8.092   5.129
  154DPPC   O33 7683   9.105   7.997   5.041
  154DPPC   C34 7684   9.168   7.887   4.993
  154DPPC   O35 7685   9.284   7.854   5.018
  154DPPC   C36 7686   9.087   7.802   4.894
  154DPPC   C37 7687   9.013   7.885   4.789
  154DPPC   C38 7688   8.944   7.798   4.684
  154DPPC   C39 7689   8.856   7.869   4.581
  154DPPC   C40 7690   8.785   7.769   4.490
  154DPPC   C41 7691   8.658   7.823   4.424
  154DPPC   C42 7692   8.605   7.758   4.296
  154DPPC   C43 7693   8.712   7.731   4.190
  154DPPC   C44 7694   8.668   7.658   4.063
  154DPPC   C45 7695   8.799   7.633   3.987
  154DPPC   C46 7696   8.800   7.493   3.926
  154DPPC   C47 7697   8.930   7.477   3.846
  154DPPC   C48 7698   8.933   7.570   3.724
  154DPPC   C49 7699   9.078   7.572   3.674
  154DPPC   C50 7700   9.106   7.656   3.549
  155DPPC    C1 7701   3.699   4.114   6.531
  155DPPC    C2 7702   3.659   3.875   6.524
  155DPPC    C3 7703   3.501   4.027   6.609
  155DPPC    N4 7704   3.600   4.008   6.503
  155DPPC    C5 7705   3.562   4.042   6.365
  155DPPC    C6 7706   3.449   3.966   6.297
  155DPPC    O7 7707   3.420   4.029   6.172
  155DPPC    P8 7708   3.284   3.978   6.103
  155DPPC    O9 7709   3.230   4.095   6.031
  155DPPC   O10 7710   3.215   3.891   6.202
  155DPPC   O11 7711   3.363   3.880   6.003
  155DPPC   C12 7712   3.456   3.942   5.914
  155DPPC   C13 7713   3.504   3.848   5.803
  155DPPC   O14 7714   3.589   3.923   5.715
  155DPPC   C15 7715   3.704   3.869   5.665
  155DPPC   O16 7716   3.779   3.812   5.743
  155DPPC   C17 7717   3.750   3.927   5.531
  155DPPC   C18 7718   3.663   3.894   5.410
  155DPPC   C19 7719   3.730   3.954   5.286
  155DPPC   C20 7720   3.661   3.916   5.155
  155DPPC   C21 7721   3.724   4.008   5.050
  155DPPC   C22 7722   3.618   4.017   4.940
  155DPPC   C23 7723   3.685   4.097   4.829
  155DPPC   C24 7724   3.610   4.098   4.696
  155DPPC   C25 7725   3.713   4.147   4.594
  155DPPC   C26 7726   3.680   4.134   4.445
  155DPPC   C27 7727   3.809   4.128   4.363
  155DPPC   C28 7728   3.783   4.104   4.214
  155DPPC   C29 7729   3.741   4.212   4.114
  155DPPC   C30 7730   3.729   4.150   3.974
  155DPPC   C31 7731   3.712   4.271   3.882
  155DPPC   C32 7732   3.383   3.788   5.732
  155DPPC   O33 7733   3.407   3.684   5.637
  155DPPC   C34 7734   3.298   3.630   5.575
  155DPPC   O35 7735   3.186   3.652   5.620
  155DPPC   C36 7736   3.329   3.527   5.466
  155DPPC   C37 7737   3.379   3.583   5.333
  155DPPC   C38 7738   3.386   3.468   5.232
  155DPPC   C39 7739   3.400   3.523   5.090
  155DPPC   C40 7740   3.409   3.408   4.989
  155DPPC   C41 7741   3.382   3.459   4.847
  155DPPC   C42 7742   3.404   3.333   4.762
  155DPPC   C43 7743   3.434   3.382   4.620
  155DPPC   C44 7744   3.454   3.277   4.511
  155DPPC   C45 7745   3.505   3.327   4.376
  155DPPC   C46 7746   3.530   3.211   4.280
  155DPPC   C47 7747   3.581   3.251   4.141
  155DPPC   C48 7748   3.626   3.123   4.071
  155DPPC   C49 7749   3.655   3.159   3.925
  155DPPC   C50 7750   3.538   3.189   3.832
  156DPPC    C1 7751   7.390   2.631   6.146
  156DPPC    C2 7752   7.169   2.622   6.243
  156DPPC    C3 7753   7.234   2.799   6.100
  156DPPC    N4 7754   7.247   2.655   6.123
  156DPPC    C5 7755   7.214   2.581   5.999
  156DPPC    C6 7756   7.233   2.430   5.996
  156DPPC    O7 7757   7.154   2.380   5.887
  156DPPC    P8 7758   7.207   2.232   5.854
  156DPPC    O9 7759   7.120   2.169   5.751
  156DPPC   O10 7760   7.253   2.169   5.980
  156DPPC   O11 7761   7.334   2.273   5.765
  156DPPC   C12 7762   7.293   2.368   5.666
  156DPPC   C13 7763   7.402   2.408   5.566
  156DPPC   O14 7764   7.357   2.494   5.460
  156DPPC   C15 7765   7.351   2.626   5.490
  156DPPC   O16 7766   7.369   2.650   5.610
  156DPPC   C17 7767   7.313   2.726   5.381
  156DPPC   C18 7768   7.410   2.740   5.263
  156DPPC   C19 7769   7.326   2.823   5.164
  156DPPC   C20 7770   7.200   2.746   5.124
  156DPPC   C21 7771   7.096   2.822   5.042
  156DPPC   C22 7772   7.001   2.718   4.982
  156DPPC   C23 7773   6.899   2.790   4.894
  156DPPC   C24 7774   6.983   2.865   4.791
  156DPPC   C25 7775   6.915   2.945   4.680
  156DPPC   C26 7776   6.818   3.050   4.733
  156DPPC   C27 7777   6.831   3.192   4.677
  156DPPC   C28 7778   6.718   3.216   4.576
  156DPPC   C29 7779   6.748   3.341   4.493
  156DPPC   C30 7780   6.637   3.363   4.390
  156DPPC   C31 7781   6.660   3.488   4.303
  156DPPC   C32 7782   7.492   2.287   5.539
  156DPPC   O33 7783   7.431   2.166   5.495
  156DPPC   C34 7784   7.517   2.063   5.475
  156DPPC   O35 7785   7.629   2.063   5.527
  156DPPC   C36 7786   7.471   1.943   5.392
  156DPPC   C37 7787   7.590   1.890   5.312
  156DPPC   C38 7788   7.552   1.768   5.227
  156DPPC   C39 7789   7.463   1.808   5.109
  156DPPC   C40 7790   7.412   1.690   5.026
  156DPPC   C41 7791   7.317   1.735   4.916
  156DPPC   C42 7792   7.182   1.779   4.974
  156DPPC   C43 7793   7.091   1.848   4.873
  156DPPC   C44 7794   6.941   1.863   4.901
  156DPPC   C45 7795   6.886   1.949   4.787
  156DPPC   C46 7796   6.734   1.934   4.789
  156DPPC   C47 7797   6.672   1.981   4.657
  156DPPC   C48 7798   6.697   1.869   4.556
  156DPPC   C49 7799   6.650   1.908   4.415
  156DPPC   C50 7800   6.687   2.049   4.370
  157DPPC    C1 7801   0.283   0.959   5.397
  157DPPC    C2 7802   0.198   1.133   5.513
  157DPPC    C3 7803   0.438   1.102   5.507
  157DPPC    N4 7804   0.313   1.099   5.429
  157DPPC    C5 7805   0.330   1.170   5.301
  157DPPC    C6 7806   0.366   1.318   5.308
  157DPPC    O7 7807   0.275   1.411   5.368
  157DPPC    P8 7808   0.362   1.521   5.447
  157DPPC    O9 7809   0.441   1.438   5.540
  157DPPC   O10 7810   0.258   1.623   5.479
  157DPPC   O11 7811   0.458   1.583   5.334
  157DPPC   C12 7812   0.390   1.692   5.273
  157DPPC   C13 7813   0.466   1.750   5.154
  157DPPC   O14 7814   0.411   1.867   5.091
  157DPPC   C15 7815   0.407   1.984   5.161
  157DPPC   O16 7816   0.439   1.995   5.279
  157DPPC   C17 7817   0.359   2.104   5.079
  157DPPC   C18 7818   0.381   2.095   4.928
  157DPPC   C19 7819   0.523   2.135   4.884
  157DPPC   C20 7820   0.528   2.121   4.732
  157DPPC   C21 7821   0.535   1.973   4.694
  157DPPC   C22 7822   0.560   1.961   4.543
  157DPPC   C23 7823   0.561   1.817   4.490
  157DPPC   C24 7824   0.561   1.828   4.337
  157DPPC   C25 7825   0.455   1.927   4.287
  157DPPC   C26 7826   0.443   1.918   4.135
  157DPPC   C27 7827   0.444   1.773   4.087
  157DPPC   C28 7828   0.443   1.779   3.934
  157DPPC   C29 7829   0.425   1.634   3.887
  157DPPC   C30 7830   0.410   1.619   3.735
  157DPPC   C31 7831   0.415   1.475   3.686
  157DPPC   C32 7832   0.474   1.632   5.057
  157DPPC   O33 7833   0.342   1.587   5.024
  157DPPC   C34 7834   0.329   1.481   4.939
  157DPPC   O35 7835   0.419   1.399   4.924
  157DPPC   C36 7836   0.188   1.459   4.884
  157DPPC   C37 7837   0.106   1.585   4.857
  157DPPC   C38 7838   0.177   1.687   4.767
  157DPPC   C39 7839   0.086   1.811   4.763
  157DPPC   C40 7840   0.139   1.924   4.675
  157DPPC   C41 7841   0.027   2.013   4.620
  157DPPC   C42 7842  -0.072   1.933   4.536
  157DPPC   C43 7843  -0.178   2.015   4.462
  157DPPC   C44 7844  -0.277   1.936   4.376
  157DPPC   C45 7845  -0.359   2.036   4.295
  157DPPC   C46 7846  -0.449   1.962   4.196
  157DPPC   C47 7847  -0.534   2.069   4.127
  157DPPC   C48 7848  -0.459   2.164   4.032
  157DPPC   C49 7849  -0.555   2.267   3.972
  157DPPC   C50 7850  -0.649   2.190   3.879
  158DPPC    C1 7851   2.882   0.780   5.516
  158DPPC    C2 7852   2.971   0.555   5.569
  158DPPC    C3 7853   3.046   0.661   5.390
  158DPPC    N4 7854   2.999   0.692   5.526
  158DPPC    C5 7855   3.095   0.750   5.622
  158DPPC    C6 7856   3.194   0.862   5.588
  158DPPC    O7 7857   3.146   0.995   5.605
  158DPPC    P8 7858   3.266   1.079   5.673
  158DPPC    O9 7859   3.328   0.990   5.774
  158DPPC   O10 7860   3.237   1.222   5.698
  158DPPC   O11 7861   3.371   1.072   5.551
  158DPPC   C12 7862   3.328   1.163   5.450
  158DPPC   C13 7863   3.439   1.200   5.351
  158DPPC   O14 7864   3.425   1.329   5.291
  158DPPC   C15 7865   3.539   1.397   5.265
  158DPPC   O16 7866   3.653   1.353   5.281
  158DPPC   C17 7867   3.525   1.482   5.139
  158DPPC   C18 7868   3.465   1.620   5.170
  158DPPC   C19 7869   3.457   1.714   5.049
  158DPPC   C20 7870   3.386   1.650   4.930
  158DPPC   C21 7871   3.392   1.739   4.806
  158DPPC   C22 7872   3.290   1.677   4.709
  158DPPC   C23 7873   3.314   1.713   4.563
  158DPPC   C24 7874   3.215   1.645   4.468
  158DPPC   C25 7875   3.243   1.684   4.323
  158DPPC   C26 7876   3.151   1.607   4.228
  158DPPC   C27 7877   3.201   1.635   4.086
  158DPPC   C28 7878   3.116   1.569   3.978
  158DPPC   C29 7879   3.160   1.603   3.835
  158DPPC   C30 7880   3.305   1.568   3.801
  158DPPC   C31 7881   3.348   1.648   3.678
  158DPPC   C32 7882   3.462   1.082   5.256
  158DPPC   O33 7883   3.346   1.029   5.190
  158DPPC   C34 7884   3.380   0.931   5.101
  158DPPC   O35 7885   3.492   0.884   5.087
  158DPPC   C36 7886   3.256   0.903   5.015
  158DPPC   C37 7887   3.196   0.767   5.050
  158DPPC   C38 7888   3.263   0.645   4.987
  158DPPC   C39 7889   3.175   0.521   4.974
  158DPPC   C40 7890   3.246   0.436   4.868
  158DPPC   C41 7891   3.269   0.515   4.739
  158DPPC   C42 7892   3.343   0.419   4.646
  158DPPC   C43 7893   3.381   0.488   4.515
  158DPPC   C44 7894   3.486   0.595   4.546
  158DPPC   C45 7895   3.570   0.638   4.426
  158DPPC   C46 7896   3.652   0.758   4.475
  158DPPC   C47 7897   3.744   0.813   4.366
  158DPPC   C48 7898   3.828   0.932   4.412
  158DPPC   C49 7899   3.928   0.977   4.305
  158DPPC   C50 7900   4.023   0.861   4.275
  159DPPC    C1 7901   3.531   8.224   4.920
  159DPPC    C2 7902   3.449   7.998   4.906
  159DPPC    C3 7903   3.610   8.053   5.065
  159DPPC    N4 7904   3.490   8.106   4.998
  159DPPC    C5 7905   3.372   8.130   5.082
  159DPPC    C6 7906   3.340   8.260   5.156
  159DPPC    O7 7907   3.277   8.361   5.076
  159DPPC    P8 7908   3.283   8.502   5.153
  159DPPC    O9 7909   3.282   8.465   5.296
  159DPPC   O10 7910   3.178   8.584   5.089
  159DPPC   O11 7911   3.429   8.540   5.095
  159DPPC   C12 7912   3.436   8.653   5.007
  159DPPC   C13 7913   3.577   8.685   4.955
  159DPPC   O14 7914   3.604   8.822   4.924
  159DPPC   C15 7915   3.617   8.923   5.015
  159DPPC   O16 7916   3.597   8.898   5.134
  159DPPC   C17 7917   3.637   9.064   4.961
  159DPPC   C18 7918   3.760   9.083   4.872
  159DPPC   C19 7919   3.781   9.227   4.827
  159DPPC   C20 7920   3.927   9.257   4.794
  159DPPC   C21 7921   3.946   9.402   4.750
  159DPPC   C22 7922   4.097   9.430   4.754
  159DPPC   C23 7923   4.176   9.413   4.623
  159DPPC   C24 7924   4.324   9.438   4.649
  159DPPC   C25 7925   4.403   9.439   4.518
  159DPPC   C26 7926   4.400   9.299   4.456
  159DPPC   C27 7927   4.450   9.306   4.312
  159DPPC   C28 7928   4.416   9.169   4.253
  159DPPC   C29 7929   4.498   9.130   4.130
  159DPPC   C30 7930   4.485   9.231   4.015
  159DPPC   C31 7931   4.351   9.245   3.943
  159DPPC   C32 7932   3.603   8.588   4.839
  159DPPC   O33 7933   3.513   8.600   4.729
  159DPPC   C34 7934   3.548   8.520   4.625
  159DPPC   O35 7935   3.644   8.443   4.626
  159DPPC   C36 7936   3.455   8.541   4.505
  159DPPC   C37 7937   3.536   8.592   4.386
  159DPPC   C38 7938   3.438   8.673   4.301
  159DPPC   C39 7939   3.511   8.728   4.178
  159DPPC   C40 7940   3.420   8.735   4.055
  159DPPC   C41 7941   3.502   8.798   3.942
  159DPPC   C42 7942   3.604   8.704   3.879
  159DPPC   C43 7943   3.664   8.784   3.763
  159DPPC   C44 7944   3.766   8.699   3.688
  159DPPC   C45 7945   3.813   8.763   3.557
  159DPPC   C46 7946   3.697   8.813   3.472
  159DPPC   C47 7947   3.762   8.924   3.389
  159DPPC   C48 7948   3.895   8.869   3.336
  159DPPC   C49 7949   3.963   8.990   3.273
  159DPPC   C50 7950   3.883   9.050   3.157
  160DPPC    C1 7951   1.026   3.457   5.799
  160DPPC    C2 7952   0.931   3.359   5.606
  160DPPC    C3 7953   1.029   3.562   5.580
  160DPPC    N4 7954   1.046   3.436   5.655
  160DPPC    C5 7955   1.170   3.361   5.628
  160DPPC    C6 7956   1.305   3.418   5.672
  160DPPC    O7 7957   1.420   3.349   5.624
  160DPPC    P8 7958   1.559   3.426   5.651
  160DPPC    O9 7959   1.662   3.326   5.690
  160DPPC   O10 7960   1.516   3.540   5.735
  160DPPC   O11 7961   1.572   3.471   5.497
  160DPPC   C12 7962   1.614   3.356   5.423
  160DPPC   C13 7963   1.635   3.372   5.272
  160DPPC   O14 7964   1.767   3.335   5.231
  160DPPC   C15 7965   1.782   3.215   5.168
  160DPPC   O16 7966   1.719   3.122   5.218
  160DPPC   C17 7967   1.912   3.203   5.088
  160DPPC   C18 7968   1.884   3.139   4.952
  160DPPC   C19 7969   2.018   3.141   4.879
  160DPPC   C20 7970   2.024   3.048   4.758
  160DPPC   C21 7971   2.033   2.900   4.795
  160DPPC   C22 7972   2.024   2.815   4.667
  160DPPC   C23 7973   1.895   2.844   4.589
  160DPPC   C24 7974   1.857   2.722   4.505
  160DPPC   C25 7975   1.726   2.742   4.430
  160DPPC   C26 7976   1.690   2.640   4.321
  160DPPC   C27 7977   1.785   2.637   4.201
  160DPPC   C28 7978   1.725   2.548   4.092
  160DPPC   C29 7979   1.826   2.562   3.978
  160DPPC   C30 7980   1.766   2.481   3.863
  160DPPC   C31 7981   1.846   2.458   3.734
  160DPPC   C32 7982   1.590   3.517   5.248
  160DPPC   O33 7983   1.570   3.559   5.113
  160DPPC   C34 7984   1.587   3.694   5.112
  160DPPC   O35 7985   1.622   3.753   5.214
  160DPPC   C36 7986   1.554   3.765   4.980
  160DPPC   C37 7987   1.543   3.658   4.872
  160DPPC   C38 7988   1.521   3.714   4.731
  160DPPC   C39 7989   1.467   3.601   4.643
  160DPPC   C40 7990   1.457   3.633   4.494
  160DPPC   C41 7991   1.372   3.528   4.422
  160DPPC   C42 7992   1.328   3.575   4.283
  160DPPC   C43 7993   1.242   3.472   4.211
  160DPPC   C44 7994   1.164   3.532   4.093
  160DPPC   C45 7995   1.214   3.487   3.955
  160DPPC   C46 7996   1.136   3.536   3.833
  160DPPC   C47 7997   1.196   3.467   3.711
  160DPPC   C48 7998   1.130   3.524   3.586
  160DPPC   C49 7999   1.180   3.466   3.453
  160DPPC   C50 8000   1.332   3.480   3.440
  161DPPC    C1 8001   4.675   5.647   5.801
  161DPPC    C2 8002   4.452   5.588   5.828
  161DPPC    C3 8003   4.546   5.783   5.950
  161DPPC    N4 8004   4.542   5.704   5.826
  161DPPC    C5 8005   4.528   5.783   5.703
  161DPPC    C6 8006   4.422   5.894   5.705
  161DPPC    O7 8007   4.429   5.963   5.580
  161DPPC    P8 8008   4.287   6.033   5.550
  161DPPC    O9 8009   4.293   6.180   5.553
  161DPPC   O10 8010   4.182   5.949   5.612
  161DPPC   O11 8011   4.304   6.005   5.393
  161DPPC   C12 8012   4.397   6.092   5.327
  161DPPC   C13 8013   4.431   6.041   5.187
  161DPPC   O14 8014   4.344   6.071   5.077
  161DPPC   C15 8015   4.313   6.199   5.045
  161DPPC   O16 8016   4.335   6.297   5.117
  161DPPC   C17 8017   4.227   6.229   4.922
  161DPPC   C18 8018   4.204   6.379   4.898
  161DPPC   C19 8019   4.132   6.396   4.764
  161DPPC   C20 8020   4.003   6.315   4.771
  161DPPC   C21 8021   3.948   6.316   4.628
  161DPPC   C22 8022   4.059   6.262   4.538
  161DPPC   C23 8023   4.012   6.198   4.408
  161DPPC   C24 8024   4.116   6.108   4.341
  161DPPC   C25 8025   4.069   6.072   4.200
  161DPPC   C26 8026   4.175   5.991   4.124
  161DPPC   C27 8027   4.106   5.936   3.999
  161DPPC   C28 8028   4.096   6.027   3.876
  161DPPC   C29 8029   4.066   5.946   3.750
  161DPPC   C30 8030   3.939   5.866   3.779
  161DPPC   C31 8031   3.815   5.952   3.752
  161DPPC   C32 8032   4.465   5.894   5.214
  161DPPC   O33 8033   4.557   5.824   5.130
  161DPPC   C34 8034   4.564   5.690   5.153
  161DPPC   O35 8035   4.499   5.638   5.244
  161DPPC   C36 8036   4.637   5.604   5.049
  161DPPC   C37 8037   4.594   5.646   4.908
  161DPPC   C38 8038   4.702   5.600   4.810
  161DPPC   C39 8039   4.673   5.669   4.677
  161DPPC   C40 8040   4.758   5.616   4.562
  161DPPC   C41 8041   4.750   5.694   4.430
  161DPPC   C42 8042   4.860   5.636   4.340
  161DPPC   C43 8043   4.858   5.697   4.200
  161DPPC   C44 8044   4.973   5.643   4.114
  161DPPC   C45 8045   5.101   5.720   4.144
  161DPPC   C46 8046   5.205   5.676   4.042
  161DPPC   C47 8047   5.340   5.747   4.060
  161DPPC   C48 8048   5.441   5.681   3.967
  161DPPC   C49 8049   5.583   5.731   3.997
  161DPPC   C50 8050   5.579   5.883   3.994
  162DPPC    C1 8051   6.206   6.092   5.224
  162DPPC    C2 8052   6.439   6.054   5.253
  162DPPC    C3 8053   6.318   6.150   5.434
  162DPPC    N4 8054   6.310   6.056   5.322
  162DPPC    C5 8055   6.299   5.922   5.382
  162DPPC    C6 8056   6.248   5.808   5.294
  162DPPC    O7 8057   6.324   5.777   5.177
  162DPPC    P8 8058   6.252   5.659   5.093
  162DPPC    O9 8059   6.138   5.747   5.058
  162DPPC   O10 8060   6.250   5.545   5.187
  162DPPC   O11 8061   6.371   5.654   4.984
  162DPPC   C12 8062   6.344   5.766   4.899
  162DPPC   C13 8063   6.456   5.810   4.805
  162DPPC   O14 8064   6.433   5.763   4.672
  162DPPC   C15 8065   6.343   5.836   4.600
  162DPPC   O16 8066   6.262   5.910   4.654
  162DPPC   C17 8067   6.356   5.838   4.448
  162DPPC   C18 8068   6.474   5.751   4.403
  162DPPC   C19 8069   6.503   5.772   4.254
  162DPPC   C20 8070   6.384   5.747   4.161
  162DPPC   C21 8071   6.423   5.757   4.014
  162DPPC   C22 8072   6.450   5.903   3.976
  162DPPC   C23 8073   6.495   5.904   3.830
  162DPPC   C24 8074   6.500   6.045   3.771
  162DPPC   C25 8075   6.583   6.055   3.643
  162DPPC   C26 8076   6.718   5.985   3.665
  162DPPC   C27 8077   6.787   6.009   3.530
  162DPPC   C28 8078   6.714   5.934   3.419
  162DPPC   C29 8079   6.686   5.784   3.436
  162DPPC   C30 8080   6.547   5.756   3.379
  162DPPC   C31 8081   6.542   5.761   3.226
  162DPPC   C32 8082   6.583   5.756   4.871
  162DPPC   O33 8083   6.703   5.810   4.815
  162DPPC   C34 8084   6.819   5.740   4.835
  162DPPC   O35 8085   6.813   5.646   4.914
  162DPPC   C36 8086   6.942   5.794   4.763
  162DPPC   C37 8087   6.982   5.710   4.641
  162DPPC   C38 8088   6.896   5.740   4.518
  162DPPC   C39 8089   6.961   5.678   4.394
  162DPPC   C40 8090   6.880   5.693   4.265
  162DPPC   C41 8091   6.960   5.642   4.145
  162DPPC   C42 8092   6.871   5.647   4.020
  162DPPC   C43 8093   6.941   5.594   3.895
  162DPPC   C44 8094   6.875   5.610   3.758
  162DPPC   C45 8095   6.964   5.563   3.642
  162DPPC   C46 8096   7.075   5.662   3.604
  162DPPC   C47 8097   7.159   5.604   3.491
  162DPPC   C48 8098   7.275   5.699   3.462
  162DPPC   C49 8099   7.227   5.790   3.348
  162DPPC   C50 8100   7.342   5.889   3.328
  163DPPC    C1 8101   6.183   5.054   1.381
  163DPPC    C2 8102   6.166   5.124   1.609
  163DPPC    C3 8103   6.012   4.966   1.508
  163DPPC    N4 8104   6.152   5.009   1.518
  163DPPC    C5 8105   6.247   4.906   1.560
  163DPPC    C6 8106   6.229   4.821   1.686
  163DPPC    O7 8107   6.343   4.741   1.719
  163DPPC    P8 8108   6.294   4.624   1.819
  163DPPC    O9 8109   6.407   4.540   1.865
  163DPPC   O10 8110   6.176   4.554   1.764
  163DPPC   O11 8111   6.230   4.714   1.936
  163DPPC   C12 8112   6.330   4.740   2.035
  163DPPC   C13 8113   6.282   4.857   2.120
  163DPPC   O14 8114   6.388   4.912   2.200
  163DPPC   C15 8115   6.487   4.983   2.140
  163DPPC   O16 8116   6.498   4.981   2.018
  163DPPC   C17 8117   6.605   5.032   2.225
  163DPPC   C18 8118   6.566   5.164   2.291
  163DPPC   C19 8119   6.685   5.213   2.374
  163DPPC   C20 8120   6.655   5.343   2.450
  163DPPC   C21 8121   6.760   5.348   2.561
  163DPPC   C22 8122   6.756   5.487   2.625
  163DPPC   C23 8123   6.619   5.537   2.670
  163DPPC   C24 8124   6.646   5.668   2.743
  163DPPC   C25 8125   6.694   5.778   2.648
  163DPPC   C26 8126   6.711   5.907   2.730
  163DPPC   C27 8127   6.802   5.878   2.849
  163DPPC   C28 8128   6.805   5.997   2.945
  163DPPC   C29 8129   6.914   5.989   3.052
  163DPPC   C30 8130   6.954   6.126   3.108
  163DPPC   C31 8131   7.059   6.126   3.219
  163DPPC   C32 8132   6.163   4.802   2.198
  163DPPC   O33 8133   6.088   4.915   2.244
  163DPPC   C34 8134   5.978   4.873   2.312
  163DPPC   O35 8135   5.956   4.752   2.311
  163DPPC   C36 8136   5.896   4.971   2.396
  163DPPC   C37 8137   5.919   4.971   2.547
  163DPPC   C38 8138   5.827   5.075   2.610
  163DPPC   C39 8139   5.853   5.084   2.761
  163DPPC   C40 8140   5.745   5.171   2.825
  163DPPC   C41 8141   5.744   5.149   2.976
  163DPPC   C42 8142   5.644   5.248   3.036
  163DPPC   C43 8143   5.642   5.255   3.188
  163DPPC   C44 8144   5.597   5.390   3.247
  163DPPC   C45 8145   5.632   5.396   3.395
  163DPPC   C46 8146   5.606   5.541   3.436
  163DPPC   C47 8147   5.631   5.569   3.584
  163DPPC   C48 8148   5.637   5.720   3.606
  163DPPC   C49 8149   5.734   5.773   3.500
  163DPPC   C50 8150   5.750   5.923   3.475
  164DPPC    C1 8151   2.594   2.173   2.367
  164DPPC    C2 8152   2.787   2.169   2.509
  164DPPC    C3 8153   2.699   1.966   2.436
  164DPPC    N4 8154   2.722   2.105   2.394
  164DPPC    C5 8155   2.806   2.099   2.274
  164DPPC    C6 8156   2.846   2.213   2.180
  164DPPC    O7 8157   2.936   2.299   2.249
  164DPPC    P8 8158   2.967   2.417   2.143
  164DPPC    O9 8159   2.831   2.451   2.096
  164DPPC   O10 8160   3.071   2.348   2.064
  164DPPC   O11 8161   3.037   2.520   2.245
  164DPPC   C12 8162   2.950   2.540   2.357
  164DPPC   C13 8163   3.033   2.607   2.467
  164DPPC   O14 8164   2.968   2.632   2.592
  164DPPC   C15 8165   2.973   2.526   2.677
  164DPPC   O16 8166   3.011   2.412   2.649
  164DPPC   C17 8167   2.899   2.533   2.811
  164DPPC   C18 8168   2.956   2.443   2.921
  164DPPC   C19 8169   2.881   2.451   3.054
  164DPPC   C20 8170   2.759   2.359   3.052
  164DPPC   C21 8171   2.661   2.397   3.163
  164DPPC   C22 8172   2.615   2.543   3.161
  164DPPC   C23 8173   2.474   2.538   3.218
  164DPPC   C24 8174   2.508   2.529   3.366
  164DPPC   C25 8175   2.382   2.542   3.453
  164DPPC   C26 8176   2.402   2.533   3.605
  164DPPC   C27 8177   2.272   2.537   3.685
  164DPPC   C28 8178   2.281   2.516   3.836
  164DPPC   C29 8179   2.371   2.620   3.902
  164DPPC   C30 8180   2.303   2.756   3.890
  164DPPC   C31 8181   2.389   2.871   3.943
  164DPPC   C32 8182   3.097   2.727   2.397
  164DPPC   O33 8183   3.005   2.832   2.365
  164DPPC   C34 8184   3.054   2.935   2.291
  164DPPC   O35 8185   3.172   2.936   2.256
  164DPPC   C36 8186   2.971   3.063   2.284
  164DPPC   C37 8187   2.974   3.127   2.423
  164DPPC   C38 8188   2.839   3.197   2.437
  164DPPC   C39 8189   2.823   3.286   2.561
  164DPPC   C40 8190   2.803   3.181   2.671
  164DPPC   C41 8191   2.778   3.255   2.802
  164DPPC   C42 8192   2.800   3.158   2.918
  164DPPC   C43 8193   2.775   3.222   3.054
  164DPPC   C44 8194   2.797   3.115   3.162
  164DPPC   C45 8195   2.793   3.175   3.303
  164DPPC   C46 8196   2.839   3.065   3.398
  164DPPC   C47 8197   2.870   3.130   3.533
  164DPPC   C48 8198   2.901   3.030   3.644
  164DPPC   C49 8199   2.793   2.939   3.702
  164DPPC   C50 8200   2.846   2.903   3.841
  165DPPC    C1 8201   0.161   3.305   1.377
  165DPPC    C2 8202   0.342   3.427   1.502
  165DPPC    C3 8203   0.128   3.514   1.479
  165DPPC    N4 8204   0.201   3.387   1.492
  165DPPC    C5 8205   0.152   3.312   1.609
  165DPPC    C6 8206   0.215   3.175   1.635
  165DPPC    O7 8207   0.136   3.065   1.588
  165DPPC    P8 8208   0.220   2.930   1.564
  165DPPC    O9 8209   0.324   2.986   1.474
  165DPPC   O10 8210   0.117   2.828   1.532
  165DPPC   O11 8211   0.272   2.915   1.715
  165DPPC   C12 8212   0.160   2.872   1.794
  165DPPC   C13 8213   0.163   2.924   1.938
  165DPPC   O14 8214   0.159   3.066   1.959
  165DPPC   C15 8215   0.038   3.121   1.989
  165DPPC   O16 8216  -0.069   3.066   1.964
  165DPPC   C17 8217   0.045   3.271   2.017
  165DPPC   C18 8218   0.116   3.308   2.147
  165DPPC   C19 8219   0.034   3.277   2.273
  165DPPC   C20 8220   0.092   3.325   2.406
  165DPPC   C21 8221  -0.009   3.316   2.520
  165DPPC   C22 8222   0.045   3.321   2.663
  165DPPC   C23 8223  -0.071   3.303   2.761
  165DPPC   C24 8224   0.006   3.304   2.893
  165DPPC   C25 8225  -0.083   3.242   3.000
  165DPPC   C26 8226  -0.033   3.310   3.128
  165DPPC   C27 8227  -0.095   3.230   3.243
  165DPPC   C28 8228  -0.248   3.221   3.233
  165DPPC   C29 8229  -0.311   3.165   3.361
  165DPPC   C30 8230  -0.375   3.273   3.448
  165DPPC   C31 8231  -0.433   3.202   3.571
  165DPPC   C32 8232   0.292   2.865   1.997
  165DPPC   O33 8233   0.288   2.812   2.130
  165DPPC   C34 8234   0.244   2.685   2.146
  165DPPC   O35 8235   0.262   2.605   2.054
  165DPPC   C36 8236   0.253   2.640   2.292
  165DPPC   C37 8237   0.200   2.499   2.317
  165DPPC   C38 8238   0.241   2.476   2.463
  165DPPC   C39 8239   0.113   2.437   2.538
  165DPPC   C40 8240   0.131   2.450   2.689
  165DPPC   C41 8241   0.008   2.409   2.770
  165DPPC   C42 8242   0.025   2.440   2.919
  165DPPC   C43 8243  -0.093   2.410   3.011
  165DPPC   C44 8244  -0.081   2.504   3.131
  165DPPC   C45 8245  -0.194   2.466   3.227
  165DPPC   C46 8246  -0.185   2.555   3.351
  165DPPC   C47 8247  -0.291   2.503   3.447
  165DPPC   C48 8248  -0.269   2.361   3.500
  165DPPC   C49 8249  -0.375   2.300   3.592
  165DPPC   C50 8250  -0.320   2.172   3.655
  166DPPC    C1 8251   2.324   3.359   1.381
  166DPPC    C2 8252   2.547   3.385   1.480
  166DPPC    C3 8253   2.369   3.287   1.603
  166DPPC    N4 8254   2.426   3.301   1.468
  166DPPC    C5 8255   2.482   3.173   1.420
  166DPPC    C6 8256   2.422   3.037   1.454
  166DPPC    O7 8257   2.294   3.031   1.390
  166DPPC    P8 8258   2.214   2.897   1.428
  166DPPC    O9 8259   2.306   2.782   1.410
  166DPPC   O10 8260   2.082   2.899   1.362
  166DPPC   O11 8261   2.184   2.940   1.581
  166DPPC   C12 8262   2.090   2.843   1.628
  166DPPC   C13 8263   2.030   2.875   1.765
  166DPPC   O14 8264   1.913   2.799   1.799
  166DPPC   C15 8265   1.922   2.669   1.836
  166DPPC   O16 8266   2.028   2.607   1.848
  166DPPC   C17 8267   1.794   2.618   1.903
  166DPPC   C18 8268   1.824   2.581   2.048
  166DPPC   C19 8269   1.707   2.507   2.112
  166DPPC   C20 8270   1.721   2.526   2.263
  166DPPC   C21 8271   1.650   2.423   2.351
  166DPPC   C22 8272   1.679   2.448   2.499
  166DPPC   C23 8273   1.653   2.591   2.549
  166DPPC   C24 8274   1.651   2.592   2.702
  166DPPC   C25 8275   1.697   2.731   2.746
  166DPPC   C26 8276   1.717   2.736   2.898
  166DPPC   C27 8277   1.586   2.691   2.963
  166DPPC   C28 8278   1.608   2.683   3.114
  166DPPC   C29 8279   1.492   2.598   3.164
  166DPPC   C30 8280   1.475   2.600   3.316
  166DPPC   C31 8281   1.363   2.499   3.344
  166DPPC   C32 8282   2.018   3.028   1.761
  166DPPC   O33 8283   1.984   3.097   1.881
  166DPPC   C34 8284   1.992   3.233   1.872
  166DPPC   O35 8285   2.062   3.292   1.790
  166DPPC   C36 8286   1.915   3.317   1.974
  166DPPC   C37 8287   2.008   3.351   2.091
  166DPPC   C38 8288   1.948   3.441   2.198
  166DPPC   C39 8289   2.056   3.447   2.307
  166DPPC   C40 8290   1.995   3.545   2.408
  166DPPC   C41 8291   2.079   3.543   2.536
  166DPPC   C42 8292   1.978   3.527   2.650
  166DPPC   C43 8293   2.035   3.532   2.792
  166DPPC   C44 8294   1.927   3.485   2.890
  166DPPC   C45 8295   1.895   3.595   2.992
  166DPPC   C46 8296   1.869   3.732   2.930
  166DPPC   C47 8297   1.849   3.833   3.043
  166DPPC   C48 8298   1.970   3.855   3.135
  166DPPC   C49 8299   1.937   3.955   3.247
  166DPPC   C50 8300   2.055   3.966   3.343
  167DPPC    C1 8301   2.293   2.255   1.516
  167DPPC    C2 8302   2.469   2.113   1.594
  167DPPC    C3 8303   2.445   2.337   1.668
  167DPPC    N4 8304   2.370   2.215   1.634
  167DPPC    C5 8305   2.287   2.172   1.748
  167DPPC    C6 8306   2.185   2.059   1.735
  167DPPC    O7 8307   2.254   1.936   1.756
  167DPPC    P8 8308   2.147   1.822   1.718
  167DPPC    O9 8309   2.232   1.704   1.692
  167DPPC   O10 8310   2.067   1.888   1.612
  167DPPC   O11 8311   2.085   1.851   1.864
  167DPPC   C12 8312   2.157   1.801   1.977
  167DPPC   C13 8313   2.085   1.836   2.107
  167DPPC   O14 8314   1.970   1.756   2.136
  167DPPC   C15 8315   1.990   1.628   2.178
  167DPPC   O16 8316   2.085   1.562   2.138
  167DPPC   C17 8317   1.887   1.580   2.280
  167DPPC   C18 8318   1.941   1.597   2.422
  167DPPC   C19 8319   1.858   1.542   2.539
  167DPPC   C20 8320   1.909   1.583   2.677
  167DPPC   C21 8321   2.057   1.550   2.696
  167DPPC   C22 8322   2.114   1.636   2.809
  167DPPC   C23 8323   2.252   1.568   2.806
  167DPPC   C24 8324   2.331   1.665   2.893
  167DPPC   C25 8325   2.447   1.597   2.966
  167DPPC   C26 8326   2.388   1.513   3.079
  167DPPC   C27 8327   2.487   1.437   3.168
  167DPPC   C28 8328   2.443   1.302   3.225
  167DPPC   C29 8329   2.563   1.248   3.303
  167DPPC   C30 8330   2.523   1.127   3.387
  167DPPC   C31 8331   2.404   1.170   3.472
  167DPPC   C32 8332   2.072   1.988   2.092
  167DPPC   O33 8333   2.074   2.059   2.216
  167DPPC   C34 8334   2.007   2.178   2.218
  167DPPC   O35 8335   1.932   2.219   2.130
  167DPPC   C36 8336   2.006   2.255   2.350
  167DPPC   C37 8337   2.120   2.356   2.360
  167DPPC   C38 8338   2.086   2.456   2.470
  167DPPC   C39 8339   2.070   2.387   2.605
  167DPPC   C40 8340   2.068   2.502   2.706
  167DPPC   C41 8341   2.072   2.466   2.855
  167DPPC   C42 8342   2.068   2.593   2.941
  167DPPC   C43 8343   2.027   2.559   3.085
  167DPPC   C44 8344   2.004   2.681   3.175
  167DPPC   C45 8345   1.974   2.645   3.321
  167DPPC   C46 8346   1.973   2.776   3.399
  167DPPC   C47 8347   1.906   2.764   3.536
  167DPPC   C48 8348   1.942   2.891   3.614
  167DPPC   C49 8349   1.869   2.884   3.748
  167DPPC   C50 8350   1.928   2.978   3.852
  168DPPC    C1 8351   2.802   7.968   1.474
  168DPPC    C2 8352   2.581   7.929   1.396
  168DPPC    C3 8353   2.643   7.874   1.619
  168DPPC    N4 8354   2.660   7.973   1.512
  168DPPC    C5 8355   2.627   8.109   1.554
  168DPPC    C6 8356   2.692   8.183   1.671
  168DPPC    O7 8357   2.661   8.323   1.678
  168DPPC    P8 8358   2.749   8.392   1.793
  168DPPC    O9 8359   2.732   8.539   1.795
  168DPPC   O10 8360   2.878   8.324   1.767
  168DPPC   O11 8361   2.706   8.311   1.926
  168DPPC   C12 8362   2.584   8.364   1.980
  168DPPC   C13 8363   2.553   8.317   2.122
  168DPPC   O14 8364   2.426   8.368   2.166
  168DPPC   C15 8365   2.317   8.289   2.152
  168DPPC   O16 8366   2.303   8.228   2.046
  168DPPC   C17 8367   2.198   8.305   2.246
  168DPPC   C18 8368   2.184   8.452   2.286
  168DPPC   C19 8369   2.113   8.462   2.422
  168DPPC   C20 8370   2.090   8.611   2.447
  168DPPC   C21 8371   2.029   8.651   2.582
  168DPPC   C22 8372   1.947   8.779   2.563
  168DPPC   C23 8373   1.894   8.832   2.696
  168DPPC   C24 8374   1.777   8.752   2.754
  168DPPC   C25 8375   1.727   8.818   2.882
  168DPPC   C26 8376   1.649   8.721   2.971
  168DPPC   C27 8377   1.733   8.595   2.994
  168DPPC   C28 8378   1.683   8.481   3.084
  168DPPC   C29 8379   1.533   8.455   3.081
  168DPPC   C30 8380   1.511   8.348   3.188
  168DPPC   C31 8381   1.361   8.321   3.196
  168DPPC   C32 8382   2.674   8.365   2.201
  168DPPC   O33 8383   2.700   8.506   2.191
  168DPPC   C34 8384   2.829   8.548   2.200
  168DPPC   O35 8385   2.918   8.472   2.236
  168DPPC   C36 8386   2.841   8.699   2.182
  168DPPC   C37 8387   2.803   8.780   2.306
  168DPPC   C38 8388   2.807   8.923   2.252
  168DPPC   C39 8389   2.778   9.027   2.360
  168DPPC   C40 8390   2.862   9.004   2.485
  168DPPC   C41 8391   2.831   9.109   2.593
  168DPPC   C42 8392   2.915   9.081   2.717
  168DPPC   C43 8393   2.912   9.200   2.813
  168DPPC   C44 8394   2.998   9.179   2.938
  168DPPC   C45 8395   3.146   9.150   2.916
  168DPPC   C46 8396   3.220   9.156   3.050
  168DPPC   C47 8397   3.365   9.108   3.043
  168DPPC   C48 8398   3.431   9.208   2.948
  168DPPC   C49 8399   3.581   9.178   2.945
  168DPPC   C50 8400   3.625   9.075   2.841
  169DPPC    C1 8401   0.143   2.495   1.756
  169DPPC    C2 8402   0.361   2.437   1.740
  169DPPC    C3 8403   0.203   2.283   1.641
  169DPPC    N4 8404   0.235   2.425   1.665
  169DPPC    C5 8405   0.237   2.507   1.543
  169DPPC    C6 8406   0.331   2.482   1.425
  169DPPC    O7 8407   0.463   2.536   1.438
  169DPPC    P8 8408   0.484   2.682   1.373
  169DPPC    O9 8409   0.371   2.726   1.289
  169DPPC   O10 8410   0.618   2.661   1.313
  169DPPC   O11 8411   0.504   2.743   1.521
  169DPPC   C12 8412   0.632   2.714   1.579
  169DPPC   C13 8413   0.654   2.787   1.712
  169DPPC   O14 8414   0.602   2.726   1.830
  169DPPC   C15 8415   0.689   2.667   1.917
  169DPPC   O16 8416   0.792   2.615   1.875
  169DPPC   C17 8417   0.633   2.620   2.051
  169DPPC   C18 8418   0.700   2.492   2.101
  169DPPC   C19 8419   0.696   2.478   2.254
  169DPPC   C20 8420   0.769   2.353   2.301
  169DPPC   C21 8421   0.681   2.228   2.288
  169DPPC   C22 8422   0.566   2.247   2.387
  169DPPC   C23 8423   0.624   2.237   2.529
  169DPPC   C24 8424   0.514   2.264   2.632
  169DPPC   C25 8425   0.567   2.257   2.775
  169DPPC   C26 8426   0.460   2.272   2.883
  169DPPC   C27 8427   0.402   2.131   2.892
  169DPPC   C28 8428   0.289   2.130   2.994
  169DPPC   C29 8429   0.334   2.138   3.140
  169DPPC   C30 8430   0.213   2.138   3.233
  169DPPC   C31 8431   0.132   2.017   3.184
  169DPPC   C32 8432   0.616   2.933   1.683
  169DPPC   O33 8433   0.639   3.022   1.792
  169DPPC   C34 8434   0.596   3.151   1.781
  169DPPC   O35 8435   0.562   3.204   1.675
  169DPPC   C36 8436   0.617   3.231   1.909
  169DPPC   C37 8437   0.539   3.182   2.031
  169DPPC   C38 8438   0.540   3.301   2.127
  169DPPC   C39 8439   0.466   3.259   2.254
  169DPPC   C40 8440   0.445   3.378   2.347
  169DPPC   C41 8441   0.575   3.457   2.364
  169DPPC   C42 8442   0.656   3.406   2.483
  169DPPC   C43 8443   0.803   3.445   2.474
  169DPPC   C44 8444   0.884   3.417   2.601
  169DPPC   C45 8445   1.034   3.415   2.572
  169DPPC   C46 8446   1.083   3.553   2.528
  169DPPC   C47 8447   1.233   3.579   2.535
  169DPPC   C48 8448   1.272   3.716   2.481
  169DPPC   C49 8449   1.237   3.707   2.332
  169DPPC   C50 8450   1.217   3.836   2.252
  170DPPC    C1 8451   6.889   8.361   1.572
  170DPPC    C2 8452   7.065   8.248   1.506
  170DPPC    C3 8453   7.080   8.408   1.693
  170DPPC    N4 8454   7.006   8.296   1.632
  170DPPC    C5 8455   6.956   8.185   1.714
  170DPPC    C6 8456   7.054   8.095   1.790
  170DPPC    O7 8457   6.980   7.985   1.843
  170DPPC    P8 8458   7.067   7.850   1.832
  170DPPC    O9 8459   7.157   7.866   1.716
  170DPPC   O10 8460   6.977   7.733   1.843
  170DPPC   O11 8461   7.169   7.860   1.956
  170DPPC   C12 8462   7.082   7.829   2.065
  170DPPC   C13 8463   7.155   7.821   2.199
  170DPPC   O14 8464   7.084   7.745   2.299
  170DPPC   C15 8465   7.091   7.609   2.299
  170DPPC   O16 8466   7.127   7.547   2.199
  170DPPC   C17 8467   7.016   7.535   2.410
  170DPPC   C18 8468   6.983   7.613   2.537
  170DPPC   C19 8469   6.933   7.523   2.650
  170DPPC   C20 8470   6.874   7.606   2.765
  170DPPC   C21 8471   6.803   7.521   2.871
  170DPPC   C22 8472   6.754   7.602   2.991
  170DPPC   C23 8473   6.867   7.690   3.045
  170DPPC   C24 8474   6.810   7.783   3.152
  170DPPC   C25 8475   6.688   7.862   3.103
  170DPPC   C26 8476   6.624   7.944   3.216
  170DPPC   C27 8477   6.581   7.833   3.311
  170DPPC   C28 8478   6.505   7.890   3.431
  170DPPC   C29 8479   6.441   7.773   3.507
  170DPPC   C30 8480   6.549   7.675   3.551
  170DPPC   C31 8481   6.469   7.551   3.593
  170DPPC   C32 8482   7.194   7.961   2.246
  170DPPC   O33 8483   7.280   7.968   2.360
  170DPPC   C34 8484   7.306   8.090   2.413
  170DPPC   O35 8485   7.234   8.187   2.385
  170DPPC   C36 8486   7.426   8.104   2.506
  170DPPC   C37 8487   7.542   8.146   2.415
  170DPPC   C38 8488   7.674   8.148   2.491
  170DPPC   C39 8489   7.669   8.255   2.601
  170DPPC   C40 8490   7.803   8.276   2.672
  170DPPC   C41 8491   7.798   8.402   2.757
  170DPPC   C42 8492   7.945   8.429   2.789
  170DPPC   C43 8493   7.973   8.543   2.888
  170DPPC   C44 8494   8.118   8.530   2.934
  170DPPC   C45 8495   8.136   8.625   3.052
  170DPPC   C46 8496   8.269   8.615   3.127
  170DPPC   C47 8497   8.265   8.683   3.264
  170DPPC   C48 8498   8.388   8.630   3.338
  170DPPC   C49 8499   8.377   8.686   3.480
  170DPPC   C50 8500   8.494   8.659   3.575
  171DPPC    C1 8501   5.826   7.355   1.476
  171DPPC    C2 8502   5.762   7.150   1.405
  171DPPC    C3 8503   5.985   7.180   1.511
  171DPPC    N4 8504   5.842   7.213   1.512
  171DPPC    C5 8505   5.790   7.170   1.642
  171DPPC    C6 8506   5.670   7.247   1.697
  171DPPC    O7 8507   5.624   7.179   1.814
  171DPPC    P8 8508   5.497   7.229   1.899
  171DPPC    O9 8509   5.470   7.123   1.998
  171DPPC   O10 8510   5.395   7.248   1.793
  171DPPC   O11 8511   5.569   7.367   1.939
  171DPPC   C12 8512   5.634   7.343   2.064
  171DPPC   C13 8513   5.747   7.442   2.090
  171DPPC   O14 8514   5.841   7.402   2.191
  171DPPC   C15 8515   5.960   7.460   2.221
  171DPPC   O16 8516   6.014   7.545   2.151
  171DPPC   C17 8517   6.053   7.384   2.316
  171DPPC   C18 8518   6.181   7.464   2.339
  171DPPC   C19 8519   6.288   7.406   2.431
  171DPPC   C20 8520   6.247   7.452   2.571
  171DPPC   C21 8521   6.348   7.423   2.682
  171DPPC   C22 8522   6.304   7.501   2.806
  171DPPC   C23 8523   6.377   7.447   2.929
  171DPPC   C24 8524   6.354   7.299   2.958
  171DPPC   C25 8525   6.390   7.258   3.101
  171DPPC   C26 8526   6.280   7.284   3.204
  171DPPC   C27 8527   6.345   7.251   3.339
  171DPPC   C28 8528   6.242   7.253   3.452
  171DPPC   C29 8529   6.279   7.143   3.552
  171DPPC   C30 8530   6.153   7.091   3.620
  171DPPC   C31 8531   6.176   6.984   3.728
  171DPPC   C32 8532   5.690   7.578   2.131
  171DPPC   O33 8533   5.597   7.570   2.239
  171DPPC   C34 8534   5.544   7.688   2.281
  171DPPC   O35 8535   5.576   7.797   2.235
  171DPPC   C36 8536   5.459   7.693   2.408
  171DPPC   C37 8537   5.517   7.784   2.517
  171DPPC   C38 8538   5.426   7.786   2.640
  171DPPC   C39 8539   5.488   7.874   2.748
  171DPPC   C40 8540   5.504   8.017   2.698
  171DPPC   C41 8541   5.587   8.110   2.787
  171DPPC   C42 8542   5.572   8.252   2.734
  171DPPC   C43 8543   5.549   8.351   2.848
  171DPPC   C44 8544   5.672   8.354   2.940
  171DPPC   C45 8545   5.625   8.393   3.080
  171DPPC   C46 8546   5.509   8.301   3.121
  171DPPC   C47 8547   5.443   8.348   3.250
  171DPPC   C48 8548   5.301   8.294   3.270
  171DPPC   C49 8549   5.237   8.380   3.379
  171DPPC   C50 8550   5.087   8.362   3.358
  172DPPC    C1 8551   3.036   4.968   1.760
  172DPPC    C2 8552   3.023   4.961   2.013
  172DPPC    C3 8553   3.136   4.813   1.890
  172DPPC    N4 8554   3.104   4.956   1.890
  172DPPC    C5 8555   3.233   5.023   1.910
  172DPPC    C6 8556   3.230   5.175   1.901
  172DPPC    O7 8557   3.354   5.246   1.905
  172DPPC    P8 8558   3.325   5.394   1.848
  172DPPC    O9 8559   3.183   5.410   1.811
  172DPPC   O10 8560   3.434   5.464   1.776
  172DPPC   O11 8561   3.313   5.471   1.988
  172DPPC   C12 8562   3.447   5.444   2.031
  172DPPC   C13 8563   3.480   5.476   2.177
  172DPPC   O14 8564   3.456   5.365   2.264
  172DPPC   C15 8565   3.566   5.342   2.341
  172DPPC   O16 8566   3.675   5.336   2.284
  172DPPC   C17 8567   3.545   5.244   2.457
  172DPPC   C18 8568   3.500   5.313   2.585
  172DPPC   C19 8569   3.596   5.421   2.636
  172DPPC   C20 8570   3.555   5.472   2.774
  172DPPC   C21 8571   3.642   5.589   2.818
  172DPPC   C22 8572   3.598   5.651   2.951
  172DPPC   C23 8573   3.677   5.778   2.981
  172DPPC   C24 8574   3.599   5.861   3.083
  172DPPC   C25 8575   3.689   5.983   3.106
  172DPPC   C26 8576   3.634   6.069   3.219
  172DPPC   C27 8577   3.689   6.211   3.204
  172DPPC   C28 8578   3.642   6.293   3.325
  172DPPC   C29 8579   3.656   6.213   3.455
  172DPPC   C30 8580   3.672   6.292   3.585
  172DPPC   C31 8581   3.549   6.384   3.593
  172DPPC   C32 8582   3.404   5.606   2.207
  172DPPC   O33 8583   3.406   5.643   2.345
  172DPPC   C34 8584   3.327   5.741   2.396
  172DPPC   O35 8585   3.285   5.826   2.318
  172DPPC   C36 8586   3.325   5.773   2.546
  172DPPC   C37 8587   3.263   5.665   2.635
  172DPPC   C38 8588   3.244   5.715   2.779
  172DPPC   C39 8589   3.157   5.629   2.870
  172DPPC   C40 8590   3.159   5.682   3.013
  172DPPC   C41 8591   3.085   5.590   3.110
  172DPPC   C42 8592   3.105   5.628   3.257
  172DPPC   C43 8593   3.250   5.589   3.287
  172DPPC   C44 8594   3.298   5.656   3.416
  172DPPC   C45 8595   3.265   5.576   3.542
  172DPPC   C46 8596   3.311   5.652   3.667
  172DPPC   C47 8597   3.460   5.684   3.654
  172DPPC   C48 8598   3.515   5.761   3.774
  172DPPC   C49 8599   3.525   5.672   3.898
  172DPPC   C50 8600   3.616   5.549   3.882
  173DPPC    C1 8601   6.108   1.966   2.327
  173DPPC    C2 8602   5.975   1.981   2.136
  173DPPC    C3 8603   5.983   2.173   2.287
  173DPPC    N4 8604   6.059   2.062   2.227
  173DPPC    C5 8605   6.184   2.113   2.170
  173DPPC    C6 8606   6.187   2.219   2.059
  173DPPC    O7 8607   6.309   2.273   2.008
  173DPPC    P8 8608   6.300   2.418   1.939
  173DPPC    O9 8609   6.178   2.394   1.858
  173DPPC   O10 8610   6.426   2.474   1.886
  173DPPC   O11 8611   6.257   2.497   2.073
  173DPPC   C12 8612   6.376   2.556   2.126
  173DPPC   C13 8613   6.355   2.631   2.258
  173DPPC   O14 8614   6.476   2.677   2.320
  173DPPC   C15 8615   6.456   2.790   2.393
  173DPPC   O16 8616   6.369   2.865   2.350
  173DPPC   C17 8617   6.582   2.851   2.456
  173DPPC   C18 8618   6.553   2.937   2.579
  173DPPC   C19 8619   6.643   2.906   2.698
  173DPPC   C20 8620   6.628   2.768   2.762
  173DPPC   C21 8621   6.723   2.756   2.882
  173DPPC   C22 8622   6.694   2.625   2.955
  173DPPC   C23 8623   6.781   2.588   3.076
  173DPPC   C24 8624   6.726   2.681   3.184
  173DPPC   C25 8625   6.797   2.658   3.318
  173DPPC   C26 8626   6.706   2.735   3.414
  173DPPC   C27 8627   6.775   2.755   3.549
  173DPPC   C28 8628   6.804   2.627   3.628
  173DPPC   C29 8629   6.855   2.674   3.765
  173DPPC   C30 8630   6.745   2.758   3.829
  173DPPC   C31 8631   6.781   2.814   3.967
  173DPPC   C32 8632   6.300   2.512   2.337
  173DPPC   O33 8633   6.263   2.526   2.475
  173DPPC   C34 8634   6.241   2.415   2.550
  173DPPC   O35 8635   6.216   2.309   2.493
  173DPPC   C36 8636   6.207   2.436   2.698
  173DPPC   C37 8637   6.315   2.453   2.805
  173DPPC   C38 8638   6.259   2.527   2.927
  173DPPC   C39 8639   6.343   2.533   3.055
  173DPPC   C40 8640   6.296   2.637   3.156
  173DPPC   C41 8641   6.340   2.606   3.300
  173DPPC   C42 8642   6.275   2.707   3.394
  173DPPC   C43 8643   6.339   2.711   3.533
  173DPPC   C44 8644   6.326   2.568   3.586
  173DPPC   C45 8645   6.372   2.574   3.732
  173DPPC   C46 8646   6.294   2.679   3.811
  173DPPC   C47 8647   6.339   2.688   3.957
  173DPPC   C48 8648   6.292   2.822   4.015
  173DPPC   C49 8649   6.382   2.944   3.995
  173DPPC   C50 8650   6.311   3.078   4.009
  174DPPC    C1 8651   9.027   4.871   1.244
  174DPPC    C2 8652   9.173   4.813   1.404
  174DPPC    C3 8653   9.034   4.634   1.326
  174DPPC    N4 8654   9.107   4.756   1.286
  174DPPC    C5 8655   9.192   4.742   1.167
  174DPPC    C6 8656   9.280   4.617   1.166
  174DPPC    O7 8657   9.355   4.606   1.288
  174DPPC    P8 8658   9.425   4.462   1.268
  174DPPC    O9 8659   9.511   4.467   1.147
  174DPPC   O10 8660   9.310   4.369   1.269
  174DPPC   O11 8661   9.511   4.470   1.404
  174DPPC   C12 8662   9.427   4.433   1.514
  174DPPC   C13 8663   9.497   4.450   1.648
  174DPPC   O14 8664   9.417   4.416   1.762
  174DPPC   C15 8665   9.428   4.284   1.794
  174DPPC   O16 8666   9.477   4.201   1.717
  174DPPC   C17 8667   9.367   4.234   1.925
  174DPPC   C18 8668   9.361   4.340   2.035
  174DPPC   C19 8669   9.302   4.278   2.162
  174DPPC   C20 8670   9.294   4.374   2.281
  174DPPC   C21 8671   9.210   4.328   2.400
  174DPPC   C22 8672   9.211   4.418   2.524
  174DPPC   C23 8673   9.150   4.335   2.637
  174DPPC   C24 8674   9.151   4.400   2.776
  174DPPC   C25 8675   9.139   4.293   2.885
  174DPPC   C26 8676   9.113   4.347   3.026
  174DPPC   C27 8677   9.074   4.236   3.124
  174DPPC   C28 8678   8.945   4.167   3.079
  174DPPC   C29 8679   8.911   4.073   3.195
  174DPPC   C30 8680   8.792   3.982   3.162
  174DPPC   C31 8681   8.708   3.950   3.285
  174DPPC   C32 8682   9.566   4.587   1.649
  174DPPC   O33 8683   9.479   4.697   1.622
  174DPPC   C34 8684   9.541   4.818   1.628
  174DPPC   O35 8685   9.664   4.823   1.622
  174DPPC   C36 8686   9.445   4.937   1.623
  174DPPC   C37 8687   9.485   5.037   1.731
  174DPPC   C38 8688   9.391   5.158   1.728
  174DPPC   C39 8689   9.402   5.260   1.841
  174DPPC   C40 8690   9.393   5.198   1.981
  174DPPC   C41 8691   9.376   5.308   2.087
  174DPPC   C42 8692   9.358   5.239   2.222
  174DPPC   C43 8693   9.388   5.338   2.335
  174DPPC   C44 8694   9.352   5.275   2.470
  174DPPC   C45 8695   9.391   5.371   2.583
  174DPPC   C46 8696   9.333   5.327   2.718
  174DPPC   C47 8697   9.375   5.436   2.817
  174DPPC   C48 8698   9.303   5.403   2.948
  174DPPC   C49 8699   9.153   5.414   2.918
  174DPPC   C50 8700   9.060   5.367   3.030
  175DPPC    C1 8701   3.796   1.703   2.027
  175DPPC    C2 8702   3.986   1.819   2.104
  175DPPC    C3 8703   3.780   1.913   2.143
  175DPPC    N4 8704   3.848   1.783   2.139
  175DPPC    C5 8705   3.856   1.718   2.271
  175DPPC    C6 8706   3.725   1.649   2.313
  175DPPC    O7 8707   3.612   1.734   2.331
  175DPPC    P8 8708   3.474   1.653   2.350
  175DPPC    O9 8709   3.514   1.513   2.376
  175DPPC   O10 8710   3.374   1.705   2.253
  175DPPC   O11 8711   3.453   1.724   2.493
  175DPPC   C12 8712   3.486   1.629   2.595
  175DPPC   C13 8713   3.510   1.695   2.731
  175DPPC   O14 8714   3.593   1.627   2.826
  175DPPC   C15 8715   3.726   1.612   2.803
  175DPPC   O16 8716   3.786   1.680   2.720
  175DPPC   C17 8717   3.796   1.533   2.914
  175DPPC   C18 8718   3.780   1.617   3.041
  175DPPC   C19 8719   3.829   1.561   3.175
  175DPPC   C20 8720   3.842   1.671   3.281
  175DPPC   C21 8721   3.880   1.620   3.420
  175DPPC   C22 8722   4.012   1.545   3.438
  175DPPC   C23 8723   4.039   1.512   3.585
  175DPPC   C24 8724   4.051   1.626   3.686
  175DPPC   C25 8725   4.071   1.582   3.831
  175DPPC   C26 8726   4.099   1.708   3.914
  175DPPC   C27 8727   4.142   1.667   4.055
  175DPPC   C28 8728   4.211   1.781   4.131
  175DPPC   C29 8729   4.230   1.756   4.281
  175DPPC   C30 8730   4.322   1.634   4.284
  175DPPC   C31 8731   4.460   1.657   4.223
  175DPPC   C32 8732   3.375   1.752   2.776
  175DPPC   O33 8733   3.281   1.645   2.787
  175DPPC   C34 8734   3.165   1.664   2.856
  175DPPC   O35 8735   3.092   1.750   2.806
  175DPPC   C36 8736   3.110   1.526   2.893
  175DPPC   C37 8737   2.970   1.549   2.950
  175DPPC   C38 8738   2.905   1.414   2.983
  175DPPC   C39 8739   2.990   1.323   3.072
  175DPPC   C40 8740   2.913   1.192   3.086
  175DPPC   C41 8741   2.994   1.098   3.176
  175DPPC   C42 8742   3.019   1.163   3.312
  175DPPC   C43 8743   3.131   1.096   3.391
  175DPPC   C44 8744   3.188   1.173   3.510
  175DPPC   C45 8745   3.302   1.077   3.544
  175DPPC   C46 8746   3.390   1.133   3.655
  175DPPC   C47 8747   3.324   1.170   3.788
  175DPPC   C48 8748   3.440   1.170   3.888
  175DPPC   C49 8749   3.391   1.218   4.025
  175DPPC   C50 8750   3.485   1.190   4.142
  176DPPC    C1 8751   8.368   4.696   1.304
  176DPPC    C2 8752   8.437   4.723   1.073
  176DPPC    C3 8753   8.204   4.702   1.137
  176DPPC    N4 8754   8.336   4.757   1.174
  176DPPC    C5 8755   8.321   4.903   1.185
  176DPPC    C6 8756   8.451   4.984   1.197
  176DPPC    O7 8757   8.495   4.999   1.332
  176DPPC    P8 8758   8.651   5.038   1.341
  176DPPC    O9 8759   8.660   5.170   1.406
  176DPPC   O10 8760   8.707   5.030   1.204
  176DPPC   O11 8761   8.702   4.911   1.426
  176DPPC   C12 8762   8.631   4.889   1.549
  176DPPC   C13 8763   8.695   4.785   1.641
  176DPPC   O14 8764   8.613   4.752   1.754
  176DPPC   C15 8765   8.639   4.630   1.810
  176DPPC   O16 8766   8.698   4.545   1.745
  176DPPC   C17 8767   8.562   4.596   1.938
  176DPPC   C18 8768   8.421   4.538   1.922
  176DPPC   C19 8769   8.357   4.514   2.059
  176DPPC   C20 8770   8.212   4.465   2.069
  176DPPC   C21 8771   8.187   4.405   2.208
  176DPPC   C22 8772   8.044   4.353   2.217
  176DPPC   C23 8773   8.008   4.293   2.354
  176DPPC   C24 8774   7.975   4.405   2.453
  176DPPC   C25 8775   7.949   4.356   2.596
  176DPPC   C26 8776   7.877   4.457   2.685
  176DPPC   C27 8777   7.857   4.411   2.830
  176DPPC   C28 8778   7.778   4.516   2.908
  176DPPC   C29 8779   7.795   4.486   3.057
  176DPPC   C30 8780   7.946   4.506   3.068
  176DPPC   C31 8781   8.000   4.433   3.192
  176DPPC   C32 8782   8.838   4.830   1.669
  176DPPC   O33 8783   8.842   4.961   1.728
  176DPPC   C34 8784   8.966   5.011   1.755
  176DPPC   O35 8785   9.065   4.945   1.724
  176DPPC   C36 8786   8.956   5.134   1.845
  176DPPC   C37 8787   8.952   5.103   1.995
  176DPPC   C38 8788   8.966   5.238   2.064
  176DPPC   C39 8789   8.936   5.222   2.213
  176DPPC   C40 8790   8.970   5.345   2.298
  176DPPC   C41 8791   8.918   5.332   2.441
  176DPPC   C42 8792   8.905   5.463   2.518
  176DPPC   C43 8793   8.850   5.428   2.656
  176DPPC   C44 8794   8.814   5.565   2.714
  176DPPC   C45 8795   8.753   5.555   2.854
  176DPPC   C46 8796   8.627   5.468   2.860
  176DPPC   C47 8797   8.501   5.545   2.822
  176DPPC   C48 8798   8.378   5.454   2.812
  176DPPC   C49 8799   8.280   5.532   2.724
  176DPPC   C50 8800   8.240   5.652   2.810
  177DPPC    C1 8801   9.210   2.550   1.736
  177DPPC    C2 8802   9.021   2.555   1.583
  177DPPC    C3 8803   9.015   2.632   1.805
  177DPPC    N4 8804   9.098   2.629   1.683
  177DPPC    C5 8805   9.152   2.759   1.641
  177DPPC    C6 8806   9.090   2.831   1.522
  177DPPC    O7 8807   8.958   2.878   1.553
  177DPPC    P8 8808   8.970   3.035   1.587
  177DPPC    O9 8809   8.890   3.122   1.498
  177DPPC   O10 8810   9.107   3.064   1.635
  177DPPC   O11 8811   8.886   3.029   1.724
  177DPPC   C12 8812   8.970   3.034   1.840
  177DPPC   C13 8813   8.907   3.065   1.976
  177DPPC   O14 8814   8.852   2.949   2.039
  177DPPC   C15 8815   8.924   2.862   2.115
  177DPPC   O16 8816   9.047   2.855   2.113
  177DPPC   C17 8817   8.844   2.754   2.188
  177DPPC   C18 8818   8.824   2.789   2.336
  177DPPC   C19 8819   8.741   2.692   2.421
  177DPPC   C20 8820   8.714   2.749   2.560
  177DPPC   C21 8821   8.622   2.651   2.634
  177DPPC   C22 8822   8.635   2.656   2.786
  177DPPC   C23 8823   8.547   2.552   2.855
  177DPPC   C24 8824   8.534   2.557   3.008
  177DPPC   C25 8825   8.485   2.692   3.060
  177DPPC   C26 8826   8.450   2.683   3.209
  177DPPC   C27 8827   8.347   2.576   3.244
  177DPPC   C28 8828   8.326   2.558   3.394
  177DPPC   C29 8829   8.208   2.462   3.409
  177DPPC   C30 8830   8.193   2.436   3.559
  177DPPC   C31 8831   8.063   2.370   3.607
  177DPPC   C32 8832   8.802   3.175   1.959
  177DPPC   O33 8833   8.720   3.205   2.072
  177DPPC   C34 8834   8.617   3.129   2.116
  177DPPC   O35 8835   8.573   3.032   2.053
  177DPPC   C36 8836   8.540   3.174   2.240
  177DPPC   C37 8837   8.637   3.233   2.343
  177DPPC   C38 8838   8.559   3.287   2.464
  177DPPC   C39 8839   8.664   3.344   2.560
  177DPPC   C40 8840   8.757   3.231   2.604
  177DPPC   C41 8841   8.848   3.285   2.715
  177DPPC   C42 8842   8.957   3.178   2.724
  177DPPC   C43 8843   8.898   3.055   2.794
  177DPPC   C44 8844   8.998   2.949   2.837
  177DPPC   C45 8845   8.946   2.827   2.914
  177DPPC   C46 8846   9.054   2.755   2.994
  177DPPC   C47 8847   9.013   2.662   3.109
  177DPPC   C48 8848   8.911   2.555   3.071
  177DPPC   C49 8849   8.837   2.486   3.185
  177DPPC   C50 8850   8.922   2.382   3.258
  178DPPC    C1 8851   8.061   2.189   1.887
  178DPPC    C2 8852   8.163   2.402   1.948
  178DPPC    C3 8853   8.239   2.189   2.037
  178DPPC    N4 8854   8.185   2.259   1.920
  178DPPC    C5 8855   8.272   2.245   1.802
  178DPPC    C6 8856   8.423   2.254   1.826
  178DPPC    O7 8857   8.469   2.386   1.852
  178DPPC    P8 8858   8.618   2.388   1.913
  178DPPC    O9 8859   8.656   2.530   1.934
  178DPPC   O10 8860   8.707   2.312   1.823
  178DPPC   O11 8861   8.573   2.312   2.048
  178DPPC   C12 8862   8.536   2.398   2.156
  178DPPC   C13 8863   8.501   2.317   2.281
  178DPPC   O14 8864   8.472   2.396   2.397
  178DPPC   C15 8865   8.339   2.417   2.419
  178DPPC   O16 8866   8.262   2.417   2.323
  178DPPC   C17 8867   8.289   2.442   2.561
  178DPPC   C18 8868   8.137   2.433   2.574
  178DPPC   C19 8869   8.114   2.468   2.722
  178DPPC   C20 8870   8.155   2.613   2.751
  178DPPC   C21 8871   8.116   2.625   2.899
  178DPPC   C22 8872   8.094   2.773   2.931
  178DPPC   C23 8873   8.067   2.781   3.082
  178DPPC   C24 8874   8.055   2.930   3.116
  178DPPC   C25 8875   8.118   2.962   3.251
  178DPPC   C26 8876   8.151   3.110   3.269
  178DPPC   C27 8877   8.178   3.159   3.411
  178DPPC   C28 8878   8.311   3.096   3.454
  178DPPC   C29 8879   8.355   3.146   3.591
  178DPPC   C30 8880   8.493   3.085   3.615
  178DPPC   C31 8881   8.550   3.128   3.751
  178DPPC   C32 8882   8.624   2.229   2.302
  178DPPC   O33 8883   8.615   2.116   2.390
  178DPPC   C34 8884   8.544   2.002   2.372
  178DPPC   O35 8885   8.495   1.976   2.263
  178DPPC   C36 8886   8.538   1.912   2.496
  178DPPC   C37 8887   8.429   1.959   2.593
  178DPPC   C38 8888   8.435   1.888   2.729
  178DPPC   C39 8889   8.310   1.937   2.802
  178DPPC   C40 8890   8.291   1.866   2.936
  178DPPC   C41 8891   8.170   1.929   3.005
  178DPPC   C42 8892   8.153   1.851   3.135
  178DPPC   C43 8893   8.026   1.908   3.197
  178DPPC   C44 8894   7.996   1.854   3.337
  178DPPC   C45 8895   7.892   1.951   3.393
  178DPPC   C46 8896   7.809   1.894   3.509
  178DPPC   C47 8897   7.722   1.777   3.461
  178DPPC   C48 8898   7.640   1.717   3.575
  178DPPC   C49 8899   7.536   1.813   3.633
  178DPPC   C50 8900   7.401   1.741   3.644
  179DPPC    C1 8901   5.328   6.370   2.053
  179DPPC    C2 8902   5.445   6.270   2.235
  179DPPC    C3 8903   5.217   6.265   2.229
  179DPPC    N4 8904   5.334   6.252   2.140
  179DPPC    C5 8905   5.357   6.118   2.085
  179DPPC    C6 8906   5.237   6.061   2.008
  179DPPC    O7 8907   5.204   6.116   1.880
  179DPPC    P8 8908   5.045   6.110   1.858
  179DPPC    O9 8909   4.991   5.976   1.892
  179DPPC   O10 8910   5.002   6.191   1.742
  179DPPC   O11 8911   5.003   6.196   1.988
  179DPPC   C12 8912   4.887   6.279   1.980
  179DPPC   C13 8913   4.832   6.343   2.108
  179DPPC   O14 8914   4.922   6.441   2.162
  179DPPC   C15 8915   4.868   6.530   2.249
  179DPPC   O16 8916   4.760   6.583   2.221
  179DPPC   C17 8917   4.951   6.574   2.369
  179DPPC   C18 8918   4.919   6.493   2.494
  179DPPC   C19 8919   5.010   6.515   2.616
  179DPPC   C20 8920   5.156   6.503   2.572
  179DPPC   C21 8921   5.258   6.504   2.686
  179DPPC   C22 8922   5.239   6.365   2.748
  179DPPC   C23 8923   5.321   6.348   2.876
  179DPPC   C24 8924   5.257   6.439   2.981
  179DPPC   C25 8925   5.329   6.428   3.115
  179DPPC   C26 8926   5.321   6.285   3.171
  179DPPC   C27 8927   5.399   6.289   3.303
  179DPPC   C28 8928   5.367   6.171   3.395
  179DPPC   C29 8929   5.420   6.203   3.535
  179DPPC   C30 8930   5.419   6.081   3.628
  179DPPC   C31 8931   5.280   6.064   3.689
  179DPPC   C32 8932   4.802   6.213   2.183
  179DPPC   O33 8933   4.794   6.214   2.325
  179DPPC   C34 8934   4.764   6.101   2.395
  179DPPC   O35 8935   4.753   5.997   2.331
  179DPPC   C36 8936   4.773   6.101   2.548
  179DPPC   C37 8937   4.906   6.100   2.624
  179DPPC   C38 8938   4.882   6.092   2.775
  179DPPC   C39 8939   5.012   6.060   2.849
  179DPPC   C40 8940   5.003   6.082   3.000
  179DPPC   C41 8941   4.881   5.997   3.034
  179DPPC   C42 8942   4.861   5.969   3.183
  179DPPC   C43 8943   4.738   5.885   3.216
  179DPPC   C44 8944   4.694   5.905   3.361
  179DPPC   C45 8945   4.577   5.812   3.395
  179DPPC   C46 8946   4.524   5.827   3.538
  179DPPC   C47 8947   4.387   5.760   3.543
  179DPPC   C48 8948   4.396   5.608   3.523
  179DPPC   C49 8949   4.293   5.529   3.603
  179DPPC   C50 8950   4.146   5.570   3.594
  180DPPC    C1 8951   6.028   2.595   1.419
  180DPPC    C2 8952   6.251   2.578   1.488
  180DPPC    C3 8953   6.140   2.791   1.485
  180DPPC    N4 8954   6.125   2.648   1.516
  180DPPC    C5 8955   6.072   2.643   1.653
  180DPPC    C6 8956   6.150   2.716   1.761
  180DPPC    O7 8957   6.066   2.732   1.876
  180DPPC    P8 8958   6.139   2.827   1.984
  180DPPC    O9 8959   6.058   2.951   1.985
  180DPPC   O10 8960   6.286   2.828   1.967
  180DPPC   O11 8961   6.104   2.740   2.115
  180DPPC   C12 8962   6.000   2.809   2.185
  180DPPC   C13 8963   5.984   2.740   2.320
  180DPPC   O14 8964   5.848   2.708   2.351
  180DPPC   C15 8965   5.817   2.588   2.409
  180DPPC   O16 8966   5.840   2.487   2.342
  180DPPC   C17 8967   5.734   2.577   2.537
  180DPPC   C18 8968   5.807   2.476   2.626
  180DPPC   C19 8969   5.783   2.474   2.777
  180DPPC   C20 8970   5.848   2.349   2.836
  180DPPC   C21 8971   5.825   2.329   2.986
  180DPPC   C22 8972   5.884   2.192   3.022
  180DPPC   C23 8973   6.037   2.191   3.007
  180DPPC   C24 8974   6.083   2.047   3.029
  180DPPC   C25 8975   6.215   2.024   2.956
  180DPPC   C26 8976   6.310   2.128   3.015
  180DPPC   C27 8977   6.449   2.111   2.953
  180DPPC   C28 8978   6.555   2.204   3.015
  180DPPC   C29 8979   6.547   2.193   3.167
  180DPPC   C30 8980   6.630   2.301   3.236
  180DPPC   C31 8981   6.633   2.273   3.387
  180DPPC   C32 8982   6.077   2.818   2.413
  180DPPC   O33 8983   6.037   2.833   2.550
  180DPPC   C34 8984   6.104   2.924   2.627
  180DPPC   O35 8985   6.160   3.018   2.573
  180DPPC   C36 8986   6.065   2.932   2.775
  180DPPC   C37 8987   5.918   2.902   2.804
  180DPPC   C38 8988   5.887   2.927   2.951
  180DPPC   C39 8989   5.751   2.874   2.994
  180DPPC   C40 8990   5.727   2.888   3.144
  180DPPC   C41 8991   5.607   2.819   3.210
  180DPPC   C42 8992   5.616   2.820   3.363
  180DPPC   C43 8993   5.483   2.764   3.413
  180DPPC   C44 8994   5.463   2.770   3.565
  180DPPC   C45 8995   5.328   2.709   3.598
  180DPPC   C46 8996   5.227   2.797   3.525
  180DPPC   C47 8997   5.202   2.919   3.614
  180DPPC   C48 8998   5.084   3.001   3.562
  180DPPC   C49 8999   5.003   3.059   3.678
  180DPPC   C50 9000   5.093   3.118   3.787
  181DPPC    C1 9001   5.691   5.828   1.606
  181DPPC    C2 9002   5.851   5.792   1.791
  181DPPC    C3 9003   5.638   5.897   1.814
  181DPPC    N4 9004   5.712   5.790   1.746
  181DPPC    C5 9005   5.649   5.662   1.784
  181DPPC    C6 9006   5.670   5.529   1.713
  181DPPC    O7 9007   5.640   5.414   1.793
  181DPPC    P8 9008   5.722   5.282   1.752
  181DPPC    O9 9009   5.802   5.326   1.636
  181DPPC   O10 9010   5.622   5.175   1.730
  181DPPC   O11 9011   5.801   5.264   1.892
  181DPPC   C12 9012   5.704   5.268   1.997
  181DPPC   C13 9013   5.761   5.246   2.138
  181DPPC   O14 9014   5.671   5.297   2.238
  181DPPC   C15 9015   5.581   5.210   2.291
  181DPPC   O16 9016   5.573   5.091   2.264
  181DPPC   C17 9017   5.537   5.269   2.425
  181DPPC   C18 9018   5.402   5.337   2.405
  181DPPC   C19 9019   5.364   5.425   2.524
  181DPPC   C20 9020   5.304   5.342   2.638
  181DPPC   C21 9021   5.320   5.416   2.771
  181DPPC   C22 9022   5.252   5.349   2.890
  181DPPC   C23 9023   5.258   5.443   3.011
  181DPPC   C24 9024   5.224   5.376   3.145
  181DPPC   C25 9025   5.085   5.312   3.145
  181DPPC   C26 9026   4.974   5.416   3.158
  181DPPC   C27 9027   4.842   5.362   3.105
  181DPPC   C28 9028   4.721   5.436   3.164
  181DPPC   C29 9029   4.597   5.391   3.088
  181DPPC   C30 9030   4.476   5.479   3.122
  181DPPC   C31 9031   4.493   5.616   3.054
  181DPPC   C32 9032   5.902   5.305   2.148
  181DPPC   O33 9033   5.979   5.246   2.253
  181DPPC   C34 9034   6.113   5.267   2.255
  181DPPC   O35 9035   6.161   5.355   2.183
  181DPPC   C36 9036   6.194   5.187   2.357
  181DPPC   C37 9037   6.213   5.281   2.476
  181DPPC   C38 9038   6.267   5.221   2.606
  181DPPC   C39 9039   6.259   5.320   2.723
  181DPPC   C40 9040   6.324   5.258   2.847
  181DPPC   C41 9041   6.475   5.231   2.839
  181DPPC   C42 9042   6.522   5.169   2.971
  181DPPC   C43 9043   6.669   5.125   2.976
  181DPPC   C44 9044   6.686   5.017   3.083
  181DPPC   C45 9045   6.593   4.896   3.069
  181DPPC   C46 9046   6.649   4.770   3.135
  181DPPC   C47 9047   6.672   4.805   3.282
  181DPPC   C48 9048   6.750   4.702   3.364
  181DPPC   C49 9049   6.698   4.559   3.358
  181DPPC   C50 9050   6.784   4.452   3.424
  182DPPC    C1 9051   8.130   0.538   1.519
  182DPPC    C2 9052   8.351   0.631   1.496
  182DPPC    C3 9053   8.227   0.592   1.304
  182DPPC    N4 9054   8.214   0.633   1.444
  182DPPC    C5 9055   8.165   0.772   1.454
  182DPPC    C6 9056   8.021   0.805   1.415
  182DPPC    O7 9057   8.002   0.946   1.399
  182DPPC    P8 9058   7.861   0.958   1.322
  182DPPC    O9 9059   7.854   0.839   1.235
  182DPPC   O10 9060   7.846   1.099   1.280
  182DPPC   O11 9061   7.790   0.917   1.460
  182DPPC   C12 9062   7.777   1.036   1.538
  182DPPC   C13 9063   7.715   0.993   1.672
  182DPPC   O14 9064   7.685   1.109   1.750
  182DPPC   C15 9065   7.569   1.179   1.735
  182DPPC   O16 9066   7.481   1.150   1.655
  182DPPC   C17 9067   7.549   1.304   1.822
  182DPPC   C18 9068   7.432   1.288   1.919
  182DPPC   C19 9069   7.401   1.426   1.977
  182DPPC   C20 9070   7.296   1.417   2.087
  182DPPC   C21 9071   7.245   1.554   2.134
  182DPPC   C22 9072   7.146   1.533   2.249
  182DPPC   C23 9073   7.205   1.470   2.375
  182DPPC   C24 9074   7.097   1.446   2.480
  182DPPC   C25 9075   7.164   1.409   2.613
  182DPPC   C26 9076   7.067   1.396   2.731
  182DPPC   C27 9077   7.133   1.392   2.869
  182DPPC   C28 9078   7.048   1.333   2.981
  182DPPC   C29 9079   7.126   1.344   3.112
  182DPPC   C30 9080   7.042   1.266   3.214
  182DPPC   C31 9081   7.095   1.265   3.357
  182DPPC   C32 9082   7.814   0.889   1.726
  182DPPC   O33 9083   7.934   0.959   1.758
  182DPPC   C34 9084   8.038   0.884   1.803
  182DPPC   O35 9085   8.045   0.762   1.792
  182DPPC   C36 9086   8.135   0.970   1.884
  182DPPC   C37 9087   8.091   1.007   2.026
  182DPPC   C38 9088   8.193   1.097   2.096
  182DPPC   C39 9089   8.163   1.111   2.245
  182DPPC   C40 9090   8.274   1.195   2.308
  182DPPC   C41 9091   8.241   1.234   2.452
  182DPPC   C42 9092   8.146   1.354   2.446
  182DPPC   C43 9093   8.119   1.427   2.578
  182DPPC   C44 9094   8.054   1.560   2.539
  182DPPC   C45 9095   8.014   1.639   2.664
  182DPPC   C46 9096   7.888   1.566   2.710
  182DPPC   C47 9097   7.833   1.636   2.834
  182DPPC   C48 9098   7.700   1.574   2.880
  182DPPC   C49 9099   7.654   1.622   3.018
  182DPPC   C50 9100   7.752   1.597   3.132
  183DPPC    C1 9101   7.579   3.472   1.878
  183DPPC    C2 9102   7.612   3.663   1.755
  183DPPC    C3 9103   7.517   3.464   1.649
  183DPPC    N4 9104   7.519   3.550   1.769
  183DPPC    C5 9105   7.388   3.609   1.798
  183DPPC    C6 9106   7.259   3.527   1.802
  183DPPC    O7 9107   7.246   3.418   1.893
  183DPPC    P8 9108   7.106   3.339   1.891
  183DPPC    O9 9109   7.117   3.234   1.995
  183DPPC   O10 9110   7.072   3.314   1.750
  183DPPC   O11 9111   7.022   3.461   1.954
  183DPPC   C12 9112   6.995   3.433   2.092
  183DPPC   C13 9113   7.072   3.532   2.180
  183DPPC   O14 9114   7.088   3.477   2.311
  183DPPC   C15 9115   7.192   3.539   2.375
  183DPPC   O16 9116   7.296   3.573   2.319
  183DPPC   C17 9117   7.189   3.520   2.526
  183DPPC   C18 9118   7.300   3.429   2.580
  183DPPC   C19 9119   7.274   3.409   2.729
  183DPPC   C20 9120   7.370   3.323   2.812
  183DPPC   C21 9121   7.309   3.328   2.953
  183DPPC   C22 9122   7.406   3.252   3.044
  183DPPC   C23 9123   7.350   3.268   3.185
  183DPPC   C24 9124   7.440   3.222   3.300
  183DPPC   C25 9125   7.361   3.208   3.430
  183DPPC   C26 9126   7.432   3.158   3.556
  183DPPC   C27 9127   7.561   3.235   3.588
  183DPPC   C28 9128   7.619   3.202   3.726
  183DPPC   C29 9129   7.519   3.193   3.841
  183DPPC   C30 9130   7.591   3.139   3.965
  183DPPC   C31 9131   7.656   3.002   3.947
  183DPPC   C32 9132   6.997   3.664   2.166
  183DPPC   O33 9133   7.061   3.776   2.229
  183DPPC   C34 9134   7.169   3.831   2.168
  183DPPC   O35 9135   7.227   3.777   2.074
  183DPPC   C36 9136   7.230   3.954   2.235
  183DPPC   C37 9137   7.321   3.916   2.352
  183DPPC   C38 9138   7.233   3.903   2.476
  183DPPC   C39 9139   7.326   3.885   2.596
  183DPPC   C40 9140   7.235   3.873   2.719
  183DPPC   C41 9141   7.284   3.768   2.819
  183DPPC   C42 9142   7.418   3.824   2.869
  183DPPC   C43 9143   7.477   3.749   2.988
  183DPPC   C44 9144   7.377   3.757   3.104
  183DPPC   C45 9145   7.427   3.707   3.240
  183DPPC   C46 9146   7.326   3.743   3.349
  183DPPC   C47 9147   7.201   3.661   3.318
  183DPPC   C48 9148   7.091   3.673   3.423
  183DPPC   C49 9149   6.998   3.553   3.404
  183DPPC   C50 9150   6.917   3.568   3.275
  184DPPC    C1 9151   1.702   1.705   1.722
  184DPPC    C2 9152   1.492   1.732   1.830
  184DPPC    C3 9153   1.686   1.702   1.952
  184DPPC    N4 9154   1.634   1.772   1.833
  184DPPC    C5 9155   1.660   1.915   1.852
  184DPPC    C6 9156   1.604   2.001   1.738
  184DPPC    O7 9157   1.650   2.136   1.750
  184DPPC    P8 9158   1.577   2.201   1.623
  184DPPC    O9 9159   1.540   2.109   1.513
  184DPPC   O10 9160   1.628   2.340   1.615
  184DPPC   O11 9161   1.448   2.222   1.717
  184DPPC   C12 9162   1.471   2.322   1.817
  184DPPC   C13 9163   1.360   2.335   1.922
  184DPPC   O14 9164   1.378   2.455   1.999
  184DPPC   C15 9165   1.267   2.531   2.022
  184DPPC   O16 9166   1.173   2.509   1.946
  184DPPC   C17 9167   1.287   2.653   2.112
  184DPPC   C18 9168   1.318   2.600   2.252
  184DPPC   C19 9169   1.187   2.549   2.312
  184DPPC   C20 9170   1.204   2.528   2.463
  184DPPC   C21 9171   1.075   2.490   2.536
  184DPPC   C22 9172   1.097   2.505   2.686
  184DPPC   C23 9173   0.972   2.437   2.743
  184DPPC   C24 9174   0.952   2.485   2.887
  184DPPC   C25 9175   0.842   2.427   2.975
  184DPPC   C26 9176   0.829   2.483   3.117
  184DPPC   C27 9177   0.700   2.420   3.169
  184DPPC   C28 9178   0.668   2.446   3.317
  184DPPC   C29 9179   0.774   2.373   3.400
  184DPPC   C30 9180   0.748   2.222   3.394
  184DPPC   C31 9181   0.853   2.159   3.485
  184DPPC   C32 9182   1.349   2.199   1.991
  184DPPC   O33 9183   1.472   2.170   2.057
  184DPPC   C34 9184   1.481   2.051   2.123
  184DPPC   O35 9185   1.443   1.951   2.062
  184DPPC   C36 9186   1.606   2.039   2.211
  184DPPC   C37 9187   1.596   1.944   2.331
  184DPPC   C38 9188   1.722   1.958   2.417
  184DPPC   C39 9189   1.698   1.890   2.552
  184DPPC   C40 9190   1.828   1.919   2.627
  184DPPC   C41 9191   1.845   2.071   2.620
  184DPPC   C42 9192   1.762   2.139   2.729
  184DPPC   C43 9193   1.801   2.071   2.861
  184DPPC   C44 9194   1.763   2.151   2.986
  184DPPC   C45 9195   1.828   2.080   3.105
  184DPPC   C46 9196   1.807   1.930   3.083
  184DPPC   C47 9197   1.886   1.840   3.177
  184DPPC   C48 9198   1.860   1.691   3.157
  184DPPC   C49 9199   1.923   1.612   3.272
  184DPPC   C50 9200   1.874   1.467   3.275
  185DPPC    C1 9201   6.658   7.194   1.625
  185DPPC    C2 9202   6.608   7.281   1.860
  185DPPC    C3 9203   6.482   7.340   1.670
  185DPPC    N4 9204   6.562   7.233   1.730
  185DPPC    C5 9205   6.462   7.128   1.753
  185DPPC    C6 9206   6.495   6.982   1.783
  185DPPC    O7 9207   6.603   6.976   1.876
  185DPPC    P8 9208   6.709   6.862   1.835
  185DPPC    O9 9209   6.834   6.904   1.903
  185DPPC   O10 9210   6.705   6.848   1.688
  185DPPC   O11 9211   6.648   6.745   1.928
  185DPPC   C12 9212   6.663   6.786   2.064
  185DPPC   C13 9213   6.567   6.702   2.149
  185DPPC   O14 9214   6.558   6.727   2.290
  185DPPC   C15 9215   6.446   6.680   2.351
  185DPPC   O16 9216   6.355   6.628   2.286
  185DPPC   C17 9217   6.431   6.715   2.499
  185DPPC   C18 9218   6.296   6.781   2.526
  185DPPC   C19 9219   6.247   6.755   2.669
  185DPPC   C20 9220   6.329   6.820   2.781
  185DPPC   C21 9221   6.280   6.791   2.923
  185DPPC   C22 9222   6.375   6.862   3.019
  185DPPC   C23 9223   6.349   6.826   3.166
  185DPPC   C24 9224   6.446   6.890   3.266
  185DPPC   C25 9225   6.435   6.822   3.403
  185DPPC   C26 9226   6.518   6.910   3.497
  185DPPC   C27 9227   6.556   6.837   3.627
  185DPPC   C28 9228   6.636   6.915   3.731
  185DPPC   C29 9229   6.690   6.817   3.836
  185DPPC   C30 9230   6.585   6.788   3.943
  185DPPC   C31 9231   6.640   6.696   4.052
  185DPPC   C32 9232   6.632   6.565   2.126
  185DPPC   O33 9233   6.774   6.558   2.139
  185DPPC   C34 9234   6.826   6.447   2.080
  185DPPC   O35 9235   6.756   6.369   2.016
  185DPPC   C36 9236   6.977   6.446   2.108
  185DPPC   C37 9237   7.027   6.343   2.209
  185DPPC   C38 9238   7.030   6.395   2.352
  185DPPC   C39 9239   7.064   6.282   2.450
  185DPPC   C40 9240   7.075   6.334   2.593
  185DPPC   C41 9241   7.113   6.227   2.695
  185DPPC   C42 9242   7.243   6.147   2.678
  185DPPC   C43 9243   7.239   6.024   2.770
  185DPPC   C44 9244   7.360   5.935   2.742
  185DPPC   C45 9245   7.364   5.820   2.842
  185DPPC   C46 9246   7.490   5.733   2.845
  185DPPC   C47 9247   7.482   5.636   2.727
  185DPPC   C48 9248   7.602   5.542   2.719
  185DPPC   C49 9249   7.738   5.612   2.715
  185DPPC   C50 9250   7.847   5.510   2.683
  186DPPC    C1 9251   6.811   2.122   1.890
  186DPPC    C2 9252   6.808   2.351   1.884
  186DPPC    C3 9253   6.615   2.234   1.800
  186DPPC    N4 9254   6.719   2.236   1.904
  186DPPC    C5 9255   6.657   2.253   2.036
  186DPPC    C6 9256   6.557   2.147   2.082
  186DPPC    O7 9257   6.611   2.015   2.096
  186DPPC    P8 9258   6.502   1.898   2.108
  186DPPC    O9 9259   6.583   1.775   2.122
  186DPPC   O10 9260   6.418   1.921   1.988
  186DPPC   O11 9261   6.447   1.947   2.251
  186DPPC   C12 9262   6.532   1.872   2.338
  186DPPC   C13 9263   6.497   1.899   2.485
  186DPPC   O14 9264   6.381   1.831   2.533
  186DPPC   C15 9265   6.388   1.695   2.540
  186DPPC   O16 9266   6.478   1.640   2.478
  186DPPC   C17 9267   6.284   1.618   2.623
  186DPPC   C18 9268   6.333   1.556   2.754
  186DPPC   C19 9269   6.338   1.646   2.877
  186DPPC   C20 9270   6.354   1.560   3.003
  186DPPC   C21 9271   6.398   1.656   3.113
  186DPPC   C22 9272   6.382   1.606   3.256
  186DPPC   C23 9273   6.413   1.706   3.368
  186DPPC   C24 9274   6.309   1.818   3.378
  186DPPC   C25 9275   6.342   1.941   3.461
  186DPPC   C26 9276   6.265   2.066   3.419
  186DPPC   C27 9277   6.297   2.174   3.522
  186DPPC   C28 9278   6.221   2.143   3.651
  186DPPC   C29 9279   6.276   2.227   3.767
  186DPPC   C30 9280   6.204   2.192   3.897
  186DPPC   C31 9281   6.263   2.267   4.017
  186DPPC   C32 9282   6.499   2.050   2.507
  186DPPC   O33 9283   6.628   2.096   2.548
  186DPPC   C34 9284   6.638   2.231   2.560
  186DPPC   O35 9285   6.538   2.302   2.562
  186DPPC   C36 9286   6.771   2.289   2.609
  186DPPC   C37 9287   6.789   2.254   2.757
  186DPPC   C38 9288   6.929   2.281   2.811
  186DPPC   C39 9289   6.931   2.213   2.948
  186DPPC   C40 9290   7.079   2.205   2.987
  186DPPC   C41 9291   7.097   2.145   3.127
  186DPPC   C42 9292   7.057   2.238   3.241
  186DPPC   C43 9293   7.059   2.173   3.379
  186DPPC   C44 9294   7.060   2.277   3.491
  186DPPC   C45 9295   7.071   2.219   3.631
  186DPPC   C46 9296   7.018   2.325   3.728
  186DPPC   C47 9297   6.979   2.281   3.869
  186DPPC   C48 9298   6.869   2.174   3.871
  186DPPC   C49 9299   6.731   2.220   3.825
  186DPPC   C50 9300   6.630   2.130   3.897
  187DPPC    C1 9301   9.261   1.212   0.757
  187DPPC    C2 9302   9.038   1.183   0.777
  187DPPC    C3 9303   9.181   1.004   0.693
  187DPPC    N4 9304   9.164   1.109   0.795
  187DPPC    C5 9305   9.191   1.074   0.935
  187DPPC    C6 9306   9.112   0.956   0.991
  187DPPC    O7 9307   8.987   1.001   1.044
  187DPPC    P8 9308   8.935   0.869   1.121
  187DPPC    O9 9309   9.022   0.752   1.099
  187DPPC   O10 9310   8.789   0.845   1.114
  187DPPC   O11 9311   8.988   0.913   1.267
  187DPPC   C12 9312   8.888   0.927   1.368
  187DPPC   C13 9313   8.928   0.951   1.513
  187DPPC   O14 9314   8.836   0.930   1.622
  187DPPC   C15 9315   8.795   0.805   1.658
  187DPPC   O16 9316   8.852   0.710   1.606
  187DPPC   C17 9317   8.690   0.786   1.768
  187DPPC   C18 9318   8.707   0.665   1.859
  187DPPC   C19 9319   8.597   0.646   1.963
  187DPPC   C20 9320   8.459   0.620   1.901
  187DPPC   C21 9321   8.370   0.592   2.022
  187DPPC   C22 9322   8.363   0.726   2.095
  187DPPC   C23 9323   8.348   0.671   2.238
  187DPPC   C24 9324   8.350   0.799   2.322
  187DPPC   C25 9325   8.359   0.779   2.474
  187DPPC   C26 9326   8.375   0.917   2.536
  187DPPC   C27 9327   8.394   0.909   2.688
  187DPPC   C28 9328   8.371   1.041   2.762
  187DPPC   C29 9329   8.390   1.009   2.910
  187DPPC   C30 9330   8.541   0.999   2.935
  187DPPC   C31 9331   8.562   0.996   3.087
  187DPPC   C32 9332   8.975   1.096   1.509
  187DPPC   O33 9333   9.053   1.148   1.617
  187DPPC   C34 9334   9.178   1.094   1.624
  187DPPC   O35 9335   9.231   1.049   1.523
  187DPPC   C36 9336   9.243   1.096   1.763
  187DPPC   C37 9337   9.288   0.958   1.812
  187DPPC   C38 9338   9.176   0.884   1.883
  187DPPC   C39 9339   9.136   0.945   2.018
  187DPPC   C40 9340   9.025   0.857   2.075
  187DPPC   C41 9341   9.075   0.713   2.080
  187DPPC   C42 9342   8.965   0.615   2.121
  187DPPC   C43 9343   8.897   0.661   2.250
  187DPPC   C44 9344   8.795   0.560   2.303
  187DPPC   C45 9345   8.725   0.619   2.425
  187DPPC   C46 9346   8.670   0.517   2.525
  187DPPC   C47 9347   8.619   0.599   2.643
  187DPPC   C48 9348   8.603   0.511   2.767
  187DPPC   C49 9349   8.551   0.601   2.879
  187DPPC   C50 9350   8.479   0.529   2.993
  188DPPC    C1 9351   7.474   2.328   1.821
  188DPPC    C2 9352   7.578   2.122   1.755
  188DPPC    C3 9353   7.348   2.166   1.697
  188DPPC    N4 9354   7.481   2.226   1.715
  188DPPC    C5 9355   7.518   2.291   1.589
  188DPPC    C6 9356   7.654   2.350   1.550
  188DPPC    O7 9357   7.766   2.263   1.564
  188DPPC    P8 9358   7.895   2.359   1.553
  188DPPC    O9 9359   7.868   2.459   1.447
  188DPPC   O10 9360   8.020   2.280   1.560
  188DPPC   O11 9361   7.878   2.440   1.692
  188DPPC   C12 9362   7.897   2.578   1.659
  188DPPC   C13 9363   7.931   2.667   1.779
  188DPPC   O14 9364   8.073   2.674   1.797
  188DPPC   C15 9365   8.122   2.797   1.828
  188DPPC   O16 9366   8.093   2.894   1.759
  188DPPC   C17 9367   8.257   2.787   1.900
  188DPPC   C18 9368   8.255   2.740   2.046
  188DPPC   C19 9369   8.183   2.835   2.143
  188DPPC   C20 9370   8.233   2.815   2.287
  188DPPC   C21 9371   8.209   2.932   2.383
  188DPPC   C22 9372   8.286   2.886   2.506
  188DPPC   C23 9373   8.267   3.001   2.605
  188DPPC   C24 9374   8.353   2.964   2.726
  188DPPC   C25 9375   8.373   3.088   2.812
  188DPPC   C26 9376   8.451   3.063   2.941
  188DPPC   C27 9377   8.454   3.194   3.021
  188DPPC   C28 9378   8.524   3.162   3.153
  188DPPC   C29 9379   8.663   3.103   3.132
  188DPPC   C30 9380   8.714   3.071   3.273
  188DPPC   C31 9381   8.726   2.919   3.288
  188DPPC   C32 9382   7.844   2.609   1.891
  188DPPC   O33 9383   7.828   2.690   2.008
  188DPPC   C34 9384   7.723   2.655   2.087
  188DPPC   O35 9385   7.639   2.576   2.043
  188DPPC   C36 9386   7.693   2.739   2.211
  188DPPC   C37 9387   7.817   2.764   2.296
  188DPPC   C38 9388   7.820   2.867   2.410
  188DPPC   C39 9389   7.713   2.821   2.510
  188DPPC   C40 9390   7.719   2.922   2.624
  188DPPC   C41 9391   7.620   2.894   2.738
  188DPPC   C42 9392   7.678   2.929   2.875
  188DPPC   C43 9393   7.586   2.892   2.992
  188DPPC   C44 9394   7.675   2.915   3.114
  188DPPC   C45 9395   7.634   2.842   3.242
  188DPPC   C46 9396   7.739   2.872   3.349
  188DPPC   C47 9397   7.720   2.800   3.482
  188DPPC   C48 9398   7.851   2.809   3.559
  188DPPC   C49 9399   7.836   2.748   3.699
  188DPPC   C50 9400   7.951   2.776   3.795
  189DPPC    C1 9401   9.015   3.657   1.402
  189DPPC    C2 9402   8.894   3.467   1.492
  189DPPC    C3 9403   8.934   3.667   1.625
  189DPPC    N4 9404   8.906   3.614   1.491
  189DPPC    C5 9405   8.773   3.653   1.444
  189DPPC    C6 9406   8.725   3.797   1.464
  189DPPC    O7 9407   8.826   3.891   1.426
  189DPPC    P8 9408   8.785   4.046   1.415
  189DPPC    O9 9409   8.640   4.046   1.386
  189DPPC   O10 9410   8.882   4.114   1.326
  189DPPC   O11 9411   8.806   4.079   1.571
  189DPPC   C12 9412   8.947   4.071   1.595
  189DPPC   C13 9413   9.004   4.147   1.714
  189DPPC   O14 9414   8.977   4.096   1.845
  189DPPC   C15 9415   9.037   3.981   1.887
  189DPPC   O16 9416   9.092   3.908   1.805
  189DPPC   C17 9417   9.001   3.939   2.029
  189DPPC   C18 9418   9.042   4.045   2.132
  189DPPC   C19 9419   8.953   4.035   2.256
  189DPPC   C20 9420   8.808   4.068   2.222
  189DPPC   C21 9421   8.740   4.123   2.348
  189DPPC   C22 9422   8.591   4.147   2.325
  189DPPC   C23 9423   8.541   4.182   2.466
  189DPPC   C24 9424   8.400   4.240   2.452
  189DPPC   C25 9425   8.350   4.301   2.583
  189DPPC   C26 9426   8.348   4.215   2.710
  189DPPC   C27 9427   8.296   4.286   2.835
  189DPPC   C28 9428   8.275   4.197   2.958
  189DPPC   C29 9429   8.405   4.180   3.035
  189DPPC   C30 9430   8.403   4.214   3.184
  189DPPC   C31 9431   8.298   4.131   3.260
  189DPPC   C32 9432   8.980   4.297   1.693
  189DPPC   O33 9433   9.065   4.383   1.769
  189DPPC   C34 9434   9.082   4.511   1.728
  189DPPC   O35 9435   9.053   4.547   1.613
  189DPPC   C36 9436   9.163   4.603   1.820
  189DPPC   C37 9437   9.071   4.675   1.919
  189DPPC   C38 9438   9.027   4.594   2.042
  189DPPC   C39 9439   8.904   4.663   2.100
  189DPPC   C40 9440   8.881   4.634   2.248
  189DPPC   C41 9441   8.761   4.704   2.313
  189DPPC   C42 9442   8.790   4.697   2.462
  189DPPC   C43 9443   8.771   4.553   2.508
  189DPPC   C44 9444   8.748   4.552   2.659
  189DPPC   C45 9445   8.720   4.415   2.722
  189DPPC   C46 9446   8.673   4.449   2.864
  189DPPC   C47 9447   8.777   4.543   2.926
  189DPPC   C48 9448   8.714   4.601   3.052
  189DPPC   C49 9449   8.647   4.491   3.134
  189DPPC   C50 9450   8.585   4.561   3.255
  190DPPC    C1 9451   5.095   7.117   1.819
  190DPPC    C2 9452   4.862   7.184   1.778
  190DPPC    C3 9453   4.965   7.220   1.992
  190DPPC    N4 9454   4.988   7.213   1.847
  190DPPC    C5 9455   5.026   7.353   1.818
  190DPPC    C6 9456   5.157   7.404   1.878
  190DPPC    O7 9457   5.135   7.498   1.983
  190DPPC    P8 9458   5.281   7.552   2.022
  190DPPC    O9 9459   5.240   7.641   2.132
  190DPPC   O10 9460   5.358   7.590   1.901
  190DPPC   O11 9461   5.322   7.409   2.082
  190DPPC   C12 9462   5.261   7.397   2.210
  190DPPC   C13 9463   5.244   7.248   2.241
  190DPPC   O14 9464   5.127   7.202   2.311
  190DPPC   C15 9465   5.098   7.071   2.292
  190DPPC   O16 9466   5.148   6.993   2.211
  190DPPC   C17 9467   4.984   7.027   2.384
  190DPPC   C18 9468   5.042   6.934   2.490
  190DPPC   C19 9469   5.156   7.002   2.566
  190DPPC   C20 9470   5.241   6.886   2.616
  190DPPC   C21 9471   5.393   6.907   2.618
  190DPPC   C22 9472   5.452   6.828   2.735
  190DPPC   C23 9473   5.600   6.863   2.757
  190DPPC   C24 9474   5.635   6.819   2.899
  190DPPC   C25 9475   5.630   6.666   2.908
  190DPPC   C26 9476   5.728   6.589   2.819
  190DPPC   C27 9477   5.683   6.443   2.823
  190DPPC   C28 9478   5.714   6.381   2.959
  190DPPC   C29 9479   5.700   6.228   2.961
  190DPPC   C30 9480   5.760   6.179   3.093
  190DPPC   C31 9481   5.719   6.036   3.126
  190DPPC   C32 9482   5.381   7.212   2.298
  190DPPC   O33 9483   5.424   7.280   2.417
  190DPPC   C34 9484   5.556   7.245   2.423
  190DPPC   O35 9485   5.585   7.134   2.381
  190DPPC   C36 9486   5.652   7.356   2.467
  190DPPC   C37 9487   5.649   7.372   2.619
  190DPPC   C38 9488   5.717   7.502   2.662
  190DPPC   C39 9489   5.868   7.483   2.677
  190DPPC   C40 9490   5.932   7.600   2.752
  190DPPC   C41 9491   5.908   7.729   2.674
  190DPPC   C42 9492   5.953   7.853   2.752
  190DPPC   C43 9493   5.868   7.865   2.879
  190DPPC   C44 9494   5.919   7.971   2.977
  190DPPC   C45 9495   5.837   7.990   3.105
  190DPPC   C46 9496   5.903   8.090   3.200
  190DPPC   C47 9497   5.826   8.115   3.330
  190DPPC   C48 9498   5.905   8.205   3.425
  190DPPC   C49 9499   5.829   8.219   3.557
  190DPPC   C50 9500   5.906   8.265   3.681
  191DPPC    C1 9501   1.046   2.206   1.443
  191DPPC    C2 9502   1.231   2.086   1.337
  191DPPC    C3 9503   1.189   2.067   1.575
  191DPPC    N4 9504   1.128   2.084   1.442
  191DPPC    C5 9505   1.048   1.969   1.397
  191DPPC    C6 9506   0.955   1.899   1.496
  191DPPC    O7 9507   0.857   1.980   1.561
  191DPPC    P8 9508   0.762   1.891   1.656
  191DPPC    O9 9509   0.866   1.811   1.726
  191DPPC   O10 9510   0.682   1.841   1.543
  191DPPC   O11 9511   0.696   2.023   1.719
  191DPPC   C12 9512   0.757   2.027   1.848
  191DPPC   C13 9513   0.771   2.169   1.902
  191DPPC   O14 9514   0.852   2.195   2.018
  191DPPC   C15 9515   0.980   2.152   2.035
  191DPPC   O16 9516   1.051   2.135   1.936
  191DPPC   C17 9517   1.040   2.164   2.176
  191DPPC   C18 9518   1.050   2.026   2.240
  191DPPC   C19 9519   1.102   2.051   2.382
  191DPPC   C20 9520   1.232   2.132   2.389
  191DPPC   C21 9521   1.287   2.090   2.526
  191DPPC   C22 9522   1.346   2.207   2.603
  191DPPC   C23 9523   1.356   2.170   2.751
  191DPPC   C24 9524   1.416   2.283   2.834
  191DPPC   C25 9525   1.379   2.257   2.980
  191DPPC   C26 9526   1.228   2.242   3.003
  191DPPC   C27 9527   1.197   2.191   3.144
  191DPPC   C28 9528   1.282   2.067   3.173
  191DPPC   C29 9529   1.236   2.014   3.309
  191DPPC   C30 9530   1.300   1.882   3.355
  191DPPC   C31 9531   1.246   1.833   3.489
  191DPPC   C32 9532   0.624   2.208   1.921
  191DPPC   O33 9533   0.548   2.127   2.011
  191DPPC   C34 9534   0.412   2.130   2.004
  191DPPC   O35 9535   0.351   2.198   1.922
  191DPPC   C36 9536   0.344   2.018   2.083
  191DPPC   C37 9537   0.268   2.061   2.208
  191DPPC   C38 9538   0.230   1.933   2.283
  191DPPC   C39 9539   0.190   1.971   2.426
  191DPPC   C40 9540   0.064   2.057   2.423
  191DPPC   C41 9541   0.017   2.054   2.568
  191DPPC   C42 9542  -0.003   1.906   2.599
  191DPPC   C43 9543  -0.024   1.882   2.749
  191DPPC   C44 9544  -0.136   1.965   2.811
  191DPPC   C45 9545  -0.170   1.874   2.929
  191DPPC   C46 9546  -0.285   1.943   3.003
  191DPPC   C47 9547  -0.255   2.063   3.093
  191DPPC   C48 9548  -0.382   2.109   3.165
  191DPPC   C49 9549  -0.434   1.984   3.236
  191DPPC   C50 9550  -0.564   1.983   3.316
  192DPPC    C1 9551   4.861   1.008   1.829
  192DPPC    C2 9552   4.851   0.769   1.836
  192DPPC    C3 9553   5.063   0.877   1.813
  192DPPC    N4 9554   4.930   0.887   1.875
  192DPPC    C5 9555   4.944   0.873   2.021
  192DPPC    C6 9556   4.997   0.977   2.119
  192DPPC    O7 9557   4.931   1.103   2.107
  192DPPC    P8 9558   5.017   1.211   2.190
  192DPPC    O9 9559   4.955   1.340   2.154
  192DPPC   O10 9560   5.157   1.178   2.156
  192DPPC   O11 9561   4.980   1.186   2.344
  192DPPC   C12 9562   4.864   1.251   2.396
  192DPPC   C13 9563   4.870   1.243   2.548
  192DPPC   O14 9564   4.749   1.288   2.610
  192DPPC   C15 9565   4.642   1.205   2.596
  192DPPC   O16 9566   4.641   1.101   2.529
  192DPPC   C17 9567   4.510   1.258   2.653
  192DPPC   C18 9568   4.526   1.382   2.741
  192DPPC   C19 9569   4.396   1.434   2.802
  192DPPC   C20 9570   4.346   1.355   2.923
  192DPPC   C21 9571   4.226   1.421   2.992
  192DPPC   C22 9572   4.172   1.324   3.097
  192DPPC   C23 9573   4.255   1.314   3.225
  192DPPC   C24 9574   4.191   1.223   3.329
  192DPPC   C25 9575   4.289   1.204   3.444
  192DPPC   C26 9576   4.424   1.176   3.376
  192DPPC   C27 9577   4.500   1.089   3.477
  192DPPC   C28 9578   4.596   1.008   3.390
  192DPPC   C29 9579   4.672   0.908   3.478
  192DPPC   C30 9580   4.762   0.825   3.385
  192DPPC   C31 9581   4.897   0.888   3.352
  192DPPC   C32 9582   5.000   1.309   2.596
  192DPPC   O33 9583   5.039   1.263   2.725
  192DPPC   C34 9584   5.167   1.290   2.763
  192DPPC   O35 9585   5.259   1.280   2.682
  192DPPC   C36 9586   5.183   1.261   2.913
  192DPPC   C37 9587   5.241   1.120   2.922
  192DPPC   C38 9588   5.256   1.110   3.074
  192DPPC   C39 9589   5.221   0.968   3.119
  192DPPC   C40 9590   5.289   0.947   3.255
  192DPPC   C41 9591   5.325   0.803   3.289
  192DPPC   C42 9592   5.382   0.796   3.431
  192DPPC   C43 9593   5.421   0.655   3.475
  192DPPC   C44 9594   5.460   0.635   3.622
  192DPPC   C45 9595   5.447   0.489   3.665
  192DPPC   C46 9596   5.525   0.407   3.561
  192DPPC   C47 9597   5.524   0.261   3.606
  192DPPC   C48 9598   5.604   0.179   3.506
  192DPPC   C49 9599   5.638   0.039   3.557
  192DPPC   C50 9600   5.517  -0.037   3.611
  193DPPC    C1 9601   5.484   5.665   6.190
  193DPPC    C2 9602   5.349   5.477   6.185
  193DPPC    C3 9603   5.307   5.666   6.051
  193DPPC    N4 9604   5.413   5.576   6.098
  193DPPC    C5 9605   5.506   5.517   6.000
  193DPPC    C6 9606   5.459   5.391   5.928
  193DPPC    O7 9607   5.527   5.373   5.803
  193DPPC    P8 9608   5.496   5.217   5.774
  193DPPC    O9 9609   5.462   5.153   5.903
  193DPPC   O10 9610   5.603   5.158   5.691
  193DPPC   O11 9611   5.368   5.229   5.677
  193DPPC   C12 9612   5.392   5.192   5.541
  193DPPC   C13 9613   5.279   5.238   5.448
  193DPPC   O14 9614   5.270   5.143   5.341
  193DPPC   C15 9615   5.185   5.037   5.354
  193DPPC   O16 9616   5.096   5.044   5.438
  193DPPC   C17 9617   5.181   4.945   5.232
  193DPPC   C18 9618   5.321   4.929   5.173
  193DPPC   C19 9619   5.315   4.814   5.074
  193DPPC   C20 9620   5.415   4.835   4.960
  193DPPC   C21 9621   5.413   4.710   4.871
  193DPPC   C22 9622   5.529   4.722   4.772
  193DPPC   C23 9623   5.531   4.594   4.687
  193DPPC   C24 9624   5.616   4.639   4.568
  193DPPC   C25 9625   5.630   4.527   4.464
  193DPPC   C26 9626   5.690   4.591   4.338
  193DPPC   C27 9627   5.833   4.638   4.365
  193DPPC   C28 9628   5.886   4.721   4.247
  193DPPC   C29 9629   5.890   4.639   4.118
  193DPPC   C30 9630   5.962   4.723   4.013
  193DPPC   C31 9631   5.870   4.826   3.947
  193DPPC   C32 9632   5.300   5.384   5.408
  193DPPC   O33 9633   5.416   5.409   5.328
  193DPPC   C34 9634   5.369   5.432   5.203
  193DPPC   O35 9635   5.260   5.483   5.181
  193DPPC   C36 9636   5.481   5.424   5.098
  193DPPC   C37 9637   5.520   5.277   5.081
  193DPPC   C38 9638   5.662   5.267   5.024
  193DPPC   C39 9639   5.667   5.118   4.993
  193DPPC   C40 9640   5.805   5.070   4.946
  193DPPC   C41 9641   5.817   4.917   4.939
  193DPPC   C42 9642   5.946   4.869   4.873
  193DPPC   C43 9643   5.981   4.725   4.911
  193DPPC   C44 9644   6.099   4.690   4.820
  193DPPC   C45 9645   6.066   4.719   4.673
  193DPPC   C46 9646   6.176   4.668   4.579
  193DPPC   C47 9647   6.193   4.516   4.592
  193DPPC   C48 9648   6.308   4.467   4.505
  193DPPC   C49 9649   6.268   4.475   4.358
  193DPPC   C50 9650   6.379   4.401   4.282
  194DPPC    C1 9651   8.056   5.452   1.062
  194DPPC    C2 9652   7.893   5.626   1.101
  194DPPC    C3 9653   7.880   5.478   0.912
  194DPPC    N4 9654   7.914   5.488   1.055
  194DPPC    C5 9655   7.813   5.404   1.121
  194DPPC    C6 9656   7.822   5.251   1.123
  194DPPC    O7 9657   7.912   5.208   1.225
  194DPPC    P8 9658   7.909   5.048   1.241
  194DPPC    O9 9659   7.935   5.005   1.101
  194DPPC   O10 9660   7.776   5.020   1.300
  194DPPC   O11 9661   8.031   5.019   1.342
  194DPPC   C12 9662   7.999   5.074   1.470
  194DPPC   C13 9663   8.076   5.197   1.519
  194DPPC   O14 9664   8.167   5.166   1.625
  194DPPC   C15 9665   8.251   5.251   1.689
  194DPPC   O16 9666   8.264   5.365   1.645
  194DPPC   C17 9667   8.342   5.204   1.803
  194DPPC   C18 9668   8.287   5.097   1.897
  194DPPC   C19 9669   8.400   5.000   1.932
  194DPPC   C20 9670   8.457   4.984   2.073
  194DPPC   C21 9671   8.350   4.913   2.155
  194DPPC   C22 9672   8.391   4.896   2.301
  194DPPC   C23 9673   8.326   4.773   2.365
  194DPPC   C24 9674   8.294   4.810   2.509
  194DPPC   C25 9675   8.212   4.699   2.574
  194DPPC   C26 9676   8.215   4.727   2.725
  194DPPC   C27 9677   8.354   4.713   2.787
  194DPPC   C28 9678   8.334   4.716   2.938
  194DPPC   C29 9679   8.243   4.823   3.000
  194DPPC   C30 9680   8.260   4.834   3.152
  194DPPC   C31 9681   8.178   4.955   3.198
  194DPPC   C32 9682   7.965   5.290   1.567
  194DPPC   O33 9683   7.881   5.250   1.676
  194DPPC   C34 9684   7.768   5.323   1.693
  194DPPC   O35 9685   7.749   5.417   1.615
  194DPPC   C36 9686   7.686   5.287   1.816
  194DPPC   C37 9687   7.550   5.356   1.818
  194DPPC   C38 9688   7.476   5.335   1.950
  194DPPC   C39 9689   7.347   5.417   1.953
  194DPPC   C40 9690   7.252   5.392   2.070
  194DPPC   C41 9691   7.187   5.253   2.067
  194DPPC   C42 9692   7.109   5.235   2.197
  194DPPC   C43 9693   7.203   5.242   2.318
  194DPPC   C44 9694   7.130   5.246   2.453
  194DPPC   C45 9695   7.241   5.280   2.552
  194DPPC   C46 9696   7.194   5.254   2.695
  194DPPC   C47 9697   7.293   5.289   2.806
  194DPPC   C48 9698   7.228   5.253   2.939
  194DPPC   C49 9699   7.329   5.281   3.050
  194DPPC   C50 9700   7.454   5.196   3.028
  195DPPC    C1 9701   2.562   3.494   5.598
  195DPPC    C2 9702   2.352   3.555   5.543
  195DPPC    C3 9703   2.484   3.508   5.362
  195DPPC    N4 9704   2.458   3.462   5.499
  195DPPC    C5 9705   2.402   3.327   5.514
  195DPPC    C6 9706   2.463   3.208   5.440
  195DPPC    O7 9707   2.588   3.165   5.495
  195DPPC    P8 9708   2.632   3.019   5.443
  195DPPC    O9 9709   2.597   3.020   5.299
  195DPPC   O10 9710   2.578   2.921   5.541
  195DPPC   O11 9711   2.792   3.031   5.450
  195DPPC   C12 9712   2.823   3.138   5.361
  195DPPC   C13 9713   2.895   3.267   5.404
  195DPPC   O14 9714   2.875   3.365   5.301
  195DPPC   C15 9715   2.906   3.497   5.316
  195DPPC   O16 9716   2.888   3.542   5.429
  195DPPC   C17 9717   2.904   3.586   5.192
  195DPPC   C18 9718   3.011   3.544   5.092
  195DPPC   C19 9719   2.997   3.635   4.970
  195DPPC   C20 9720   3.061   3.573   4.846
  195DPPC   C21 9721   2.979   3.449   4.810
  195DPPC   C22 9722   3.010   3.393   4.672
  195DPPC   C23 9723   2.962   3.503   4.577
  195DPPC   C24 9724   2.992   3.483   4.428
  195DPPC   C25 9725   2.946   3.349   4.370
  195DPPC   C26 9726   2.981   3.330   4.222
  195DPPC   C27 9727   3.132   3.346   4.205
  195DPPC   C28 9728   3.154   3.354   4.054
  195DPPC   C29 9729   3.124   3.216   3.994
  195DPPC   C30 9730   3.218   3.121   4.068
  195DPPC   C31 9731   3.210   2.978   4.014
  195DPPC   C32 9732   3.041   3.229   5.428
  195DPPC   O33 9733   3.094   3.137   5.332
  195DPPC   C34 9734   3.225   3.105   5.350
  195DPPC   O35 9735   3.284   3.152   5.446
  195DPPC   C36 9736   3.292   3.007   5.254
  195DPPC   C37 9737   3.359   3.093   5.147
  195DPPC   C38 9738   3.377   3.011   5.018
  195DPPC   C39 9739   3.242   3.000   4.947
  195DPPC   C40 9740   3.276   2.944   4.808
  195DPPC   C41 9741   3.171   2.977   4.701
  195DPPC   C42 9742   3.233   2.935   4.568
  195DPPC   C43 9743   3.139   2.952   4.448
  195DPPC   C44 9744   2.997   2.898   4.461
  195DPPC   C45 9745   2.920   2.916   4.330
  195DPPC   C46 9746   2.772   2.879   4.345
  195DPPC   C47 9747   2.673   2.933   4.242
  195DPPC   C48 9748   2.673   3.085   4.224
  195DPPC   C49 9749   2.640   3.138   4.085
  195DPPC   C50 9750   2.642   3.289   4.110
  196DPPC    C1 9751   0.696   0.069   1.649
  196DPPC    C2 9752   0.557   0.223   1.550
  196DPPC    C3 9753   0.526   0.179   1.785
  196DPPC    N4 9754   0.625   0.194   1.677
  196DPPC    C5 9755   0.728   0.298   1.691
  196DPPC    C6 9756   0.689   0.446   1.697
  196DPPC    O7 9757   0.576   0.489   1.774
  196DPPC    P8 9758   0.574   0.650   1.769
  196DPPC    O9 9759   0.439   0.701   1.736
  196DPPC   O10 9760   0.689   0.697   1.687
  196DPPC   O11 9761   0.636   0.689   1.912
  196DPPC   C12 9762   0.523   0.674   1.997
  196DPPC   C13 9763   0.558   0.648   2.144
  196DPPC   O14 9764   0.446   0.604   2.222
  196DPPC   C15 9765   0.400   0.478   2.200
  196DPPC   O16 9766   0.465   0.396   2.136
  196DPPC   C17 9767   0.264   0.433   2.255
  196DPPC   C18 9768   0.274   0.414   2.407
  196DPPC   C19 9769   0.151   0.362   2.482
  196DPPC   C20 9770   0.194   0.359   2.629
  196DPPC   C21 9771   0.097   0.297   2.729
  196DPPC   C22 9772   0.198   0.230   2.823
  196DPPC   C23 9773   0.115   0.186   2.943
  196DPPC   C24 9774   0.207   0.132   3.052
  196DPPC   C25 9775   0.114   0.072   3.158
  196DPPC   C26 9776   0.183  -0.026   3.253
  196DPPC   C27 9777   0.216  -0.162   3.190
  196DPPC   C28 9778   0.269  -0.260   3.295
  196DPPC   C29 9779   0.315  -0.395   3.238
  196DPPC   C30 9780   0.330  -0.525   3.317
  196DPPC   C31 9781   0.361  -0.642   3.224
  196DPPC   C32 9782   0.644   0.766   2.189
  196DPPC   O33 9783   0.580   0.890   2.156
  196DPPC   C34 9784   0.648   1.008   2.154
  196DPPC   O35 9785   0.765   1.000   2.189
  196DPPC   C36 9786   0.568   1.133   2.118
  196DPPC   C37 9787   0.497   1.211   2.229
  196DPPC   C38 9788   0.400   1.314   2.172
  196DPPC   C39 9789   0.322   1.375   2.289
  196DPPC   C40 9790   0.252   1.268   2.372
  196DPPC   C41 9791   0.175   1.335   2.486
  196DPPC   C42 9792   0.110   1.229   2.575
  196DPPC   C43 9793   0.037   1.298   2.691
  196DPPC   C44 9794  -0.020   1.193   2.787
  196DPPC   C45 9795  -0.046   1.242   2.930
  196DPPC   C46 9796  -0.120   1.142   3.019
  196DPPC   C47 9797  -0.166   1.205   3.151
  196DPPC   C48 9798  -0.230   1.101   3.243
  196DPPC   C49 9799  -0.131   1.053   3.349
  196DPPC   C50 9800  -0.199   0.982   3.466
  197DPPC    C1 9801   8.881   1.989   5.800
  197DPPC    C2 9802   8.930   1.753   5.816
  197DPPC    C3 9803   8.770   1.839   5.666
  197DPPC    N4 9804   8.902   1.865   5.724
  197DPPC    C5 9805   9.016   1.880   5.633
  197DPPC    C6 9806   9.056   1.761   5.544
  197DPPC    O7 9807   8.956   1.706   5.458
  197DPPC    P8 9808   9.027   1.612   5.348
  197DPPC    O9 9809   8.928   1.521   5.285
  197DPPC   O10 9810   9.161   1.570   5.396
  197DPPC   O11 9811   9.056   1.732   5.246
  197DPPC   C12 9812   8.930   1.780   5.198
  197DPPC   C13 9813   8.931   1.925   5.147
  197DPPC   O14 9814   8.804   1.981   5.112
  197DPPC   C15 9815   8.786   2.114   5.135
  197DPPC   O16 9816   8.839   2.163   5.234
  197DPPC   C17 9817   8.674   2.184   5.059
  197DPPC   C18 9818   8.723   2.218   4.918
  197DPPC   C19 9819   8.598   2.234   4.831
  197DPPC   C20 9820   8.642   2.289   4.696
  197DPPC   C21 9821   8.524   2.320   4.604
  197DPPC   C22 9822   8.565   2.343   4.458
  197DPPC   C23 9823   8.440   2.383   4.380
  197DPPC   C24 9824   8.346   2.469   4.465
  197DPPC   C25 9825   8.233   2.516   4.373
  197DPPC   C26 9826   8.200   2.390   4.291
  197DPPC   C27 9827   8.082   2.434   4.204
  197DPPC   C28 9828   8.035   2.306   4.135
  197DPPC   C29 9829   7.909   2.349   4.060
  197DPPC   C30 9830   7.837   2.222   4.013
  197DPPC   C31 9831   7.918   2.124   3.928
  197DPPC   C32 9832   9.030   1.914   5.031
  197DPPC   O33 9833   9.065   2.035   4.964
  197DPPC   C34 9834   9.163   2.030   4.869
  197DPPC   O35 9835   9.246   1.939   4.865
  197DPPC   C36 9836   9.179   2.154   4.782
  197DPPC   C37 9837   9.057   2.171   4.690
  197DPPC   C38 9838   9.066   2.277   4.580
  197DPPC   C39 9839   8.951   2.285   4.480
  197DPPC   C40 9840   8.982   2.424   4.425
  197DPPC   C41 9841   8.952   2.538   4.522
  197DPPC   C42 9842   9.001   2.675   4.474
  197DPPC   C43 9843   8.965   2.785   4.573
  197DPPC   C44 9844   9.045   2.914   4.548
  197DPPC   C45 9845   9.018   3.016   4.658
  197DPPC   C46 9846   9.132   3.117   4.675
  197DPPC   C47 9847   9.067   3.216   4.771
  197DPPC   C48 9848   9.158   3.332   4.815
  197DPPC   C49 9849   9.099   3.415   4.929
  197DPPC   C50 9850   9.081   3.331   5.055
  198DPPC    C1 9851   4.009   4.782   5.386
  198DPPC    C2 9852   3.799   4.719   5.466
  198DPPC    C3 9853   3.983   4.710   5.614
  198DPPC    N4 9854   3.923   4.788   5.505
  198DPPC    C5 9855   3.893   4.925   5.550
  198DPPC    C6 9856   3.996   5.007   5.629
  198DPPC    O7 9857   4.097   5.059   5.543
  198DPPC    P8 9858   4.234   5.053   5.629
  198DPPC    O9 9859   4.259   4.908   5.608
  198DPPC   O10 9860   4.218   5.119   5.760
  198DPPC   O11 9861   4.320   5.138   5.523
  198DPPC   C12 9862   4.372   5.049   5.424
  198DPPC   C13 9863   4.447   5.110   5.305
  198DPPC   O14 9864   4.570   5.182   5.317
  198DPPC   C15 9865   4.677   5.099   5.334
  198DPPC   O16 9866   4.672   4.986   5.381
  198DPPC   C17 9867   4.818   5.152   5.308
  198DPPC   C18 9868   4.820   5.224   5.173
  198DPPC   C19 9869   4.949   5.273   5.107
  198DPPC   C20 9870   4.925   5.321   4.963
  198DPPC   C21 9871   5.060   5.350   4.898
  198DPPC   C22 9872   5.135   5.221   4.865
  198DPPC   C23 9873   5.249   5.263   4.772
  198DPPC   C24 9874   5.327   5.152   4.702
  198DPPC   C25 9875   5.471   5.192   4.669
  198DPPC   C26 9876   5.537   5.085   4.582
  198DPPC   C27 9877   5.682   5.114   4.544
  198DPPC   C28 9878   5.715   5.037   4.416
  198DPPC   C29 9879   5.857   5.074   4.375
  198DPPC   C30 9880   5.951   5.041   4.491
  198DPPC   C31 9881   6.104   5.040   4.482
  198DPPC   C32 9882   4.334   5.180   5.229
  198DPPC   O33 9883   4.230   5.095   5.182
  198DPPC   C34 9884   4.126   5.158   5.120
  198DPPC   O35 9885   4.129   5.278   5.093
  198DPPC   C36 9886   3.999   5.081   5.086
  198DPPC   C37 9887   4.057   4.948   5.037
  198DPPC   C38 9888   4.117   4.948   4.896
  198DPPC   C39 9889   4.179   4.811   4.870
  198DPPC   C40 9890   4.238   4.811   4.729
  198DPPC   C41 9891   4.295   4.674   4.694
  198DPPC   C42 9892   4.403   4.690   4.587
  198DPPC   C43 9893   4.500   4.573   4.574
  198DPPC   C44 9894   4.601   4.597   4.462
  198DPPC   C45 9895   4.719   4.500   4.451
  198DPPC   C46 9896   4.819   4.533   4.340
  198DPPC   C47 9897   4.936   4.435   4.331
  198DPPC   C48 9898   4.897   4.290   4.304
  198DPPC   C49 9899   5.018   4.204   4.267
  198DPPC   C50 9900   4.967   4.068   4.219
  199DPPC    C1 9901   6.997   6.245   5.428
  199DPPC    C2 9902   6.950   6.468   5.363
  199DPPC    C3 9903   6.863   6.294   5.240
  199DPPC    N4 9904   6.891   6.334   5.379
  199DPPC    C5 9905   6.774   6.324   5.468
  199DPPC    C6 9906   6.665   6.430   5.457
  199DPPC    O7 9907   6.581   6.405   5.344
  199DPPC    P8 9908   6.459   6.510   5.341
  199DPPC    O9 9909   6.532   6.639   5.329
  199DPPC   O10 9910   6.366   6.472   5.449
  199DPPC   O11 9911   6.392   6.455   5.206
  199DPPC   C12 9912   6.491   6.398   5.119
  199DPPC   C13 9913   6.459   6.421   4.971
  199DPPC   O14 9914   6.548   6.361   4.876
  199DPPC   C15 9915   6.532   6.230   4.844
  199DPPC   O16 9916   6.462   6.162   4.919
  199DPPC   C17 9917   6.599   6.170   4.721
  199DPPC   C18 9918   6.555   6.221   4.583
  199DPPC   C19 9919   6.642   6.146   4.482
  199DPPC   C20 9920   6.610   6.211   4.348
  199DPPC   C21 9921   6.692   6.128   4.249
  199DPPC   C22 9922   6.687   6.188   4.109
  199DPPC   C23 9923   6.786   6.304   4.100
  199DPPC   C24 9924   6.780   6.352   3.955
  199DPPC   C25 9925   6.868   6.278   3.856
  199DPPC   C26 9926   6.867   6.359   3.726
  199DPPC   C27 9927   6.922   6.500   3.750
  199DPPC   C28 9928   6.922   6.581   3.620
  199DPPC   C29 9929   7.005   6.708   3.637
  199DPPC   C30 9930   7.035   6.789   3.510
  199DPPC   C31 9931   7.109   6.917   3.547
  199DPPC   C32 9932   6.444   6.573   4.966
  199DPPC   O33 9933   6.549   6.660   5.010
  199DPPC   C34 9934   6.515   6.792   5.003
  199DPPC   O35 9935   6.401   6.825   4.974
  199DPPC   C36 9936   6.620   6.889   5.056
  199DPPC   C37 9937   6.620   7.019   4.975
  199DPPC   C38 9938   6.535   7.130   5.036
  199DPPC   C39 9939   6.507   7.249   4.943
  199DPPC   C40 9940   6.440   7.201   4.815
  199DPPC   C41 9941   6.421   7.323   4.725
  199DPPC   C42 9942   6.559   7.379   4.689
  199DPPC   C43 9943   6.635   7.293   4.588
  199DPPC   C44 9944   6.767   7.364   4.559
  199DPPC   C45 9945   6.755   7.504   4.498
  199DPPC   C46 9946   6.891   7.546   4.443
  199DPPC   C47 9947   6.949   7.447   4.341
  199DPPC   C48 9948   7.089   7.489   4.294
  199DPPC   C49 9949   7.179   7.500   4.417
  199DPPC   C50 9950   7.324   7.538   4.383
  200DPPC    C1 9951   2.695   7.506   5.153
  200DPPC    C2 9952   2.777   7.374   5.346
  200DPPC    C3 9953   2.827   7.594   5.310
  200DPPC    N4 9954   2.716   7.499   5.298
  200DPPC    C5 9955   2.612   7.562   5.382
  200DPPC    C6 9956   2.471   7.506   5.369
  200DPPC    O7 9957   2.450   7.366   5.392
  200DPPC    P8 9958   2.300   7.314   5.370
  200DPPC    O9 9959   2.204   7.421   5.404
  200DPPC   O10 9960   2.307   7.190   5.450
  200DPPC   O11 9961   2.308   7.297   5.210
  200DPPC   C12 9962   2.389   7.180   5.192
  200DPPC   C13 9963   2.370   7.121   5.052
  200DPPC   O14 9964   2.452   7.168   4.943
  200DPPC   C15 9965   2.587   7.152   4.944
  200DPPC   O16 9966   2.657   7.146   5.045
  200DPPC   C17 9967   2.638   7.177   4.802
  200DPPC   C18 9968   2.734   7.065   4.761
  200DPPC   C19 9969   2.783   7.104   4.621
  200DPPC   C20 9970   2.892   7.008   4.574
  200DPPC   C21 9971   2.943   7.029   4.432
  200DPPC   C22 9972   2.837   7.016   4.321
  200DPPC   C23 9973   2.912   7.022   4.188
  200DPPC   C24 9974   2.827   7.019   4.060
  200DPPC   C25 9975   2.903   7.032   3.929
  200DPPC   C26 9976   2.978   7.164   3.911
  200DPPC   C27 9977   3.053   7.174   3.777
  200DPPC   C28 9978   3.152   7.290   3.770
  200DPPC   C29 9979   3.219   7.291   3.633
  200DPPC   C30 9980   3.300   7.162   3.615
  200DPPC   C31 9981   3.398   7.151   3.498
  200DPPC   C32 9982   2.218   7.109   5.044
  200DPPC   O33 9983   2.170   7.028   4.937
  200DPPC   C34 9984   2.035   7.016   4.945
  200DPPC   O35 9985   1.968   7.032   5.047
  200DPPC   C36 9986   1.980   6.943   4.822
  200DPPC   C37 9987   1.940   7.028   4.702
  200DPPC   C38 9988   1.903   6.938   4.583
  200DPPC   C39 9989   2.031   6.884   4.519
  200DPPC   C40 9990   2.012   6.772   4.416
  200DPPC   C41 9991   2.140   6.722   4.349
  200DPPC   C42 9992   2.095   6.615   4.250
  200DPPC   C43 9993   1.976   6.669   4.170
  200DPPC   C44 9994   1.904   6.558   4.094
  200DPPC   C45 9995   1.756   6.593   4.073
  200DPPC   C46 9996   1.727   6.728   4.007
  200DPPC   C47 9997   1.583   6.741   3.956
  200DPPC   C48 9998   1.552   6.888   3.930
  200DPPC   C49 9999   1.410   6.924   3.885
  200DPPC   C5010000   1.391   7.075   3.867
  201DPPC    C110001   7.846   1.443   5.780
  201DPPC    C210002   7.856   1.510   6.013
  201DPPC    C310003   7.880   1.286   5.959
  201DPPC    N410004   7.911   1.421   5.910
  201DPPC    C510005   8.057   1.433   5.923
  201DPPC    C610006   8.131   1.544   5.847
  201DPPC    O710007   8.086   1.668   5.903
  201DPPC    P810008   8.139   1.791   5.814
  201DPPC    O910009   8.281   1.758   5.787
  201DPPC   O1010010   8.105   1.928   5.858
  201DPPC   O1110011   8.052   1.756   5.683
  201DPPC   C1210012   8.122   1.815   5.573
  201DPPC   C1310013   8.047   1.842   5.442
  201DPPC   O1410014   7.948   1.946   5.439
  201DPPC   C1510015   7.987   2.076   5.452
  201DPPC   O1610016   8.079   2.105   5.527
  201DPPC   C1710017   7.895   2.176   5.382
  201DPPC   C1810018   7.917   2.175   5.230
  201DPPC   C1910019   7.835   2.287   5.165
  201DPPC   C2010020   7.687   2.251   5.180
  201DPPC   C2110021   7.597   2.357   5.116
  201DPPC   C2210022   7.453   2.311   5.095
  201DPPC   C2310023   7.372   2.423   5.031
  201DPPC   C2410024   7.410   2.437   4.883
  201DPPC   C2510025   7.318   2.540   4.817
  201DPPC   C2610026   7.341   2.541   4.666
  201DPPC   C2710027   7.225   2.604   4.588
  201DPPC   C2810028   7.228   2.564   4.440
  201DPPC   C2910029   7.102   2.585   4.356
  201DPPC   C3010030   7.110   2.528   4.214
  201DPPC   C3110031   6.993   2.431   4.197
  201DPPC   C3210032   7.993   1.702   5.410
  201DPPC   O3310033   8.103   1.613   5.391
  201DPPC   C3410034   8.069   1.484   5.414
  201DPPC   O3510035   7.955   1.457   5.453
  201DPPC   C3610036   8.177   1.380   5.385
  201DPPC   C3710037   8.233   1.396   5.243
  201DPPC   C3810038   8.313   1.275   5.195
  201DPPC   C3910039   8.372   1.296   5.055
  201DPPC   C4010040   8.261   1.345   4.963
  201DPPC   C4110041   8.312   1.394   4.827
  201DPPC   C4210042   8.198   1.479   4.769
  201DPPC   C4310043   8.221   1.552   4.637
  201DPPC   C4410044   8.089   1.614   4.591
  201DPPC   C4510045   7.971   1.519   4.568
  201DPPC   C4610046   7.848   1.597   4.522
  201DPPC   C4710047   7.722   1.510   4.519
  201DPPC   C4810048   7.605   1.605   4.492
  201DPPC   C4910049   7.476   1.541   4.543
  201DPPC   C5010050   7.487   1.509   4.692
  202DPPC    C110051   0.722   2.537   5.695
  202DPPC    C210052   0.937   2.551   5.794
  202DPPC    C310053   0.735   2.622   5.897
  202DPPC    N410054   0.797   2.514   5.819
  202DPPC    C510055   0.775   2.384   5.884
  202DPPC    C610056   0.754   2.256   5.803
  202DPPC    O710057   0.626   2.249   5.740
  202DPPC    P810058   0.597   2.110   5.665
  202DPPC    O910059   0.453   2.078   5.671
  202DPPC   O1010060   0.710   2.030   5.718
  202DPPC   O1110061   0.642   2.168   5.521
  202DPPC   C1210062   0.541   2.236   5.446
  202DPPC   C1310063   0.600   2.341   5.352
  202DPPC   O1410064   0.499   2.383   5.260
  202DPPC   C1510065   0.495   2.510   5.212
  202DPPC   O1610066   0.487   2.603   5.293
  202DPPC   C1710067   0.440   2.529   5.071
  202DPPC   C1810068   0.403   2.668   5.018
  202DPPC   C1910069   0.377   2.662   4.867
  202DPPC   C2010070   0.318   2.801   4.843
  202DPPC   C2110071   0.261   2.826   4.703
  202DPPC   C2210072   0.371   2.825   4.596
  202DPPC   C2310073   0.305   2.865   4.464
  202DPPC   C2410074   0.400   2.824   4.352
  202DPPC   C2510075   0.340   2.833   4.211
  202DPPC   C2610076   0.436   2.768   4.112
  202DPPC   C2710077   0.393   2.787   3.966
  202DPPC   C2810078   0.506   2.734   3.878
  202DPPC   C2910079   0.483   2.759   3.728
  202DPPC   C3010080   0.608   2.738   3.643
  202DPPC   C3110081   0.602   2.807   3.507
  202DPPC   C3210082   0.713   2.257   5.292
  202DPPC   O3310083   0.768   2.288   5.163
  202DPPC   C3410084   0.855   2.199   5.109
  202DPPC   O3510085   0.872   2.093   5.168
  202DPPC   C3610086   0.886   2.216   4.960
  202DPPC   C3710087   0.836   2.352   4.913
  202DPPC   C3810088   0.830   2.368   4.761
  202DPPC   C3910089   0.820   2.520   4.749
  202DPPC   C4010090   0.775   2.570   4.611
  202DPPC   C4110091   0.746   2.721   4.614
  202DPPC   C4210092   0.736   2.764   4.468
  202DPPC   C4310093   0.863   2.725   4.393
  202DPPC   C4410094   0.838   2.725   4.242
  202DPPC   C4510095   0.959   2.691   4.154
  202DPPC   C4610096   0.914   2.676   4.009
  202DPPC   C4710097   1.039   2.683   3.920
  202DPPC   C4810098   0.994   2.654   3.776
  202DPPC   C4910099   1.097   2.665   3.663
  202DPPC   C5010100   1.030   2.613   3.535
  203DPPC    C110101   1.989   7.562   4.489
  203DPPC    C210102   1.778   7.507   4.384
  203DPPC    C310103   1.895   7.349   4.523
  203DPPC    N410104   1.861   7.491   4.504
  203DPPC    C510105   1.786   7.541   4.620
  203DPPC    C610106   1.810   7.503   4.766
  203DPPC    O710107   1.932   7.556   4.819
  203DPPC    P810108   2.001   7.441   4.908
  203DPPC    O910109   1.908   7.330   4.939
  203DPPC   O1010110   2.087   7.514   5.004
  203DPPC   O1110111   2.097   7.371   4.800
  203DPPC   C1210112   2.236   7.402   4.813
  203DPPC   C1310113   2.296   7.355   4.680
  203DPPC   O1410114   2.285   7.452   4.575
  203DPPC   C1510115   2.392   7.529   4.542
  203DPPC   O1610116   2.433   7.595   4.637
  203DPPC   C1710117   2.401   7.571   4.395
  203DPPC   C1810118   2.541   7.561   4.334
  203DPPC   C1910119   2.537   7.561   4.181
  203DPPC   C2010120   2.671   7.569   4.108
  203DPPC   C2110121   2.778   7.470   4.154
  203DPPC   C2210122   2.905   7.480   4.069
  203DPPC   C2310123   2.928   7.625   4.028
  203DPPC   C2410124   3.053   7.649   3.942
  203DPPC   C2510125   3.074   7.798   3.918
  203DPPC   C2610126   3.178   7.822   3.807
  203DPPC   C2710127   3.213   7.967   3.776
  203DPPC   C2810128   3.258   8.034   3.906
  203DPPC   C2910129   3.314   8.174   3.885
  203DPPC   C3010130   3.324   8.233   4.026
  203DPPC   C3110131   3.423   8.350   4.020
  203DPPC   C3210132   2.261   7.209   4.652
  203DPPC   O3310133   2.317   7.150   4.534
  203DPPC   C3410134   2.270   7.191   4.414
  203DPPC   O3510135   2.165   7.255   4.407
  203DPPC   C3610136   2.365   7.185   4.294
  203DPPC   C3710137   2.327   7.072   4.197
  203DPPC   C3810138   2.437   7.064   4.090
  203DPPC   C3910139   2.425   6.934   4.010
  203DPPC   C4010140   2.317   6.948   3.902
  203DPPC   C4110141   2.265   6.810   3.864
  203DPPC   C4210142   2.134   6.817   3.785
  203DPPC   C4310143   2.073   6.679   3.757
  203DPPC   C4410144   1.946   6.704   3.677
  203DPPC   C4510145   1.873   6.582   3.620
  203DPPC   C4610146   1.743   6.631   3.557
  203DPPC   C4710147   1.636   6.523   3.575
  203DPPC   C4810148   1.509   6.573   3.506
  203DPPC   C4910149   1.433   6.677   3.588
  203DPPC   C5010150   1.298   6.722   3.530
  204DPPC    C110151   9.476   7.629   4.735
  204DPPC    C210152   9.666   7.607   4.586
  204DPPC    C310153   9.679   7.533   4.808
  204DPPC    N410154   9.588   7.543   4.693
  204DPPC    C510155   9.551   7.410   4.643
  204DPPC    C610156   9.431   7.347   4.714
  204DPPC    O710157   9.380   7.235   4.642
  204DPPC    P810158   9.288   7.166   4.754
  204DPPC    O910159   9.249   7.262   4.859
  204DPPC   O1010160   9.354   7.036   4.783
  204DPPC   O1110161   9.164   7.149   4.652
  204DPPC   C1210162   9.181   7.021   4.589
  204DPPC   C1310163   9.059   6.976   4.509
  204DPPC   O1410164   9.046   6.839   4.467
  204DPPC   C1510165   9.018   6.743   4.559
  204DPPC   O1610166   8.999   6.773   4.677
  204DPPC   C1710167   9.004   6.601   4.503
  204DPPC   C1810168   8.866   6.559   4.454
  204DPPC   C1910169   8.867   6.421   4.388
  204DPPC   C2010170   8.959   6.420   4.266
  204DPPC   C2110171   8.921   6.299   4.179
  204DPPC   C2210172   8.982   6.333   4.043
  204DPPC   C2310173   8.886   6.296   3.929
  204DPPC   C2410174   8.954   6.349   3.802
  204DPPC   C2510175   9.088   6.277   3.787
  204DPPC   C2610176   9.155   6.323   3.658
  204DPPC   C2710177   9.054   6.337   3.543
  204DPPC   C2810178   9.114   6.400   3.417
  204DPPC   C2910179   8.996   6.465   3.344
  204DPPC   C3010180   8.932   6.369   3.243
  204DPPC   C3110181   8.822   6.441   3.165
  204DPPC   C3210182   9.034   7.085   4.406
  204DPPC   O3310183   9.139   7.119   4.315
  204DPPC   C3410184   9.102   7.211   4.223
  204DPPC   O3510185   8.991   7.263   4.217
  204DPPC   C3610186   9.217   7.250   4.129
  204DPPC   C3710187   9.172   7.294   3.989
  204DPPC   C3810188   9.288   7.311   3.891
  204DPPC   C3910189   9.341   7.171   3.858
  204DPPC   C4010190   9.229   7.098   3.784
  204DPPC   C4110191   9.288   6.969   3.728
  204DPPC   C4210192   9.186   6.894   3.641
  204DPPC   C4310193   9.264   6.780   3.575
  204DPPC   C4410194   9.382   6.828   3.491
  204DPPC   C4510195   9.468   6.711   3.443
  204DPPC   C4610196   9.511   6.618   3.556
  204DPPC   C4710197   9.590   6.505   3.492
  204DPPC   C4810198   9.508   6.459   3.371
  204DPPC   C4910199   9.581   6.358   3.283
  204DPPC   C5010200   9.654   6.248   3.361
  205DPPC    C110201   2.213   8.064   5.640
  205DPPC    C210202   2.433   7.960   5.634
  205DPPC    C310203   2.249   7.852   5.548
  205DPPC    N410204   2.309   7.986   5.560
  205DPPC    C510205   2.331   8.060   5.435
  205DPPC    C610206   2.219   8.063   5.330
  205DPPC    O710207   2.110   8.148   5.367
  205DPPC    P810208   1.972   8.093   5.304
  205DPPC    O910209   1.858   8.173   5.354
  205DPPC   O1010210   1.975   7.947   5.329
  205DPPC   O1110211   2.005   8.123   5.149
  205DPPC   C1210212   1.945   8.249   5.120
  205DPPC   C1310213   2.028   8.377   5.132
  205DPPC   O1410214   1.946   8.490   5.100
  205DPPC   C1510215   1.989   8.615   5.132
  205DPPC   O1610216   2.069   8.628   5.224
  205DPPC   C1710217   1.893   8.723   5.082
  205DPPC   C1810218   1.902   8.739   4.930
  205DPPC   C1910219   1.833   8.873   4.906
  205DPPC   C2010220   1.803   8.901   4.759
  205DPPC   C2110221   1.700   8.796   4.714
  205DPPC   C2210222   1.661   8.804   4.567
  205DPPC   C2310223   1.553   8.697   4.547
  205DPPC   C2410224   1.419   8.748   4.494
  205DPPC   C2510225   1.437   8.819   4.360
  205DPPC   C2610226   1.311   8.876   4.294
  205DPPC   C2710227   1.347   8.919   4.151
  205DPPC   C2810228   1.218   8.984   4.100
  205DPPC   C2910229   1.258   9.039   3.963
  205DPPC   C3010230   1.142   9.084   3.873
  205DPPC   C3110231   1.196   9.152   3.747
  205DPPC   C3210232   2.154   8.367   5.045
  205DPPC   O3310233   2.136   8.351   4.904
  205DPPC   C3410234   2.216   8.423   4.822
  205DPPC   O3510235   2.293   8.512   4.856
  205DPPC   C3610236   2.212   8.392   4.672
  205DPPC   C3710237   2.301   8.276   4.627
  205DPPC   C3810238   2.281   8.258   4.476
  205DPPC   C3910239   2.358   8.136   4.428
  205DPPC   C4010240   2.342   8.121   4.276
  205DPPC   C4110241   2.397   7.990   4.219
  205DPPC   C4210242   2.375   8.002   4.068
  205DPPC   C4310243   2.398   7.867   4.000
  205DPPC   C4410244   2.433   7.911   3.858
  205DPPC   C4510245   2.476   7.800   3.763
  205DPPC   C4610246   2.504   7.852   3.622
  205DPPC   C4710247   2.579   7.754   3.531
  205DPPC   C4810248   2.700   7.703   3.610
  205DPPC   C4910249   2.796   7.623   3.521
  205DPPC   C5010250   2.913   7.561   3.597
  206DPPC    C110251   2.057   5.309   4.988
  206DPPC    C210252   1.984   5.138   4.841
  206DPPC    C310253   2.097   5.072   5.046
  206DPPC    N410254   2.008   5.170   4.983
  206DPPC    C510255   1.893   5.139   5.069
  206DPPC    C610256   1.770   5.230   5.061
  206DPPC    O710257   1.702   5.239   4.936
  206DPPC    P810258   1.557   5.308   4.946
  206DPPC    O910259   1.575   5.384   5.071
  206DPPC   O1010260   1.439   5.218   4.938
  206DPPC   O1110261   1.570   5.412   4.824
  206DPPC   C1210262   1.526   5.341   4.707
  206DPPC   C1310263   1.548   5.416   4.576
  206DPPC   O1410264   1.480   5.359   4.463
  206DPPC   C1510265   1.344   5.369   4.454
  206DPPC   O1610266   1.276   5.433   4.533
  206DPPC   C1710267   1.276   5.293   4.340
  206DPPC   C1810268   1.228   5.381   4.225
  206DPPC   C1910269   1.200   5.279   4.114
  206DPPC   C2010270   1.162   5.355   3.986
  206DPPC   C2110271   1.135   5.258   3.871
  206DPPC   C2210272   1.100   5.347   3.751
  206DPPC   C2310273   1.066   5.270   3.624
  206DPPC   C2410274   1.040   5.366   3.508
  206DPPC   C2510275   1.167   5.449   3.485
  206DPPC   C2610276   1.152   5.556   3.377
  206DPPC   C2710277   1.274   5.639   3.339
  206DPPC   C2810278   1.307   5.757   3.430
  206DPPC   C2910279   1.443   5.821   3.399
  206DPPC   C3010280   1.492   5.911   3.513
  206DPPC   C3110281   1.535   5.830   3.635
  206DPPC   C3210282   1.700   5.400   4.566
  206DPPC   O3310283   1.748   5.281   4.502
  206DPPC   C3410284   1.884   5.273   4.499
  206DPPC   O3510285   1.962   5.333   4.574
  206DPPC   C3610286   1.935   5.146   4.432
  206DPPC   C3710287   1.983   5.179   4.291
  206DPPC   C3810288   2.036   5.051   4.226
  206DPPC   C3910289   2.135   4.981   4.319
  206DPPC   C4010290   2.166   4.860   4.230
  206DPPC   C4110291   2.269   4.762   4.287
  206DPPC   C4210292   2.295   4.665   4.171
  206DPPC   C4310293   2.363   4.736   4.054
  206DPPC   C4410294   2.504   4.783   4.091
  206DPPC   C4510295   2.598   4.803   3.973
  206DPPC   C4610296   2.744   4.837   4.006
  206DPPC   C4710297   2.838   4.832   3.886
  206DPPC   C4810298   2.975   4.885   3.927
  206DPPC   C4910299   3.066   4.898   3.805
  206DPPC   C5010300   3.211   4.918   3.850
  207DPPC    C110301   6.535   0.253   6.089
  207DPPC    C210302   6.742   0.275   5.980
  207DPPC    C310303   6.572   0.148   5.876
  207DPPC    N410304   6.597   0.268   5.957
  207DPPC    C510305   6.538   0.379   5.880
  207DPPC    C610306   6.584   0.524   5.903
  207DPPC    O710307   6.502   0.613   5.826
  207DPPC    P810308   6.562   0.762   5.836
  207DPPC    O910309   6.580   0.794   5.979
  207DPPC   O1010310   6.479   0.851   5.752
  207DPPC   O1110311   6.696   0.717   5.759
  207DPPC   C1210312   6.726   0.778   5.633
  207DPPC   C1310313   6.868   0.825   5.600
  207DPPC   O1410314   6.881   0.938   5.513
  207DPPC   C1510315   6.998   1.008   5.512
  207DPPC   O1610316   7.076   0.991   5.605
  207DPPC   C1710317   7.026   1.099   5.392
  207DPPC   C1810318   6.966   1.238   5.412
  207DPPC   C1910319   6.964   1.327   5.287
  207DPPC   C2010320   6.882   1.274   5.170
  207DPPC   C2110321   6.879   1.365   5.047
  207DPPC   C2210322   7.007   1.344   4.966
  207DPPC   C2310323   6.980   1.439   4.849
  207DPPC   C2410324   7.081   1.415   4.737
  207DPPC   C2510325   7.032   1.491   4.613
  207DPPC   C2610326   7.142   1.479   4.507
  207DPPC   C2710327   7.106   1.522   4.365
  207DPPC   C2810328   7.062   1.669   4.357
  207DPPC   C2910329   6.989   1.688   4.224
  207DPPC   C3010330   7.024   1.830   4.177
  207DPPC   C3110331   6.974   1.859   4.036
  207DPPC   C3210332   6.934   0.699   5.544
  207DPPC   O3310333   6.859   0.633   5.442
  207DPPC   C3410334   6.930   0.537   5.377
  207DPPC   O3510335   7.041   0.498   5.411
  207DPPC   C3610336   6.853   0.468   5.264
  207DPPC   C3710337   6.737   0.548   5.205
  207DPPC   C3810338   6.659   0.473   5.097
  207DPPC   C3910339   6.566   0.562   5.015
  207DPPC   C4010340   6.524   0.479   4.893
  207DPPC   C4110341   6.434   0.365   4.941
  207DPPC   C4210342   6.392   0.277   4.823
  207DPPC   C4310343   6.348   0.135   4.856
  207DPPC   C4410344   6.339   0.047   4.731
  207DPPC   C4510345   6.471   0.050   4.652
  207DPPC   C4610346   6.437  -0.013   4.517
  207DPPC   C4710347   6.555  -0.056   4.430
  207DPPC   C4810348   6.512  -0.094   4.288
  207DPPC   C4910349   6.642  -0.123   4.211
  207DPPC   C5010350   6.585  -0.190   4.086
  208DPPC    C110351   5.239   1.436   5.569
  208DPPC    C210352   5.386   1.337   5.415
  208DPPC    C310353   5.284   1.561   5.377
  208DPPC    N410354   5.344   1.466   5.471
  208DPPC    C510355   5.463   1.540   5.516
  208DPPC    C610356   5.551   1.482   5.627
  208DPPC    O710357   5.688   1.519   5.608
  208DPPC    P810358   5.796   1.480   5.720
  208DPPC    O910359   5.720   1.481   5.847
  208DPPC   O1010360   5.927   1.540   5.686
  208DPPC   O1110361   5.811   1.324   5.682
  208DPPC   C1210362   5.866   1.317   5.550
  208DPPC   C1310363   5.883   1.176   5.495
  208DPPC   O1410364   5.983   1.175   5.393
  208DPPC   C1510365   6.092   1.095   5.410
  208DPPC   O1610366   6.095   1.007   5.496
  208DPPC   C1710367   6.211   1.136   5.323
  208DPPC   C1810368   6.173   1.236   5.213
  208DPPC   C1910369   6.299   1.313   5.172
  208DPPC   C2010370   6.265   1.365   5.032
  208DPPC   C2110371   6.368   1.458   4.968
  208DPPC   C2210372   6.292   1.513   4.847
  208DPPC   C2310373   6.215   1.637   4.894
  208DPPC   C2410374   6.154   1.708   4.773
  208DPPC   C2510375   6.072   1.831   4.814
  208DPPC   C2610376   6.007   1.886   4.687
  208DPPC   C2710377   5.890   1.802   4.636
  208DPPC   C2810378   5.852   1.863   4.501
  208DPPC   C2910379   5.979   1.850   4.416
  208DPPC   C3010380   5.935   1.893   4.276
  208DPPC   C3110381   6.032   1.845   4.168
  208DPPC   C3210382   5.739   1.132   5.469
  208DPPC   O3310383   5.705   1.107   5.332
  208DPPC   C3410384   5.713   1.210   5.244
  208DPPC   O3510385   5.684   1.323   5.284
  208DPPC   C3610386   5.707   1.175   5.095
  208DPPC   C3710387   5.829   1.229   5.021
  208DPPC   C3810388   5.824   1.210   4.869
  208DPPC   C3910389   5.950   1.268   4.804
  208DPPC   C4010390   5.940   1.269   4.651
  208DPPC   C4110391   6.036   1.375   4.596
  208DPPC   C4210392   6.034   1.350   4.445
  208DPPC   C4310393   6.120   1.444   4.360
  208DPPC   C4410394   6.271   1.434   4.384
  208DPPC   C4510395   6.327   1.542   4.293
  208DPPC   C4610396   6.464   1.566   4.357
  208DPPC   C4710397   6.531   1.429   4.359
  208DPPC   C4810398   6.677   1.424   4.405
  208DPPC   C4910399   6.684   1.461   4.553
  208DPPC   C5010400   6.652   1.332   4.629
  209DPPC    C110401   4.796   3.790   6.087
  209DPPC    C210402   4.935   3.954   5.970
  209DPPC    C310403   4.929   3.716   5.914
  209DPPC    N410404   4.852   3.834   5.958
  209DPPC    C510405   4.746   3.842   5.857
  209DPPC    C610406   4.643   3.949   5.895
  209DPPC    O710407   4.524   3.958   5.816
  209DPPC    P810408   4.432   4.079   5.869
  209DPPC    O910409   4.483   4.106   6.006
  209DPPC   O1010410   4.292   4.040   5.841
  209DPPC   O1110411   4.494   4.200   5.782
  209DPPC   C1210412   4.511   4.162   5.646
  209DPPC   C1310413   4.379   4.141   5.572
  209DPPC   O1410414   4.390   4.080   5.442
  209DPPC   C1510415   4.277   4.022   5.392
  209DPPC   O1610416   4.188   3.992   5.471
  209DPPC   C1710417   4.288   3.958   5.254
  209DPPC   C1810418   4.151   3.926   5.195
  209DPPC   C1910419   4.169   3.932   5.043
  209DPPC   C2010420   4.277   3.831   5.004
  209DPPC   C2110421   4.291   3.823   4.852
  209DPPC   C2210422   4.400   3.722   4.816
  209DPPC   C2310423   4.433   3.704   4.668
  209DPPC   C2410424   4.555   3.612   4.669
  209DPPC   C2510425   4.550   3.476   4.738
  209DPPC   C2610426   4.675   3.387   4.738
  209DPPC   C2710427   4.721   3.350   4.596
  209DPPC   C2810428   4.847   3.265   4.604
  209DPPC   C2910429   4.889   3.230   4.461
  209DPPC   C3010430   5.027   3.165   4.443
  209DPPC   C3110431   5.068   3.124   4.301
  209DPPC   C3210432   4.297   4.269   5.584
  209DPPC   O3310433   4.346   4.389   5.523
  209DPPC   C3410434   4.289   4.510   5.550
  209DPPC   O3510435   4.251   4.539   5.663
  209DPPC   C3610436   4.336   4.622   5.457
  209DPPC   C3710437   4.360   4.564   5.318
  209DPPC   C3810438   4.443   4.659   5.232
  209DPPC   C3910439   4.453   4.600   5.091
  209DPPC   C4010440   4.575   4.650   5.013
  209DPPC   C4110441   4.541   4.799   5.003
  209DPPC   C4210442   4.656   4.861   4.924
  209DPPC   C4310443   4.787   4.851   5.002
  209DPPC   C4410444   4.914   4.887   4.924
  209DPPC   C4510445   4.915   4.810   4.792
  209DPPC   C4610446   5.016   4.871   4.694
  209DPPC   C4710447   4.987   4.807   4.558
  209DPPC   C4810448   5.063   4.865   4.439
  209DPPC   C4910449   5.212   4.833   4.448
  209DPPC   C5010450   5.232   4.681   4.450
  210DPPC    C110451   6.468   1.354   5.938
  210DPPC    C210452   6.427   1.397   6.175
  210DPPC    C310453   6.309   1.224   6.062
  210DPPC    N410454   6.438   1.295   6.070
  210DPPC    C510455   6.540   1.198   6.113
  210DPPC    C610456   6.615   1.129   5.999
  210DPPC    O710457   6.729   1.204   5.956
  210DPPC    P810458   6.815   1.133   5.840
  210DPPC    O910459   6.869   1.005   5.893
  210DPPC   O1010460   6.891   1.250   5.790
  210DPPC   O1110461   6.695   1.106   5.736
  210DPPC   C1210462   6.684   1.224   5.656
  210DPPC   C1310463   6.575   1.228   5.548
  210DPPC   O1410464   6.455   1.289   5.597
  210DPPC   C1510465   6.450   1.421   5.563
  210DPPC   O1610466   6.555   1.484   5.568
  210DPPC   C1710467   6.318   1.499   5.571
  210DPPC   C1810468   6.342   1.632   5.500
  210DPPC   C1910469   6.213   1.714   5.499
  210DPPC   C2010470   6.231   1.838   5.411
  210DPPC   C2110471   6.132   1.942   5.466
  210DPPC   C2210472   6.166   2.079   5.409
  210DPPC   C2310473   6.176   2.076   5.256
  210DPPC   C2410474   6.220   2.209   5.194
  210DPPC   C2510475   6.222   2.186   5.043
  210DPPC   C2610476   6.291   2.294   4.960
  210DPPC   C2710477   6.289   2.266   4.809
  210DPPC   C2810478   6.341   2.389   4.734
  210DPPC   C2910479   6.365   2.318   4.601
  210DPPC   C3010480   6.234   2.281   4.531
  210DPPC   C3110481   6.242   2.181   4.416
  210DPPC   C3210482   6.576   1.084   5.497
  210DPPC   O3310483   6.603   1.069   5.357
  210DPPC   C3410484   6.590   0.945   5.303
  210DPPC   O3510485   6.503   0.872   5.351
  210DPPC   C3610486   6.636   0.933   5.158
  210DPPC   C3710487   6.546   1.006   5.058
  210DPPC   C3810488   6.608   1.039   4.923
  210DPPC   C3910489   6.675   0.907   4.883
  210DPPC   C4010490   6.745   0.917   4.746
  210DPPC   C4110491   6.864   1.012   4.759
  210DPPC   C4210492   6.941   1.026   4.628
  210DPPC   C4310493   6.855   1.060   4.506
  210DPPC   C4410494   6.947   1.091   4.388
  210DPPC   C4510495   6.978   0.960   4.315
  210DPPC   C4610496   6.857   0.898   4.244
  210DPPC   C4710497   6.887   0.779   4.153
  210DPPC   C4810498   6.759   0.747   4.075
  210DPPC   C4910499   6.723   0.861   3.979
  210DPPC   C5010500   6.599   0.828   3.895
  211DPPC    C110501   1.418   7.912   5.347
  211DPPC    C210502   1.555   8.109   5.340
  211DPPC    C310503   1.599   7.922   5.497
  211DPPC    N410504   1.555   7.963   5.363
  211DPPC    C510505   1.648   7.921   5.257
  211DPPC    C610506   1.654   7.778   5.204
  211DPPC    O710507   1.552   7.752   5.108
  211DPPC    P810508   1.574   7.617   5.024
  211DPPC    O910509   1.436   7.566   5.039
  211DPPC   O1010510   1.693   7.554   5.086
  211DPPC   O1110511   1.612   7.715   4.902
  211DPPC   C1210512   1.492   7.769   4.846
  211DPPC   C1310513   1.519   7.872   4.736
  211DPPC   O1410514   1.537   7.819   4.604
  211DPPC   C1510515   1.425   7.787   4.535
  211DPPC   O1610516   1.318   7.780   4.596
  211DPPC   C1710517   1.450   7.714   4.403
  211DPPC   C1810518   1.434   7.823   4.297
  211DPPC   C1910519   1.286   7.860   4.284
  211DPPC   C2010520   1.251   7.933   4.154
  211DPPC   C2110521   1.111   7.992   4.170
  211DPPC   C2210522   1.073   8.089   4.057
  211DPPC   C2310523   1.114   8.021   3.926
  211DPPC   C2410524   1.091   8.123   3.815
  211DPPC   C2510525   1.105   8.066   3.674
  211DPPC   C2610526   0.984   7.986   3.625
  211DPPC   C2710527   0.892   8.075   3.540
  211DPPC   C2810528   0.971   8.145   3.429
  211DPPC   C2910529   0.867   8.205   3.335
  211DPPC   C3010530   0.917   8.301   3.227
  211DPPC   C3110531   1.014   8.238   3.127
  211DPPC   C3210532   1.630   7.962   4.790
  211DPPC   O3310533   1.651   8.077   4.709
  211DPPC   C3410534   1.719   8.166   4.786
  211DPPC   O3510535   1.767   8.131   4.894
  211DPPC   C3610536   1.733   8.309   4.732
  211DPPC   C3710537   1.852   8.318   4.636
  211DPPC   C3810538   1.836   8.447   4.555
  211DPPC   C3910539   1.935   8.450   4.438
  211DPPC   C4010540   1.895   8.581   4.371
  211DPPC   C4110541   1.860   8.555   4.224
  211DPPC   C4210542   1.812   8.682   4.155
  211DPPC   C4310543   1.777   8.657   4.009
  211DPPC   C4410544   1.759   8.779   3.918
  211DPPC   C4510545   1.619   8.838   3.938
  211DPPC   C4610546   1.598   8.969   3.862
  211DPPC   C4710547   1.640   8.946   3.717
  211DPPC   C4810548   1.621   9.081   3.648
  211DPPC   C4910549   1.718   9.193   3.689
  211DPPC   C5010550   1.653   9.313   3.619
  212DPPC    C110551   4.695   8.170   5.735
  212DPPC    C210552   4.749   8.385   5.656
  212DPPC    C310553   4.904   8.213   5.613
  212DPPC    N410554   4.761   8.242   5.625
  212DPPC    C510555   4.682   8.205   5.506
  212DPPC    C610556   4.690   8.286   5.377
  212DPPC    O710557   4.821   8.307   5.323
  212DPPC    P810558   4.807   8.453   5.255
  212DPPC    O910559   4.928   8.481   5.175
  212DPPC   O1010560   4.749   8.537   5.362
  212DPPC   O1110561   4.696   8.435   5.140
  212DPPC   C1210562   4.749   8.328   5.060
  212DPPC   C1310563   4.658   8.273   4.950
  212DPPC   O1410564   4.711   8.160   4.879
  212DPPC   C1510565   4.726   8.038   4.937
  212DPPC   O1610566   4.676   8.021   5.048
  212DPPC   C1710567   4.781   7.931   4.842
  212DPPC   C1810568   4.715   7.951   4.706
  212DPPC   C1910569   4.765   7.860   4.593
  212DPPC   C2010570   4.667   7.900   4.483
  212DPPC   C2110571   4.711   7.829   4.354
  212DPPC   C2210572   4.582   7.764   4.303
  212DPPC   C2310573   4.592   7.677   4.177
  212DPPC   C2410574   4.465   7.595   4.155
  212DPPC   C2510575   4.485   7.510   4.029
  212DPPC   C2610576   4.495   7.586   3.897
  212DPPC   C2710577   4.537   7.469   3.806
  212DPPC   C2810578   4.584   7.503   3.665
  212DPPC   C2910579   4.623   7.381   3.582
  212DPPC   C3010580   4.656   7.409   3.435
  212DPPC   C3110581   4.700   7.271   3.386
  212DPPC   C3210582   4.610   8.396   4.874
  212DPPC   O3310583   4.722   8.461   4.813
  212DPPC   C3410584   4.701   8.577   4.746
  212DPPC   O3510585   4.595   8.639   4.751
  212DPPC   C3610586   4.834   8.637   4.699
  212DPPC   C3710587   4.830   8.643   4.546
  212DPPC   C3810588   4.964   8.650   4.473
  212DPPC   C3910589   4.927   8.677   4.327
  212DPPC   C4010590   5.053   8.691   4.240
  212DPPC   C4110591   5.165   8.590   4.268
  212DPPC   C4210592   5.287   8.612   4.178
  212DPPC   C4310593   5.420   8.546   4.214
  212DPPC   C4410594   5.475   8.605   4.343
  212DPPC   C4510595   5.597   8.521   4.384
  212DPPC   C4610596   5.697   8.522   4.269
  212DPPC   C4710597   5.829   8.470   4.326
  212DPPC   C4810598   5.936   8.440   4.221
  212DPPC   C4910599   6.045   8.370   4.302
  212DPPC   C5010600   6.138   8.324   4.190
  213DPPC    C110601   7.701   1.896   6.012
  213DPPC    C210602   7.764   2.103   5.935
  213DPPC    C310603   7.786   1.934   5.780
  213DPPC    N410604   7.700   1.978   5.891
  213DPPC    C510605   7.568   2.007   5.832
  213DPPC    C610606   7.463   1.897   5.827
  213DPPC    O710607   7.511   1.777   5.765
  213DPPC    P810608   7.443   1.653   5.840
  213DPPC    O910609   7.363   1.700   5.956
  213DPPC   O1010610   7.548   1.550   5.856
  213DPPC   O1110611   7.346   1.598   5.723
  213DPPC   C1210612   7.412   1.580   5.597
  213DPPC   C1310613   7.323   1.554   5.475
  213DPPC   O1410614   7.393   1.499   5.363
  213DPPC   C1510615   7.429   1.368   5.375
  213DPPC   O1610616   7.406   1.302   5.476
  213DPPC   C1710617   7.490   1.302   5.251
  213DPPC   C1810618   7.392   1.281   5.136
  213DPPC   C1910619   7.442   1.190   5.023
  213DPPC   C2010620   7.333   1.164   4.919
  213DPPC   C2110621   7.374   1.068   4.807
  213DPPC   C2210622   7.495   1.120   4.729
  213DPPC   C2310623   7.560   1.001   4.658
  213DPPC   C2410624   7.471   0.985   4.535
  213DPPC   C2510625   7.453   1.114   4.455
  213DPPC   C2610626   7.574   1.115   4.361
  213DPPC   C2710627   7.565   1.241   4.275
  213DPPC   C2810628   7.447   1.221   4.180
  213DPPC   C2910629   7.428   1.329   4.072
  213DPPC   C3010630   7.286   1.335   4.016
  213DPPC   C3110631   7.295   1.432   3.899
  213DPPC   C3210632   7.229   1.675   5.465
  213DPPC   O3310633   7.115   1.656   5.382
  213DPPC   C3410634   7.027   1.758   5.360
  213DPPC   O3510635   7.027   1.857   5.434
  213DPPC   C3610636   6.914   1.737   5.260
  213DPPC   C3710637   6.789   1.700   5.340
  213DPPC   C3810638   6.666   1.715   5.249
  213DPPC   C3910639   6.658   1.849   5.177
  213DPPC   C4010640   6.622   1.953   5.283
  213DPPC   C4110641   6.621   2.098   5.235
  213DPPC   C4210642   6.598   2.204   5.343
  213DPPC   C4310643   6.592   2.345   5.284
  213DPPC   C4410644   6.711   2.400   5.204
  213DPPC   C4510645   6.697   2.547   5.165
  213DPPC   C4610646   6.565   2.564   5.090
  213DPPC   C4710647   6.552   2.705   5.032
  213DPPC   C4810648   6.425   2.733   4.950
  213DPPC   C4910649   6.426   2.879   4.904
  213DPPC   C5010650   6.377   2.965   5.020
  214DPPC    C110651   5.543   7.852   5.649
  214DPPC    C210652   5.559   7.674   5.801
  214DPPC    C310653   5.511   7.615   5.573
  214DPPC    N410654   5.581   7.710   5.660
  214DPPC    C510655   5.727   7.699   5.655
  214DPPC    C610656   5.807   7.741   5.531
  214DPPC    O710657   5.804   7.637   5.433
  214DPPC    P810658   5.890   7.682   5.304
  214DPPC    O910659   5.963   7.554   5.290
  214DPPC   O1010660   5.955   7.809   5.342
  214DPPC   O1110661   5.759   7.689   5.211
  214DPPC   C1210662   5.751   7.579   5.120
  214DPPC   C1310663   5.605   7.564   5.078
  214DPPC   O1410664   5.578   7.449   4.997
  214DPPC   C1510665   5.596   7.327   5.056
  214DPPC   O1610666   5.617   7.305   5.175
  214DPPC   C1710667   5.602   7.224   4.944
  214DPPC   C1810668   5.684   7.100   4.982
  214DPPC   C1910669   5.730   7.021   4.860
  214DPPC   C2010670   5.812   6.893   4.880
  214DPPC   C2110671   5.804   6.801   4.758
  214DPPC   C2210672   5.898   6.682   4.778
  214DPPC   C2310673   6.038   6.745   4.776
  214DPPC   C2410674   6.140   6.631   4.783
  214DPPC   C2510675   6.113   6.524   4.677
  214DPPC   C2610676   6.201   6.399   4.684
  214DPPC   C2710677   6.149   6.296   4.584
  214DPPC   C2810678   5.996   6.301   4.581
  214DPPC   C2910679   5.947   6.214   4.465
  214DPPC   C3010680   5.946   6.063   4.491
  214DPPC   C3110681   5.935   5.973   4.369
  214DPPC   C3210682   5.585   7.695   5.001
  214DPPC   O3310683   5.676   7.744   4.903
  214DPPC   C3410684   5.636   7.866   4.858
  214DPPC   O3510685   5.554   7.930   4.925
  214DPPC   C3610686   5.697   7.931   4.734
  214DPPC   C3710687   5.754   7.829   4.636
  214DPPC   C3810688   5.849   7.887   4.531
  214DPPC   C3910689   5.925   7.768   4.471
  214DPPC   C4010690   5.989   7.799   4.336
  214DPPC   C4110691   6.081   7.678   4.319
  214DPPC   C4210692   6.068   7.633   4.174
  214DPPC   C4310693   6.161   7.515   4.145
  214DPPC   C4410694   6.303   7.541   4.196
  214DPPC   C4510695   6.404   7.441   4.139
  214DPPC   C4610696   6.355   7.301   4.176
  214DPPC   C4710697   6.443   7.183   4.133
  214DPPC   C4810698   6.582   7.198   4.195
  214DPPC   C4910699   6.665   7.074   4.158
  214DPPC   C5010700   6.800   7.080   4.229
  215DPPC    C110701   8.108   0.239   5.288
  215DPPC    C210702   8.191   0.370   5.477
  215DPPC    C310703   8.002   0.244   5.487
  215DPPC    N410704   8.138   0.240   5.432
  215DPPC    C510705   8.200   0.119   5.489
  215DPPC    C610706   8.351   0.110   5.467
  215DPPC    O710707   8.394   0.042   5.349
  215DPPC    P810708   8.536   0.090   5.291
  215DPPC    O910709   8.635   0.003   5.358
  215DPPC   O1010710   8.527   0.232   5.332
  215DPPC   O1110711   8.503   0.059   5.136
  215DPPC   C1210712   8.443   0.174   5.078
  215DPPC   C1310713   8.424   0.149   4.928
  215DPPC   O1410714   8.393   0.267   4.852
  215DPPC   C1510715   8.287   0.348   4.877
  215DPPC   O1610716   8.234   0.352   4.987
  215DPPC   C1710717   8.260   0.451   4.767
  215DPPC   C1810718   8.221   0.366   4.646
  215DPPC   C1910719   8.199   0.439   4.513
  215DPPC   C2010720   8.161   0.334   4.409
  215DPPC   C2110721   8.121   0.392   4.273
  215DPPC   C2210722   8.240   0.472   4.222
  215DPPC   C2310723   8.195   0.539   4.091
  215DPPC   C2410724   8.131   0.672   4.130
  215DPPC   C2510725   8.079   0.746   4.006
  215DPPC   C2610726   8.014   0.877   4.051
  215DPPC   C2710727   7.953   0.928   3.920
  215DPPC   C2810728   7.875   0.816   3.850
  215DPPC   C2910729   7.792   0.852   3.727
  215DPPC   C3010730   7.665   0.920   3.776
  215DPPC   C3110731   7.598   0.851   3.895
  215DPPC   C3210732   8.311   0.046   4.921
  215DPPC   O3310733   8.266   0.027   4.787
  215DPPC   C3410734   8.342  -0.012   4.680
  215DPPC   O3510735   8.440  -0.080   4.711
  215DPPC   C3610736   8.279   0.005   4.542
  215DPPC   C3710737   8.201  -0.118   4.495
  215DPPC   C3810738   8.131  -0.071   4.367
  215DPPC   C3910739   8.027  -0.178   4.333
  215DPPC   C4010740   7.933  -0.142   4.218
  215DPPC   C4110741   7.855  -0.266   4.175
  215DPPC   C4210742   7.753  -0.228   4.067
  215DPPC   C4310743   7.827  -0.185   3.940
  215DPPC   C4410744   7.727  -0.178   3.824
  215DPPC   C4510745   7.620  -0.069   3.830
  215DPPC   C4610746   7.522  -0.075   3.712
  215DPPC   C4710747   7.449  -0.209   3.706
  215DPPC   C4810748   7.385  -0.212   3.567
  215DPPC   C4910749   7.322  -0.348   3.533
  215DPPC   C5010750   7.339  -0.380   3.384
  216DPPC    C110751   4.479   0.182   5.172
  216DPPC    C210752   4.544   0.377   5.030
  216DPPC    C310753   4.384   0.404   5.197
  216DPPC    N410754   4.504   0.326   5.162
  216DPPC    C510755   4.602   0.363   5.266
  216DPPC    C610756   4.663   0.503   5.274
  216DPPC    O710757   4.583   0.604   5.336
  216DPPC    P810758   4.667   0.740   5.319
  216DPPC    O910759   4.812   0.710   5.335
  216DPPC   O1010760   4.582   0.808   5.419
  216DPPC   O1110761   4.621   0.779   5.170
  216DPPC   C1210762   4.483   0.817   5.163
  216DPPC   C1310763   4.432   0.856   5.024
  216DPPC   O1410764   4.371   0.740   4.966
  216DPPC   C1510765   4.238   0.711   4.973
  216DPPC   O1610766   4.183   0.746   5.077
  216DPPC   C1710767   4.215   0.576   4.904
  216DPPC   C1810768   4.288   0.554   4.771
  216DPPC   C1910769   4.270   0.416   4.708
  216DPPC   C2010770   4.307   0.415   4.560
  216DPPC   C2110771   4.276   0.286   4.483
  216DPPC   C2210772   4.335   0.275   4.343
  216DPPC   C2310773   4.487   0.273   4.323
  216DPPC   C2410774   4.536   0.282   4.178
  216DPPC   C2510775   4.583   0.141   4.142
  216DPPC   C2610776   4.704   0.146   4.048
  216DPPC   C2710777   4.770   0.018   3.997
  216DPPC   C2810778   4.883   0.049   3.899
  216DPPC   C2910779   4.949  -0.078   3.843
  216DPPC   C3010780   4.862  -0.152   3.742
  216DPPC   C3110781   4.808  -0.066   3.627
  216DPPC   C3210782   4.537   0.929   4.941
  216DPPC   O3310783   4.555   1.070   4.959
  216DPPC   C3410784   4.656   1.122   4.884
  216DPPC   O3510785   4.746   1.051   4.840
  216DPPC   C3610786   4.635   1.266   4.836
  216DPPC   C3710787   4.544   1.280   4.714
  216DPPC   C3810788   4.479   1.419   4.724
  216DPPC   C3910789   4.360   1.436   4.630
  216DPPC   C4010790   4.268   1.323   4.676
  216DPPC   C4110791   4.166   1.280   4.570
  216DPPC   C4210792   4.055   1.385   4.558
  216DPPC   C4310793   3.949   1.331   4.461
  216DPPC   C4410794   3.997   1.305   4.318
  216DPPC   C4510795   3.884   1.343   4.222
  216DPPC   C4610796   3.908   1.300   4.077
  216DPPC   C4710797   3.809   1.360   3.977
  216DPPC   C4810798   3.826   1.277   3.849
  216DPPC   C4910799   3.738   1.329   3.735
  216DPPC   C5010800   3.747   1.239   3.611
  217DPPC    C110801   5.551   6.813   5.555
  217DPPC    C210802   5.570   6.982   5.397
  217DPPC    C310803   5.432   6.800   5.352
  217DPPC    N410804   5.472   6.892   5.460
  217DPPC    C510805   5.350   6.945   5.524
  217DPPC    C610806   5.362   7.086   5.582
  217DPPC    O710807   5.240   7.160   5.576
  217DPPC    P810808   5.256   7.298   5.657
  217DPPC    O910809   5.378   7.312   5.739
  217DPPC   O1010810   5.135   7.368   5.706
  217DPPC   O1110811   5.306   7.376   5.525
  217DPPC   C1210812   5.201   7.394   5.430
  217DPPC   C1310813   5.241   7.452   5.294
  217DPPC   O1410814   5.148   7.547   5.239
  217DPPC   C1510815   5.176   7.632   5.137
  217DPPC   O1610816   5.290   7.672   5.115
  217DPPC   C1710817   5.056   7.691   5.061
  217DPPC   C1810818   5.089   7.712   4.913
  217DPPC   C1910819   5.136   7.855   4.884
  217DPPC   C2010820   5.122   7.892   4.737
  217DPPC   C2110821   5.191   7.799   4.637
  217DPPC   C2210822   5.173   7.845   4.492
  217DPPC   C2310823   5.250   7.746   4.404
  217DPPC   C2410824   5.228   7.796   4.261
  217DPPC   C2510825   5.078   7.781   4.234
  217DPPC   C2610826   5.062   7.805   4.083
  217DPPC   C2710827   4.918   7.829   4.039
  217DPPC   C2810828   4.913   7.915   3.913
  217DPPC   C2910829   4.968   7.834   3.796
  217DPPC   C3010830   4.993   7.933   3.682
  217DPPC   C3110831   5.066   7.859   3.569
  217DPPC   C3210832   5.284   7.334   5.206
  217DPPC   O3310833   5.174   7.242   5.206
  217DPPC   C3410834   5.215   7.122   5.155
  217DPPC   O3510835   5.330   7.093   5.124
  217DPPC   C3610836   5.101   7.021   5.145
  217DPPC   C3710837   5.000   7.059   5.037
  217DPPC   C3810838   5.062   7.031   4.899
  217DPPC   C3910839   4.954   6.971   4.809
  217DPPC   C4010840   4.944   7.022   4.665
  217DPPC   C4110841   4.821   6.968   4.591
  217DPPC   C4210842   4.840   6.991   4.441
  217DPPC   C4310843   4.969   6.939   4.377
  217DPPC   C4410844   4.949   6.988   4.233
  217DPPC   C4510845   5.072   6.954   4.148
  217DPPC   C4610846   5.041   6.976   4.000
  217DPPC   C4710847   5.166   6.952   3.915
  217DPPC   C4810848   5.247   7.065   3.981
  217DPPC   C4910849   5.368   7.098   3.893
  217DPPC   C5010850   5.473   7.194   3.948
  218DPPC    C110851   2.049   4.227   5.886
  218DPPC    C210852   2.230   4.338   5.805
  218DPPC    C310853   2.253   4.202   6.003
  218DPPC    N410854   2.194   4.210   5.868
  218DPPC    C510855   2.211   4.097   5.776
  218DPPC    C610856   2.351   4.075   5.718
  218DPPC    O710857   2.361   3.968   5.624
  218DPPC    P810858   2.510   3.958   5.565
  218DPPC    O910859   2.535   3.813   5.549
  218DPPC   O1010860   2.611   4.034   5.642
  218DPPC   O1110861   2.479   3.998   5.412
  218DPPC   C1210862   2.432   3.889   5.332
  218DPPC   C1310863   2.279   3.896   5.322
  218DPPC   O1410864   2.237   3.778   5.253
  218DPPC   C1510865   2.107   3.739   5.263
  218DPPC   O1610866   2.032   3.798   5.341
  218DPPC   C1710867   2.058   3.624   5.174
  218DPPC   C1810868   1.988   3.680   5.051
  218DPPC   C1910869   1.942   3.561   4.966
  218DPPC   C2010870   1.886   3.598   4.828
  218DPPC   C2110871   1.901   3.479   4.732
  218DPPC   C2210872   1.854   3.528   4.595
  218DPPC   C2310873   1.799   3.410   4.514
  218DPPC   C2410874   1.775   3.454   4.369
  218DPPC   C2510875   1.690   3.355   4.290
  218DPPC   C2610876   1.674   3.410   4.148
  218DPPC   C2710877   1.612   3.305   4.056
  218DPPC   C2810878   1.580   3.366   3.920
  218DPPC   C2910879   1.702   3.438   3.862
  218DPPC   C3010880   1.688   3.466   3.712
  218DPPC   C3110881   1.815   3.538   3.666
  218DPPC   C3210882   2.251   4.030   5.253
  218DPPC   O3310883   2.323   4.043   5.130
  218DPPC   C3410884   2.306   4.161   5.064
  218DPPC   O3510885   2.201   4.223   5.067
  218DPPC   C3610886   2.390   4.170   4.936
  218DPPC   C3710887   2.299   4.194   4.816
  218DPPC   C3810888   2.373   4.179   4.683
  218DPPC   C3910889   2.492   4.272   4.655
  218DPPC   C4010890   2.533   4.252   4.509
  218DPPC   C4110891   2.646   4.349   4.474
  218DPPC   C4210892   2.657   4.381   4.325
  218DPPC   C4310893   2.789   4.456   4.304
  218DPPC   C4410894   2.790   4.582   4.392
  218DPPC   C4510895   2.930   4.642   4.374
  218DPPC   C4610896   2.943   4.776   4.448
  218DPPC   C4710897   3.088   4.825   4.445
  218DPPC   C4810898   3.144   4.830   4.302
  218DPPC   C4910899   3.294   4.861   4.309
  218DPPC   C5010900   3.358   4.846   4.170
  219DPPC    C110901   8.982   6.739   5.106
  219DPPC    C210902   9.160   6.845   5.020
  219DPPC    C310903   9.192   6.734   5.225
  219DPPC    N410904   9.127   6.722   5.094
  219DPPC    C510905   9.171   6.623   4.994
  219DPPC    C610906   9.099   6.497   4.944
  219DPPC    O710907   9.186   6.419   4.861
  219DPPC    P810908   9.088   6.299   4.820
  219DPPC    O910909   8.976   6.368   4.752
  219DPPC   O1010910   9.057   6.216   4.939
  219DPPC   O1110911   9.173   6.197   4.729
  219DPPC   C1210912   9.181   6.269   4.606
  219DPPC   C1310913   9.267   6.211   4.493
  219DPPC   O1410914   9.255   6.284   4.370
  219DPPC   C1510915   9.348   6.272   4.271
  219DPPC   O1610916   9.449   6.207   4.298
  219DPPC   C1710917   9.339   6.357   4.144
  219DPPC   C1810918   9.409   6.299   4.021
  219DPPC   C1910919   9.431   6.408   3.917
  219DPPC   C2010920   9.554   6.383   3.829
  219DPPC   C2110921   9.535   6.250   3.756
  219DPPC   C2210922   9.678   6.195   3.753
  219DPPC   C2310923   9.681   6.049   3.709
  219DPPC   C2410924   9.827   6.017   3.680
  219DPPC   C2510925   9.822   5.876   3.620
  219DPPC   C2610926   9.732   5.789   3.707
  219DPPC   C2710927   9.671   5.671   3.630
  219DPPC   C2810928   9.590   5.732   3.516
  219DPPC   C2910929   9.470   5.815   3.561
  219DPPC   C3010930   9.452   5.923   3.454
  219DPPC   C3110931   9.318   5.995   3.478
  219DPPC   C3210932   9.237   6.062   4.475
  219DPPC   O3310933   9.103   6.017   4.458
  219DPPC   C3410934   9.092   5.882   4.458
  219DPPC   O3510935   9.179   5.820   4.521
  219DPPC   C3610936   8.970   5.815   4.396
  219DPPC   C3710937   8.945   5.683   4.470
  219DPPC   C3810938   8.808   5.633   4.424
  219DPPC   C3910939   8.807   5.593   4.277
  219DPPC   C4010940   8.676   5.535   4.223
  219DPPC   C4110941   8.675   5.514   4.072
  219DPPC   C4210942   8.541   5.448   4.037
  219DPPC   C4310943   8.534   5.411   3.889
  219DPPC   C4410944   8.564   5.534   3.803
  219DPPC   C4510945   8.581   5.498   3.656
  219DPPC   C4610946   8.447   5.446   3.604
  219DPPC   C4710947   8.450   5.466   3.452
  219DPPC   C4810948   8.317   5.452   3.378
  219DPPC   C4910949   8.342   5.419   3.231
  219DPPC   C5010950   8.204   5.405   3.165
  220DPPC    C110951   4.611   6.660   5.341
  220DPPC    C210952   4.452   6.497   5.352
  220DPPC    C310953   4.464   6.641   5.168
  220DPPC    N410954   4.546   6.558   5.258
  220DPPC    C510955   4.625   6.457   5.185
  220DPPC    C610956   4.736   6.390   5.266
  220DPPC    O710957   4.685   6.298   5.362
  220DPPC    P810958   4.779   6.175   5.407
  220DPPC    O910959   4.706   6.125   5.526
  220DPPC   O1010960   4.916   6.230   5.399
  220DPPC   O1110961   4.730   6.088   5.281
  220DPPC   C1210962   4.837   6.050   5.193
  220DPPC   C1310963   4.798   6.012   5.050
  220DPPC   O1410964   4.915   5.986   4.970
  220DPPC   C1510965   4.954   5.855   4.971
  220DPPC   O1610966   4.906   5.774   5.049
  220DPPC   C1710967   5.081   5.833   4.888
  220DPPC   C1810968   5.066   5.839   4.736
  220DPPC   C1910969   5.192   5.829   4.650
  220DPPC   C2010970   5.262   5.694   4.664
  220DPPC   C2110971   5.373   5.654   4.567
  220DPPC   C2210972   5.317   5.615   4.430
  220DPPC   C2310973   5.439   5.597   4.340
  220DPPC   C2410974   5.549   5.502   4.386
  220DPPC   C2510975   5.649   5.463   4.277
  220DPPC   C2610976   5.601   5.353   4.183
  220DPPC   C2710977   5.713   5.313   4.087
  220DPPC   C2810978   5.652   5.220   3.982
  220DPPC   C2910979   5.760   5.178   3.882
  220DPPC   C3010980   5.723   5.223   3.741
  220DPPC   C3110981   5.851   5.229   3.657
  220DPPC   C3210982   4.721   6.131   4.994
  220DPPC   O3310983   4.668   6.127   4.861
  220DPPC   C3410984   4.603   6.238   4.817
  220DPPC   O3510985   4.600   6.344   4.878
  220DPPC   C3610986   4.530   6.215   4.684
  220DPPC   C3710987   4.636   6.233   4.575
  220DPPC   C3810988   4.691   6.095   4.539
  220DPPC   C3910989   4.791   6.114   4.425
  220DPPC   C4010990   4.758   6.049   4.290
  220DPPC   C4110991   4.617   6.084   4.242
  220DPPC   C4210992   4.590   5.993   4.122
  220DPPC   C4310993   4.700   6.004   4.016
  220DPPC   C4410994   4.667   5.918   3.893
  220DPPC   C4510995   4.794   5.897   3.811
  220DPPC   C4610996   4.866   6.029   3.784
  220DPPC   C4710997   4.788   6.126   3.695
  220DPPC   C4810998   4.868   6.255   3.678
  220DPPC   C4910999   4.801   6.353   3.582
  220DPPC   C5011000   4.884   6.481   3.597
  221DPPC    C111001   0.434   6.168   4.613
  221DPPC    C211002   0.383   5.974   4.494
  221DPPC    C311003   0.516   6.134   4.383
  221DPPC    N411004   0.489   6.074   4.515
  221DPPC    C511005   0.610   6.011   4.569
  221DPPC    C611006   0.735   6.089   4.611
  221DPPC    O711007   0.831   6.035   4.702
  221DPPC    P811008   0.940   6.151   4.727
  221DPPC    O911009   1.025   6.109   4.840
  221DPPC   O1011010   0.867   6.280   4.726
  221DPPC   O1111011   1.012   6.136   4.584
  221DPPC   C1211012   1.132   6.061   4.595
  221DPPC   C1311013   1.202   6.028   4.463
  221DPPC   O1411014   1.298   6.113   4.399
  221DPPC   C1511015   1.423   6.132   4.450
  221DPPC   O1611016   1.464   6.054   4.535
  221DPPC   C1711017   1.506   6.220   4.357
  221DPPC   C1811018   1.451   6.363   4.347
  221DPPC   C1911019   1.347   6.388   4.238
  221DPPC   C2011020   1.401   6.352   4.099
  221DPPC   C2111021   1.295   6.351   3.989
  221DPPC   C2211022   1.366   6.298   3.865
  221DPPC   C2311023   1.274   6.301   3.743
  221DPPC   C2411024   1.349   6.235   3.626
  221DPPC   C2511025   1.262   6.248   3.500
  221DPPC   C2611026   1.131   6.170   3.514
  221DPPC   C2711027   1.041   6.173   3.391
  221DPPC   C2811028   0.977   6.310   3.364
  221DPPC   C2911029   0.939   6.341   3.219
  221DPPC   C3011030   1.040   6.439   3.160
  221DPPC   C3111031   1.043   6.555   3.260
  221DPPC   C3211032   1.086   5.995   4.369
  221DPPC   O3311033   1.048   5.859   4.396
  221DPPC   C3411034   0.929   5.839   4.334
  221DPPC   O3511035   0.852   5.932   4.309
  221DPPC   C3611036   0.878   5.697   4.354
  221DPPC   C3711037   0.851   5.630   4.219
  221DPPC   C3811038   0.778   5.496   4.234
  221DPPC   C3911039   0.782   5.387   4.128
  221DPPC   C4011040   0.710   5.432   4.000
  221DPPC   C4111041   0.761   5.332   3.896
  221DPPC   C4211042   0.703   5.373   3.761
  221DPPC   C4311043   0.550   5.361   3.754
  221DPPC   C4411044   0.490   5.359   3.613
  221DPPC   C4511045   0.342   5.319   3.611
  221DPPC   C4611046   0.278   5.362   3.478
  221DPPC   C4711047   0.145   5.291   3.454
  221DPPC   C4811048   0.087   5.322   3.315
  221DPPC   C4911049  -0.043   5.244   3.292
  221DPPC   C5011050  -0.021   5.094   3.311
  222DPPC    C111051   5.898   4.042   6.461
  222DPPC    C211052   5.716   3.911   6.470
  222DPPC    C311053   5.757   4.030   6.263
  222DPPC    N411054   5.819   3.954   6.374
  222DPPC    C511055   5.923   3.866   6.321
  222DPPC    C611056   5.904   3.718   6.286
  222DPPC    O711057   5.787   3.693   6.208
  222DPPC    P811058   5.760   3.534   6.216
  222DPPC    O911059   5.613   3.528   6.233
  222DPPC   O1011060   5.851   3.463   6.308
  222DPPC   O1111061   5.817   3.502   6.069
  222DPPC   C1211062   5.725   3.551   5.971
  222DPPC   C1311063   5.763   3.548   5.823
  222DPPC   O1411064   5.648   3.563   5.737
  222DPPC   C1511065   5.612   3.678   5.673
  222DPPC   O1611066   5.676   3.779   5.701
  222DPPC   C1711067   5.537   3.649   5.543
  222DPPC   C1811068   5.555   3.740   5.421
  222DPPC   C1911069   5.691   3.750   5.352
  222DPPC   C2011070   5.676   3.856   5.244
  222DPPC   C2111071   5.565   3.823   5.144
  222DPPC   C2211072   5.603   3.891   5.012
  222DPPC   C2311073   5.493   3.890   4.906
  222DPPC   C2411074   5.535   3.983   4.792
  222DPPC   C2511075   5.425   3.998   4.688
  222DPPC   C2611076   5.355   4.134   4.691
  222DPPC   C2711077   5.282   4.155   4.558
  222DPPC   C2811078   5.210   4.290   4.561
  222DPPC   C2911079   5.136   4.294   4.695
  222DPPC   C3011080   5.063   4.423   4.731
  222DPPC   C3111081   5.065   4.422   4.884
  222DPPC   C3211082   5.844   3.419   5.805
  222DPPC   O3311083   5.939   3.423   5.698
  222DPPC   C3411084   5.981   3.307   5.642
  222DPPC   O3511085   5.927   3.198   5.655
  222DPPC   C3611086   6.098   3.323   5.543
  222DPPC   C3711087   6.046   3.321   5.400
  222DPPC   C3811088   5.930   3.410   5.356
  222DPPC   C3911089   5.904   3.384   5.207
  222DPPC   C4011090   5.805   3.478   5.139
  222DPPC   C4111091   5.812   3.459   4.988
  222DPPC   C4211092   5.720   3.555   4.912
  222DPPC   C4311093   5.726   3.532   4.761
  222DPPC   C4411094   5.635   3.641   4.704
  222DPPC   C4511095   5.634   3.632   4.552
  222DPPC   C4611096   5.533   3.719   4.477
  222DPPC   C4711097   5.568   3.723   4.328
  222DPPC   C4811098   5.475   3.813   4.246
  222DPPC   C4911099   5.323   3.796   4.258
  222DPPC   C5011100   5.249   3.858   4.140
  223DPPC    C111101   3.492   7.360   5.946
  223DPPC    C211102   3.574   7.138   5.967
  223DPPC    C311103   3.345   7.177   5.913
  223DPPC    N411104   3.483   7.224   5.891
  223DPPC    C511105   3.544   7.218   5.757
  223DPPC    C611106   3.489   7.310   5.647
  223DPPC    O711107   3.531   7.275   5.515
  223DPPC    P811108   3.448   7.357   5.405
  223DPPC    O911109   3.526   7.479   5.377
  223DPPC   O1011110   3.312   7.355   5.462
  223DPPC   O1111111   3.473   7.237   5.300
  223DPPC   C1211112   3.593   7.263   5.227
  223DPPC   C1311113   3.657   7.144   5.154
  223DPPC   O1411114   3.765   7.196   5.076
  223DPPC   C1511115   3.880   7.123   5.075
  223DPPC   O1611116   3.887   7.020   5.141
  223DPPC   C1711117   3.999   7.173   4.993
  223DPPC   C1811118   3.954   7.233   4.860
  223DPPC   C1911119   3.896   7.126   4.767
  223DPPC   C2011120   3.871   7.178   4.625
  223DPPC   C2111121   3.832   7.081   4.514
  223DPPC   C2211122   3.961   7.032   4.448
  223DPPC   C2311123   3.946   6.945   4.323
  223DPPC   C2411124   3.914   7.040   4.207
  223DPPC   C2511125   3.929   6.973   4.071
  223DPPC   C2611126   4.074   6.956   4.023
  223DPPC   C2711127   4.074   6.899   3.881
  223DPPC   C2811128   4.026   6.753   3.881
  223DPPC   C2911129   4.068   6.682   3.752
  223DPPC   C3011130   3.995   6.548   3.743
  223DPPC   C3111131   4.043   6.478   3.615
  223DPPC   C3211132   3.542   7.074   5.081
  223DPPC   O3311133   3.468   7.140   4.978
  223DPPC   C3411134   3.366   7.071   4.919
  223DPPC   O3511135   3.333   6.965   4.972
  223DPPC   C3611136   3.302   7.126   4.791
  223DPPC   C3711137   3.400   7.131   4.674
  223DPPC   C3811138   3.336   7.162   4.538
  223DPPC   C3911139   3.439   7.192   4.430
  223DPPC   C4011140   3.391   7.221   4.287
  223DPPC   C4111141   3.513   7.252   4.200
  223DPPC   C4211142   3.468   7.316   4.068
  223DPPC   C4311143   3.596   7.334   3.986
  223DPPC   C4411144   3.557   7.371   3.843
  223DPPC   C4511145   3.674   7.397   3.748
  223DPPC   C4611146   3.625   7.414   3.604
  223DPPC   C4711147   3.743   7.455   3.516
  223DPPC   C4811148   3.698   7.469   3.371
  223DPPC   C4911149   3.821   7.442   3.283
  223DPPC   C5011150   3.787   7.467   3.136
  224DPPC    C111151   3.596   3.406   6.132
  224DPPC    C211152   3.379   3.321   6.059
  224DPPC    C311153   3.394   3.534   6.145
  224DPPC    N411154   3.469   3.437   6.064
  224DPPC    C511155   3.489   3.506   5.936
  224DPPC    C611156   3.595   3.453   5.839
  224DPPC    O711157   3.582   3.317   5.799
  224DPPC    P811158   3.723   3.255   5.751
  224DPPC    O911159   3.670   3.117   5.754
  224DPPC   O1011160   3.821   3.311   5.846
  224DPPC   O1111161   3.721   3.322   5.605
  224DPPC   C1211162   3.709   3.215   5.511
  224DPPC   C1311163   3.708   3.255   5.363
  224DPPC   O1411164   3.700   3.145   5.272
  224DPPC   C1511165   3.792   3.045   5.264
  224DPPC   O1611166   3.890   3.047   5.338
  224DPPC   C1711167   3.800   2.972   5.130
  224DPPC   C1811168   3.784   3.071   5.015
  224DPPC   C1911169   3.787   2.994   4.882
  224DPPC   C2011170   3.781   3.088   4.761
  224DPPC   C2111171   3.784   3.034   4.618
  224DPPC   C2211172   3.668   2.941   4.580
  224DPPC   C2311173   3.689   2.895   4.436
  224DPPC   C2411174   3.575   2.811   4.379
  224DPPC   C2511175   3.593   2.796   4.228
  224DPPC   C2611176   3.720   2.717   4.196
  224DPPC   C2711177   3.708   2.637   4.066
  224DPPC   C2811178   3.683   2.721   3.940
  224DPPC   C2911179   3.700   2.643   3.810
  224DPPC   C3011180   3.683   2.731   3.686
  224DPPC   C3111181   3.699   2.652   3.556
  224DPPC   C3211182   3.836   3.338   5.351
  224DPPC   O3311183   3.822   3.439   5.251
  224DPPC   C3411184   3.938   3.503   5.219
  224DPPC   O3511185   4.040   3.495   5.287
  224DPPC   C3611186   3.928   3.592   5.095
  224DPPC   C3711187   3.845   3.538   4.977
  224DPPC   C3811188   3.859   3.638   4.862
  224DPPC   C3911189   3.792   3.586   4.734
  224DPPC   C4011190   3.801   3.685   4.618
  224DPPC   C4111191   3.757   3.618   4.487
  224DPPC   C4211192   3.803   3.684   4.357
  224DPPC   C4311193   3.724   3.624   4.241
  224DPPC   C4411194   3.755   3.705   4.115
  224DPPC   C4511195   3.700   3.629   3.994
  224DPPC   C4611196   3.687   3.725   3.876
  224DPPC   C4711197   3.687   3.646   3.745
  224DPPC   C4811198   3.806   3.551   3.735
  224DPPC   C4911199   3.778   3.473   3.607
  224DPPC   C5011200   3.871   3.355   3.575
  225DPPC    C111201   9.003   3.050   5.380
  225DPPC    C211202   9.191   3.181   5.380
  225DPPC    C311203   9.089   3.114   5.588
  225DPPC    N411204   9.129   3.070   5.454
  225DPPC    C511205   9.213   2.950   5.461
  225DPPC    C611206   9.343   2.954   5.542
  225DPPC    O711207   9.437   3.058   5.513
  225DPPC    P811208   9.563   3.031   5.609
  225DPPC    O911209   9.529   2.928   5.710
  225DPPC   O1011210   9.623   3.164   5.636
  225DPPC   O1111211   9.648   2.954   5.496
  225DPPC   C1211212   9.724   3.044   5.415
  225DPPC   C1311213   9.710   3.022   5.265
  225DPPC   O1411214   9.790   3.121   5.198
  225DPPC   C1511215   9.924   3.112   5.176
  225DPPC   O1611216   9.994   3.079   5.271
  225DPPC   C1711217   9.971   3.218   5.077
  225DPPC   C1811218   9.967   3.153   4.938
  225DPPC   C1911219  10.004   3.255   4.831
  225DPPC   C2011220   9.964   3.199   4.694
  225DPPC   C2111221  10.016   3.283   4.577
  225DPPC   C2211222   9.939   3.239   4.453
  225DPPC   C2311223   9.989   3.301   4.322
  225DPPC   C2411224   9.893   3.266   4.208
  225DPPC   C2511225   9.944   3.315   4.072
  225DPPC   C2611226   9.845   3.295   3.957
  225DPPC   C2711227   9.899   3.351   3.826
  225DPPC   C2811228   9.822   3.289   3.709
  225DPPC   C2911229   9.910   3.300   3.585
  225DPPC   C3011230   9.841   3.241   3.462
  225DPPC   C3111231   9.922   3.272   3.336
  225DPPC   C3211232   9.560   3.024   5.239
  225DPPC   O3311233   9.523   2.925   5.142
  225DPPC   C3411234   9.402   2.938   5.081
  225DPPC   O3511235   9.326   3.027   5.119
  225DPPC   C3611236   9.368   2.821   4.989
  225DPPC   C3711237   9.405   2.867   4.848
  225DPPC   C3811238   9.360   2.742   4.771
  225DPPC   C3911239   9.395   2.756   4.623
  225DPPC   C4011240   9.402   2.620   4.553
  225DPPC   C4111241   9.425   2.633   4.403
  225DPPC   C4211242   9.442   2.495   4.339
  225DPPC   C4311243   9.424   2.520   4.189
  225DPPC   C4411244   9.463   2.395   4.109
  225DPPC   C4511245   9.452   2.415   3.957
  225DPPC   C4611246   9.574   2.498   3.917
  225DPPC   C4711247   9.568   2.531   3.767
  225DPPC   C4811248   9.573   2.406   3.679
  225DPPC   C4911249   9.593   2.431   3.529
  225DPPC   C5011250   9.725   2.508   3.515
  226DPPC    C111251   3.875   7.888   5.642
  226DPPC    C211252   3.846   8.118   5.619
  226DPPC    C311253   4.063   8.044   5.601
  226DPPC    N411254   3.925   8.005   5.569
  226DPPC    C511255   3.891   7.986   5.427
  226DPPC    C611256   3.974   7.891   5.339
  226DPPC    O711257   4.081   7.960   5.274
  226DPPC    P811258   4.170   7.846   5.204
  226DPPC    O911259   4.063   7.791   5.119
  226DPPC   O1011260   4.215   7.777   5.328
  226DPPC   O1111261   4.256   7.973   5.157
  226DPPC   C1211262   4.215   8.039   5.037
  226DPPC   C1311263   4.315   8.053   4.922
  226DPPC   O1411264   4.270   8.127   4.807
  226DPPC   C1511265   4.293   8.261   4.798
  226DPPC   O1611266   4.327   8.322   4.899
  226DPPC   C1711267   4.246   8.327   4.669
  226DPPC   C1811268   4.355   8.396   4.586
  226DPPC   C1911269   4.483   8.314   4.564
  226DPPC   C2011270   4.573   8.356   4.448
  226DPPC   C2111271   4.712   8.292   4.460
  226DPPC   C2211272   4.786   8.308   4.327
  226DPPC   C2311273   4.928   8.254   4.340
  226DPPC   C2411274   4.988   8.243   4.200
  226DPPC   C2511275   5.133   8.196   4.193
  226DPPC   C2611276   5.193   8.197   4.052
  226DPPC   C2711277   5.332   8.135   4.062
  226DPPC   C2811278   5.410   8.160   3.934
  226DPPC   C2911279   5.337   8.093   3.817
  226DPPC   C3011280   5.437   8.071   3.704
  226DPPC   C3111281   5.546   7.974   3.748
  226DPPC   C3211282   4.378   7.917   4.893
  226DPPC   O3311283   4.281   7.813   4.882
  226DPPC   C3411284   4.334   7.688   4.883
  226DPPC   O3511285   4.452   7.663   4.905
  226DPPC   C3611286   4.238   7.571   4.857
  226DPPC   C3711287   4.208   7.545   4.709
  226DPPC   C3811288   4.319   7.479   4.628
  226DPPC   C3911289   4.267   7.353   4.559
  226DPPC   C4011290   4.387   7.310   4.475
  226DPPC   C4111291   4.352   7.219   4.357
  226DPPC   C4211292   4.474   7.199   4.268
  226DPPC   C4311293   4.429   7.132   4.138
  226DPPC   C4411294   4.548   7.126   4.043
  226DPPC   C4511295   4.493   7.089   3.905
  226DPPC   C4611296   4.606   7.025   3.825
  226DPPC   C4711297   4.564   6.978   3.685
  226DPPC   C4811298   4.688   6.921   3.616
  226DPPC   C4911299   4.663   6.882   3.471
  226DPPC   C5011300   4.793   6.850   3.395
  227DPPC    C111301   4.746   4.066   1.601
  227DPPC    C211302   4.802   4.281   1.555
  227DPPC    C311303   4.573   4.229   1.539
  227DPPC    N411304   4.694   4.202   1.617
  227DPPC    C511305   4.676   4.245   1.757
  227DPPC    C611306   4.659   4.395   1.783
  227DPPC    O711307   4.632   4.423   1.920
  227DPPC    P811308   4.691   4.565   1.968
  227DPPC    O911309   4.619   4.607   2.090
  227DPPC   O1011310   4.706   4.650   1.847
  227DPPC   O1111311   4.843   4.527   2.006
  227DPPC   C1211312   4.848   4.517   2.148
  227DPPC   C1311313   4.984   4.460   2.187
  227DPPC   O1411314   4.993   4.385   2.308
  227DPPC   C1511315   4.926   4.267   2.322
  227DPPC   O1611316   4.867   4.223   2.224
  227DPPC   C1711317   4.918   4.203   2.461
  227DPPC   C1811318   5.034   4.109   2.495
  227DPPC   C1911319   5.034   4.086   2.647
  227DPPC   C2011320   5.138   3.990   2.704
  227DPPC   C2111321   5.111   3.964   2.852
  227DPPC   C2211322   5.219   3.885   2.926
  227DPPC   C2311323   5.191   3.837   3.068
  227DPPC   C2411324   5.328   3.844   3.135
  227DPPC   C2511325   5.279   3.791   3.270
  227DPPC   C2611326   5.388   3.771   3.376
  227DPPC   C2711327   5.320   3.750   3.511
  227DPPC   C2811328   5.418   3.739   3.629
  227DPPC   C2911329   5.356   3.691   3.760
  227DPPC   C3011330   5.306   3.548   3.741
  227DPPC   C3111331   5.256   3.508   3.880
  227DPPC   C3211332   5.087   4.571   2.164
  227DPPC   O3311333   5.077   4.666   2.271
  227DPPC   C3411334   5.187   4.745   2.284
  227DPPC   O3511335   5.260   4.763   2.187
  227DPPC   C3611336   5.203   4.839   2.404
  227DPPC   C3711337   5.327   4.798   2.483
  227DPPC   C3811338   5.362   4.886   2.604
  227DPPC   C3911339   5.282   4.857   2.731
  227DPPC   C4011340   5.323   4.949   2.846
  227DPPC   C4111341   5.264   4.926   2.985
  227DPPC   C4211342   5.360   4.987   3.087
  227DPPC   C4311343   5.284   4.984   3.220
  227DPPC   C4411344   5.352   5.047   3.342
  227DPPC   C4511345   5.288   4.989   3.469
  227DPPC   C4611346   5.386   5.022   3.582
  227DPPC   C4711347   5.350   4.934   3.702
  227DPPC   C4811348   5.456   4.961   3.810
  227DPPC   C4911349   5.409   4.867   3.920
  227DPPC   C5011350   5.492   4.878   4.048
  228DPPC    C111351   5.577   2.685   2.129
  228DPPC    C211352   5.739   2.608   1.959
  228DPPC    C311353   5.543   2.502   1.975
  228DPPC    N411354   5.599   2.637   1.992
  228DPPC    C511355   5.522   2.712   1.892
  228DPPC    C611356   5.527   2.865   1.893
  228DPPC    O711357   5.651   2.909   1.838
  228DPPC    P811358   5.639   3.065   1.802
  228DPPC    O911359   5.503   3.086   1.749
  228DPPC   O1011360   5.758   3.099   1.720
  228DPPC   O1111361   5.640   3.138   1.945
  228DPPC   C1211362   5.765   3.108   2.007
  228DPPC   C1311363   5.771   3.126   2.159
  228DPPC   O1411364   5.700   3.025   2.231
  228DPPC   C1511365   5.718   3.031   2.366
  228DPPC   O1611366   5.816   3.078   2.423
  228DPPC   C1711367   5.624   2.935   2.440
  228DPPC   C1811368   5.573   3.009   2.564
  228DPPC   C1911369   5.492   2.912   2.649
  228DPPC   C2011370   5.440   2.997   2.764
  228DPPC   C2111371   5.353   2.917   2.862
  228DPPC   C2211372   5.309   3.026   2.960
  228DPPC   C2311373   5.246   2.969   3.088
  228DPPC   C2411374   5.113   2.904   3.048
  228DPPC   C2511375   5.020   2.885   3.168
  228DPPC   C2611376   4.906   2.786   3.141
  228DPPC   C2711377   4.869   2.705   3.266
  228DPPC   C2811378   4.987   2.621   3.315
  228DPPC   C2911379   4.935   2.554   3.442
  228DPPC   C3011380   5.045   2.456   3.485
  228DPPC   C3111381   4.996   2.352   3.586
  228DPPC   C3211382   5.730   3.269   2.194
  228DPPC   O3311383   5.835   3.366   2.196
  228DPPC   C3411384   5.794   3.493   2.223
  228DPPC   O3511385   5.681   3.527   2.187
  228DPPC   C3611386   5.911   3.579   2.270
  228DPPC   C3711387   5.889   3.671   2.390
  228DPPC   C3811388   5.912   3.600   2.524
  228DPPC   C3911389   5.906   3.713   2.627
  228DPPC   C4011390   5.904   3.653   2.767
  228DPPC   C4111391   5.899   3.770   2.865
  228DPPC   C4211392   5.896   3.690   2.996
  228DPPC   C4311393   5.877   3.788   3.112
  228DPPC   C4411394   5.857   3.706   3.239
  228DPPC   C4511395   5.808   3.806   3.345
  228DPPC   C4611396   5.842   3.768   3.489
  228DPPC   C4711397   5.977   3.831   3.522
  228DPPC   C4811398   6.098   3.759   3.461
  228DPPC   C4911399   6.218   3.840   3.511
  228DPPC   C5011400   6.347   3.792   3.445
  229DPPC    C111401   3.327   3.881   2.195
  229DPPC    C211402   3.559   3.922   2.184
  229DPPC    C311403   3.466   3.797   2.373
  229DPPC    N411404   3.458   3.825   2.228
  229DPPC    C511405   3.484   3.698   2.159
  229DPPC    C611406   3.383   3.585   2.183
  229DPPC    O711407   3.440   3.458   2.148
  229DPPC    P811408   3.353   3.327   2.181
  229DPPC    O911409   3.439   3.229   2.110
  229DPPC   O1011410   3.214   3.358   2.140
  229DPPC   O1111411   3.385   3.337   2.339
  229DPPC   C1211412   3.407   3.207   2.394
  229DPPC   C1311413   3.436   3.203   2.544
  229DPPC   O1411414   3.318   3.176   2.621
  229DPPC   C1511415   3.288   3.046   2.650
  229DPPC   O1611416   3.346   2.955   2.591
  229DPPC   C1711417   3.174   3.015   2.747
  229DPPC   C1811418   3.226   2.915   2.851
  229DPPC   C1911419   3.127   2.891   2.965
  229DPPC   C2011420   3.183   2.793   3.068
  229DPPC   C2111421   3.123   2.816   3.207
  229DPPC   C2211422   3.077   2.683   3.268
  229DPPC   C2311423   3.008   2.711   3.401
  229DPPC   C2411424   2.932   2.586   3.445
  229DPPC   C2511425   2.897   2.579   3.594
  229DPPC   C2611426   2.813   2.455   3.623
  229DPPC   C2711427   2.818   2.402   3.766
  229DPPC   C2811428   2.797   2.519   3.863
  229DPPC   C2911429   2.801   2.459   4.004
  229DPPC   C3011430   2.853   2.534   4.126
  229DPPC   C3111431   2.857   2.436   4.244
  229DPPC   C3211432   3.505   3.330   2.593
  229DPPC   O3311433   3.627   3.362   2.524
  229DPPC   C3411434   3.682   3.484   2.544
  229DPPC   O3511435   3.623   3.585   2.582
  229DPPC   C3611436   3.823   3.490   2.483
  229DPPC   C3711437   3.941   3.465   2.577
  229DPPC   C3811438   3.918   3.543   2.707
  229DPPC   C3911439   4.046   3.532   2.791
  229DPPC   C4011440   4.036   3.618   2.917
  229DPPC   C4111441   4.161   3.596   3.003
  229DPPC   C4211442   4.125   3.644   3.144
  229DPPC   C4311443   4.240   3.676   3.240
  229DPPC   C4411444   4.177   3.711   3.375
  229DPPC   C4511445   4.285   3.743   3.478
  229DPPC   C4611446   4.232   3.769   3.619
  229DPPC   C4711447   4.180   3.913   3.629
  229DPPC   C4811448   4.141   3.944   3.773
  229DPPC   C4911449   4.125   4.095   3.788
  229DPPC   C5011450   4.077   4.120   3.931
  230DPPC    C111451   5.581   1.045   2.340
  230DPPC    C211452   5.420   1.033   2.525
  230DPPC    C311453   5.402   1.190   2.344
  230DPPC    N411454   5.440   1.053   2.380
  230DPPC    C511455   5.368   0.941   2.318
  230DPPC    C611456   5.391   0.891   2.175
  230DPPC    O711457   5.280   0.836   2.105
  230DPPC    P811458   5.315   0.689   2.051
  230DPPC    O911459   5.443   0.706   1.980
  230DPPC   O1011460   5.202   0.640   1.968
  230DPPC   O1111461   5.330   0.624   2.197
  230DPPC   C1211462   5.200   0.577   2.235
  230DPPC   C1311463   5.163   0.592   2.383
  230DPPC   O1411464   5.122   0.721   2.429
  230DPPC   C1511465   4.997   0.770   2.404
  230DPPC   O1611466   4.923   0.731   2.314
  230DPPC   C1711467   4.942   0.879   2.496
  230DPPC   C1811468   4.927   0.823   2.638
  230DPPC   C1911469   4.885   0.943   2.722
  230DPPC   C2011470   4.885   0.903   2.870
  230DPPC   C2111471   4.849   1.030   2.948
  230DPPC   C2211472   4.699   1.060   2.953
  230DPPC   C2311473   4.690   1.172   3.057
  230DPPC   C2411474   4.791   1.282   3.024
  230DPPC   C2511475   4.770   1.389   3.131
  230DPPC   C2611476   4.817   1.332   3.266
  230DPPC   C2711477   4.799   1.416   3.392
  230DPPC   C2811478   4.832   1.318   3.505
  230DPPC   C2911479   4.966   1.246   3.494
  230DPPC   C3011480   4.981   1.173   3.627
  230DPPC   C3111481   5.100   1.078   3.640
  230DPPC   C3211482   5.284   0.534   2.457
  230DPPC   O3311483   5.289   0.517   2.598
  230DPPC   C3411484   5.335   0.630   2.657
  230DPPC   O3511485   5.386   0.724   2.596
  230DPPC   C3611486   5.322   0.639   2.809
  230DPPC   C3711487   5.330   0.500   2.872
  230DPPC   C3811488   5.353   0.511   3.023
  230DPPC   C3911489   5.326   0.376   3.088
  230DPPC   C4011490   5.346   0.375   3.240
  230DPPC   C4111491   5.310   0.232   3.283
  230DPPC   C4211492   5.163   0.195   3.269
  230DPPC   C4311493   5.092   0.264   3.386
  230DPPC   C4411494   4.941   0.242   3.385
  230DPPC   C4511495   4.863   0.313   3.497
  230DPPC   C4611496   4.711   0.300   3.490
  230DPPC   C4711497   4.644   0.382   3.601
  230DPPC   C4811498   4.652   0.530   3.566
  230DPPC   C4911499   4.513   0.583   3.529
  230DPPC   C5011500   4.406   0.552   3.634
  231DPPC    C111501   1.124   0.155   1.827
  231DPPC    C211502   1.205   0.335   1.729
  231DPPC    C311503   1.374   0.207   1.842
  231DPPC    N411504   1.249   0.199   1.764
  231DPPC    C511505   1.276   0.124   1.641
  231DPPC    C611506   1.358  -0.005   1.638
  231DPPC    O711507   1.292  -0.112   1.707
  231DPPC    P811508   1.398  -0.229   1.740
  231DPPC    O911509   1.493  -0.186   1.845
  231DPPC   O1011510   1.420  -0.310   1.618
  231DPPC   O1111511   1.282  -0.309   1.817
  231DPPC   C1211512   1.271  -0.254   1.949
  231DPPC   C1311513   1.135  -0.276   2.015
  231DPPC   O1411514   1.115  -0.206   2.139
  231DPPC   C1511515   1.014  -0.115   2.143
  231DPPC   O1611516   0.939  -0.102   2.046
  231DPPC   C1711517   1.004  -0.021   2.264
  231DPPC   C1811518   1.040   0.123   2.228
  231DPPC   C1911519   0.991   0.226   2.331
  231DPPC   C2011520   0.839   0.243   2.329
  231DPPC   C2111521   0.802   0.360   2.420
  231DPPC   C2211522   0.855   0.343   2.562
  231DPPC   C2311523   0.822   0.462   2.651
  231DPPC   C2411524   0.855   0.423   2.795
  231DPPC   C2511525   0.814   0.546   2.876
  231DPPC   C2611526   0.850   0.532   3.024
  231DPPC   C2711527   0.810   0.654   3.108
  231DPPC   C2811528   0.816   0.616   3.256
  231DPPC   C2911529   0.819   0.744   3.341
  231DPPC   C3011530   0.835   0.714   3.490
  231DPPC   C3111531   0.717   0.635   3.546
  231DPPC   C3211532   1.116  -0.428   2.010
  231DPPC   O3311533   1.237  -0.496   2.044
  231DPPC   C3411534   1.221  -0.629   2.069
  231DPPC   O3511535   1.155  -0.696   1.990
  231DPPC   C3611536   1.326  -0.687   2.164
  231DPPC   C3711537   1.255  -0.724   2.294
  231DPPC   C3811538   1.370  -0.793   2.366
  231DPPC   C3911539   1.342  -0.868   2.497
  231DPPC   C4011540   1.475  -0.925   2.547
  231DPPC   C4111541   1.459  -1.006   2.676
  231DPPC   C4211542   1.600  -1.046   2.719
  231DPPC   C4311543   1.670  -0.914   2.753
  231DPPC   C4411544   1.792  -0.924   2.844
  231DPPC   C4511545   1.856  -0.785   2.847
  231DPPC   C4611546   1.998  -0.798   2.791
  231DPPC   C4711547   2.081  -0.670   2.806
  231DPPC   C4811548   2.215  -0.707   2.870
  231DPPC   C4911549   2.335  -0.646   2.798
  231DPPC   C5011550   2.459  -0.722   2.847
  232DPPC    C111551   7.754   6.832   1.308
  232DPPC    C211552   7.858   6.959   1.489
  232DPPC    C311553   7.635   6.993   1.433
  232DPPC    N411554   7.738   6.888   1.443
  232DPPC    C511555   7.706   6.777   1.534
  232DPPC    C611556   7.817   6.676   1.566
  232DPPC    O711557   7.767   6.557   1.628
  232DPPC    P811558   7.839   6.421   1.580
  232DPPC    O911559   7.885   6.435   1.440
  232DPPC   O1011560   7.750   6.311   1.623
  232DPPC   O1111561   7.962   6.423   1.684
  232DPPC   C1211562   7.921   6.383   1.815
  232DPPC   C1311563   8.002   6.449   1.927
  232DPPC   O1411564   8.005   6.372   2.048
  232DPPC   C1511565   8.113   6.291   2.065
  232DPPC   O1611566   8.204   6.295   1.983
  232DPPC   C1711567   8.118   6.210   2.195
  232DPPC   C1811568   8.246   6.234   2.275
  232DPPC   C1911569   8.236   6.145   2.399
  232DPPC   C2011570   8.343   6.170   2.507
  232DPPC   C2111571   8.310   6.081   2.627
  232DPPC   C2211572   8.410   6.085   2.743
  232DPPC   C2311573   8.360   6.005   2.863
  232DPPC   C2411574   8.447   6.040   2.984
  232DPPC   C2511575   8.598   6.037   2.963
  232DPPC   C2611576   8.667   6.068   3.096
  232DPPC   C2711577   8.666   5.943   3.184
  232DPPC   C2811578   8.729   5.970   3.322
  232DPPC   C2911579   8.657   6.084   3.394
  232DPPC   C3011580   8.706   6.104   3.538
  232DPPC   C3111581   8.626   6.215   3.607
  232DPPC   C3211582   7.952   6.594   1.931
  232DPPC   O3311583   7.812   6.611   1.955
  232DPPC   C3411584   7.771   6.740   1.944
  232DPPC   O3511585   7.835   6.820   1.875
  232DPPC   C3611586   7.633   6.768   2.003
  232DPPC   C3711587   7.641   6.863   2.123
  232DPPC   C3811588   7.673   6.778   2.246
  232DPPC   C3911589   7.682   6.881   2.359
  232DPPC   C4011590   7.547   6.951   2.377
  232DPPC   C4111591   7.552   7.047   2.496
  232DPPC   C4211592   7.602   6.966   2.615
  232DPPC   C4311593   7.608   7.047   2.745
  232DPPC   C4411594   7.654   6.966   2.866
  232DPPC   C4511595   7.781   6.885   2.840
  232DPPC   C4611596   7.783   6.765   2.935
  232DPPC   C4711597   7.927   6.714   2.940
  232DPPC   C4811598   7.945   6.589   3.027
  232DPPC   C4911599   7.838   6.490   2.980
  232DPPC   C5011600   7.833   6.373   3.079
  233DPPC    C111601   0.465   5.309   1.274
  233DPPC    C211602   0.637   5.145   1.277
  233DPPC    C311603   0.673   5.362   1.216
  233DPPC    N411604   0.603   5.282   1.318
  233DPPC    C511605   0.638   5.305   1.459
  233DPPC    C611606   0.624   5.449   1.507
  233DPPC    O711607   0.746   5.504   1.558
  233DPPC    P811608   0.719   5.657   1.599
  233DPPC    O911609   0.630   5.702   1.489
  233DPPC   O1011610   0.844   5.730   1.629
  233DPPC   O1111611   0.629   5.634   1.731
  233DPPC   C1211612   0.584   5.751   1.800
  233DPPC   C1311613   0.464   5.834   1.753
  233DPPC   O1411614   0.446   5.954   1.830
  233DPPC   C1511615   0.510   6.068   1.793
  233DPPC   O1611616   0.590   6.060   1.700
  233DPPC   C1711617   0.504   6.186   1.890
  233DPPC   C1811618   0.639   6.226   1.949
  233DPPC   C1911619   0.607   6.331   2.055
  233DPPC   C2011620   0.738   6.383   2.116
  233DPPC   C2111621   0.815   6.274   2.190
  233DPPC   C2211622   0.942   6.325   2.259
  233DPPC   C2311623   1.008   6.204   2.325
  233DPPC   C2411624   1.154   6.234   2.357
  233DPPC   C2511625   1.214   6.124   2.445
  233DPPC   C2611626   1.212   5.991   2.369
  233DPPC   C2711627   1.309   5.890   2.431
  233DPPC   C2811628   1.301   5.903   2.583
  233DPPC   C2911629   1.405   5.810   2.647
  233DPPC   C3011630   1.383   5.804   2.799
  233DPPC   C3111631   1.459   5.688   2.864
  233DPPC   C3211632   0.345   5.740   1.776
  233DPPC   O3311633   0.359   5.662   1.895
  233DPPC   C3411634   0.250   5.585   1.921
  233DPPC   O3511635   0.159   5.583   1.838
  233DPPC   C3611636   0.245   5.509   2.054
  233DPPC   C3711637   0.177   5.590   2.165
  233DPPC   C3811638   0.246   5.723   2.195
  233DPPC   C3911639   0.172   5.811   2.295
  233DPPC   C4011640   0.257   5.933   2.333
  233DPPC   C4111641   0.392   5.887   2.388
  233DPPC   C4211642   0.483   6.005   2.424
  233DPPC   C4311643   0.615   5.948   2.474
  233DPPC   C4411644   0.713   6.042   2.545
  233DPPC   C4511645   0.811   5.965   2.634
  233DPPC   C4611646   0.862   6.054   2.747
  233DPPC   C4711647   0.986   5.992   2.812
  233DPPC   C4811648   1.042   6.081   2.924
  233DPPC   C4911649   1.133   5.998   3.015
  233DPPC   C5011650   1.038   5.888   3.064
  234DPPC    C111651   8.587   1.828   1.146
  234DPPC    C211652   8.516   1.607   1.195
  234DPPC    C311653   8.726   1.634   1.125
  234DPPC    N411654   8.627   1.702   1.210
  234DPPC    C511655   8.676   1.714   1.348
  234DPPC    C611656   8.785   1.807   1.402
  234DPPC    O711657   8.914   1.791   1.342
  234DPPC    P811658   9.010   1.916   1.373
  234DPPC    O911659   8.913   2.024   1.344
  234DPPC   O1011660   9.128   1.886   1.288
  234DPPC   O1111661   9.031   1.867   1.525
  234DPPC   C1211662   8.985   1.965   1.619
  234DPPC   C1311663   8.956   1.891   1.750
  234DPPC   O1411664   8.932   1.983   1.857
  234DPPC   C1511665   8.832   1.945   1.942
  234DPPC   O1611666   8.723   1.908   1.899
  234DPPC   C1711667   8.843   2.003   2.083
  234DPPC   C1811668   8.990   2.020   2.121
  234DPPC   C1911669   9.018   2.032   2.271
  234DPPC   C2011670   8.974   1.909   2.352
  234DPPC   C2111671   9.004   1.923   2.501
  234DPPC   C2211672   8.946   1.798   2.568
  234DPPC   C2311673   8.938   1.831   2.718
  234DPPC   C2411674   8.826   1.753   2.786
  234DPPC   C2511675   8.823   1.787   2.936
  234DPPC   C2611676   8.700   1.733   3.008
  234DPPC   C2711677   8.695   1.758   3.159
  234DPPC   C2811678   8.568   1.701   3.223
  234DPPC   C2911679   8.573   1.698   3.376
  234DPPC   C3011680   8.437   1.648   3.424
  234DPPC   C3111681   8.434   1.649   3.577
  234DPPC   C3211682   9.087   1.819   1.781
  234DPPC   O3311683   9.092   1.715   1.879
  234DPPC   C3411684   9.034   1.592   1.871
  234DPPC   O3511685   9.013   1.550   1.758
  234DPPC   C3611686   9.040   1.500   1.993
  234DPPC   C3711687   8.929   1.560   2.081
  234DPPC   C3811688   8.929   1.480   2.212
  234DPPC   C3911689   8.805   1.519   2.292
  234DPPC   C4011690   8.787   1.456   2.430
  234DPPC   C4111691   8.641   1.488   2.462
  234DPPC   C4211692   8.597   1.428   2.595
  234DPPC   C4311693   8.464   1.485   2.644
  234DPPC   C4411694   8.435   1.413   2.776
  234DPPC   C4511695   8.331   1.501   2.846
  234DPPC   C4611696   8.305   1.433   2.981
  234DPPC   C4711697   8.427   1.397   3.066
  234DPPC   C4811698   8.394   1.333   3.200
  234DPPC   C4911699   8.517   1.293   3.282
  234DPPC   C5011700   8.477   1.196   3.394
  235DPPC    C111701   2.648   3.995   2.033
  235DPPC    C211702   2.462   4.143   2.011
  235DPPC    C311703   2.552   4.093   2.224
  235DPPC    N411704   2.587   4.119   2.084
  235DPPC    C511705   2.681   4.232   2.089
  235DPPC    C611706   2.729   4.282   1.953
  235DPPC    O711707   2.806   4.401   1.966
  235DPPC    P811708   2.848   4.447   1.817
  235DPPC    O911709   2.824   4.336   1.722
  235DPPC   O1011710   2.981   4.510   1.804
  235DPPC   O1111711   2.729   4.553   1.792
  235DPPC   C1211712   2.752   4.654   1.890
  235DPPC   C1311713   2.635   4.746   1.927
  235DPPC   O1411714   2.680   4.860   2.002
  235DPPC   C1511715   2.593   4.963   2.008
  235DPPC   O1611716   2.500   4.971   1.927
  235DPPC   C1711717   2.609   5.061   2.125
  235DPPC   C1811718   2.641   4.976   2.248
  235DPPC   C1911719   2.527   4.893   2.306
  235DPPC   C2011720   2.591   4.835   2.433
  235DPPC   C2111721   2.500   4.743   2.515
  235DPPC   C2211722   2.560   4.741   2.656
  235DPPC   C2311723   2.523   4.866   2.735
  235DPPC   C2411724   2.597   4.858   2.868
  235DPPC   C2511725   2.582   4.997   2.929
  235DPPC   C2611726   2.434   5.037   2.939
  235DPPC   C2711727   2.407   5.176   2.996
  235DPPC   C2811728   2.436   5.162   3.146
  235DPPC   C2911729   2.409   5.284   3.233
  235DPPC   C3011730   2.421   5.241   3.380
  235DPPC   C3111731   2.361   5.338   3.481
  235DPPC   C3211732   2.522   4.655   1.976
  235DPPC   O3311733   2.525   4.577   2.095
  235DPPC   C3411734   2.411   4.513   2.132
  235DPPC   O3511735   2.334   4.488   2.040
  235DPPC   C3611736   2.417   4.447   2.270
  235DPPC   C3711737   2.285   4.377   2.303
  235DPPC   C3811738   2.293   4.295   2.432
  235DPPC   C3911739   2.341   4.366   2.558
  235DPPC   C4011740   2.327   4.281   2.685
  235DPPC   C4111741   2.374   4.345   2.816
  235DPPC   C4211742   2.280   4.451   2.873
  235DPPC   C4311743   2.360   4.513   2.988
  235DPPC   C4411744   2.254   4.599   3.056
  235DPPC   C4511745   2.304   4.655   3.190
  235DPPC   C4611746   2.238   4.786   3.235
  235DPPC   C4711747   2.300   4.840   3.364
  235DPPC   C4811748   2.285   4.736   3.476
  235DPPC   C4911749   2.347   4.797   3.602
  235DPPC   C5011750   2.493   4.836   3.577
  236DPPC    C111751   0.326   1.077   1.253
  236DPPC    C211752   0.193   1.203   1.095
  236DPPC    C311753   0.091   1.037   1.234
  236DPPC    N411754   0.196   1.141   1.229
  236DPPC    C511755   0.170   1.233   1.340
  236DPPC    C611756   0.236   1.371   1.347
  236DPPC    O711757   0.379   1.365   1.358
  236DPPC    P811758   0.445   1.512   1.355
  236DPPC    O911759   0.367   1.587   1.254
  236DPPC   O1011760   0.591   1.488   1.350
  236DPPC   O1111761   0.384   1.561   1.496
  236DPPC   C1211762   0.453   1.502   1.606
  236DPPC   C1311763   0.430   1.587   1.731
  236DPPC   O1411764   0.527   1.570   1.836
  236DPPC   C1511765   0.561   1.671   1.921
  236DPPC   O1611766   0.536   1.786   1.887
  236DPPC   C1711767   0.674   1.651   2.022
  236DPPC   C1811768   0.644   1.745   2.139
  236DPPC   C1911769   0.752   1.725   2.245
  236DPPC   C2011770   0.730   1.822   2.361
  236DPPC   C2111771   0.620   1.767   2.452
  236DPPC   C2211772   0.630   1.821   2.594
  236DPPC   C2311773   0.533   1.741   2.682
  236DPPC   C2411774   0.391   1.740   2.626
  236DPPC   C2511775   0.296   1.713   2.743
  236DPPC   C2611776   0.344   1.578   2.797
  236DPPC   C2711777   0.259   1.533   2.916
  236DPPC   C2811778   0.246   1.631   3.034
  236DPPC   C2911779   0.139   1.575   3.127
  236DPPC   C3011780   0.138   1.651   3.260
  236DPPC   C3111781   0.016   1.625   3.349
  236DPPC   C3211782   0.285   1.552   1.764
  236DPPC   O3311783   0.272   1.411   1.782
  236DPPC   C3411784   0.145   1.362   1.775
  236DPPC   O3511785   0.054   1.430   1.726
  236DPPC   C3611786   0.116   1.222   1.828
  236DPPC   C3711787   0.107   1.219   1.981
  236DPPC   C3811788  -0.040   1.242   2.019
  236DPPC   C3911789  -0.076   1.192   2.159
  236DPPC   C4011790  -0.219   1.215   2.208
  236DPPC   C4111791  -0.227   1.172   2.354
  236DPPC   C4211792  -0.207   1.021   2.369
  236DPPC   C4311793  -0.212   0.978   2.516
  236DPPC   C4411794  -0.202   0.827   2.534
  236DPPC   C4511795  -0.201   0.811   2.687
  236DPPC   C4611796  -0.168   0.670   2.735
  236DPPC   C4711797  -0.176   0.659   2.888
  236DPPC   C4811798  -0.049   0.720   2.949
  236DPPC   C4911799  -0.060   0.732   3.101
  236DPPC   C5011800   0.064   0.802   3.157
  237DPPC    C111801   7.419   7.677   1.771
  237DPPC    C211802   7.631   7.565   1.796
  237DPPC    C311803   7.476   7.494   1.649
  237DPPC    N411804   7.534   7.619   1.699
  237DPPC    C511805   7.604   7.689   1.590
  237DPPC    C611806   7.646   7.835   1.610
  237DPPC    O711807   7.537   7.928   1.613
  237DPPC    P811808   7.593   8.077   1.640
  237DPPC    O911809   7.496   8.178   1.594
  237DPPC   O1011810   7.736   8.076   1.604
  237DPPC   O1111811   7.573   8.061   1.799
  237DPPC   C1211812   7.438   8.065   1.846
  237DPPC   C1311813   7.433   8.081   1.999
  237DPPC   O1411814   7.433   8.215   2.049
  237DPPC   C1511815   7.322   8.293   2.034
  237DPPC   O1611816   7.222   8.241   1.984
  237DPPC   C1711817   7.333   8.439   2.078
  237DPPC   C1811818   7.425   8.440   2.200
  237DPPC   C1911819   7.434   8.579   2.264
  237DPPC   C2011820   7.498   8.568   2.402
  237DPPC   C2111821   7.391   8.538   2.507
  237DPPC   C2211822   7.457   8.554   2.644
  237DPPC   C2311823   7.361   8.539   2.762
  237DPPC   C2411824   7.423   8.598   2.888
  237DPPC   C2511825   7.439   8.749   2.869
  237DPPC   C2611826   7.535   8.797   2.978
  237DPPC   C2711827   7.526   8.736   3.119
  237DPPC   C2811828   7.632   8.788   3.216
  237DPPC   C2911829   7.777   8.772   3.169
  237DPPC   C3011830   7.865   8.837   3.276
  237DPPC   C3111831   7.835   8.986   3.288
  237DPPC   C3211832   7.528   7.974   2.053
  237DPPC   O3311833   7.454   7.855   2.077
  237DPPC   C3411834   7.533   7.759   2.132
  237DPPC   O3511835   7.651   7.742   2.100
  237DPPC   C3611836   7.472   7.647   2.216
  237DPPC   C3711837   7.469   7.683   2.365
  237DPPC   C3811838   7.437   7.566   2.459
  237DPPC   C3911839   7.418   7.609   2.604
  237DPPC   C4011840   7.369   7.493   2.692
  237DPPC   C4111841   7.307   7.557   2.816
  237DPPC   C4211842   7.248   7.446   2.903
  237DPPC   C4311843   7.348   7.337   2.943
  237DPPC   C4411844   7.458   7.405   3.025
  237DPPC   C4511845   7.558   7.301   3.077
  237DPPC   C4611846   7.651   7.370   3.177
  237DPPC   C4711847   7.770   7.276   3.200
  237DPPC   C4811848   7.730   7.136   3.247
  237DPPC   C4911849   7.858   7.062   3.209
  237DPPC   C5011850   7.970   7.108   3.303
  238DPPC    C111851   3.319   2.018   2.483
  238DPPC    C211852   3.396   2.076   2.267
  238DPPC    C311853   3.164   2.029   2.294
  238DPPC    N411854   3.282   2.088   2.359
  238DPPC    C511855   3.227   2.222   2.381
  238DPPC    C611856   3.303   2.316   2.474
  238DPPC    O711857   3.403   2.392   2.404
  238DPPC    P811858   3.476   2.498   2.501
  238DPPC    O911859   3.401   2.519   2.627
  238DPPC   O1011860   3.542   2.609   2.429
  238DPPC   O1111861   3.592   2.389   2.528
  238DPPC   C1211862   3.587   2.368   2.670
  238DPPC   C1311863   3.637   2.238   2.732
  238DPPC   O1411864   3.588   2.224   2.866
  238DPPC   C1511865   3.576   2.100   2.921
  238DPPC   O1611866   3.573   1.999   2.850
  238DPPC   C1711867   3.541   2.088   3.069
  238DPPC   C1811868   3.661   2.064   3.161
  238DPPC   C1911869   3.638   2.068   3.312
  238DPPC   C2011870   3.581   2.198   3.368
  238DPPC   C2111871   3.559   2.177   3.518
  238DPPC   C2211872   3.501   2.307   3.575
  238DPPC   C2311873   3.508   2.300   3.728
  238DPPC   C2411874   3.648   2.272   3.785
  238DPPC   C2511875   3.632   2.256   3.936
  238DPPC   C2611876   3.578   2.130   4.004
  238DPPC   C2711877   3.608   2.132   4.154
  238DPPC   C2811878   3.513   2.223   4.232
  238DPPC   C2911879   3.537   2.204   4.381
  238DPPC   C3011880   3.496   2.063   4.422
  238DPPC   C3111881   3.502   2.023   4.570
  238DPPC   C3211882   3.789   2.243   2.717
  238DPPC   O3311883   3.855   2.369   2.732
  238DPPC   C3411884   3.989   2.375   2.714
  238DPPC   O3511885   4.052   2.272   2.690
  238DPPC   C3611886   4.056   2.513   2.716
  238DPPC   C3711887   4.129   2.547   2.846
  238DPPC   C3811888   4.216   2.673   2.836
  238DPPC   C3911889   4.301   2.688   2.962
  238DPPC   C4011890   4.208   2.681   3.083
  238DPPC   C4111891   4.275   2.686   3.221
  238DPPC   C4211892   4.171   2.656   3.329
  238DPPC   C4311893   4.215   2.652   3.475
  238DPPC   C4411894   4.112   2.643   3.589
  238DPPC   C4511895   4.034   2.512   3.584
  238DPPC   C4611896   4.097   2.394   3.659
  238DPPC   C4711897   4.008   2.270   3.646
  238DPPC   C4811898   4.037   2.151   3.737
  238DPPC   C4911899   4.145   2.063   3.674
  238DPPC   C5011900   4.090   2.029   3.535
  239DPPC    C111901   3.349   2.578   2.146
  239DPPC    C211902   3.529   2.675   2.014
  239DPPC    C311903   3.363   2.531   1.919
  239DPPC    N411904   3.386   2.638   2.017
  239DPPC    C511905   3.318   2.763   1.981
  239DPPC    C611906   3.166   2.747   1.966
  239DPPC    O711907   3.098   2.841   1.883
  239DPPC    P811908   2.949   2.787   1.855
  239DPPC    O911909   2.980   2.648   1.817
  239DPPC   O1011910   2.898   2.885   1.756
  239DPPC   O1111911   2.900   2.810   2.007
  239DPPC   C1211912   2.778   2.885   2.010
  239DPPC   C1311913   2.665   2.783   2.022
  239DPPC   O1411914   2.530   2.823   1.994
  239DPPC   C1511915   2.426   2.736   1.994
  239DPPC   O1611916   2.431   2.614   1.981
  239DPPC   C1711917   2.288   2.800   2.014
  239DPPC   C1811918   2.234   2.769   2.154
  239DPPC   C1911919   2.110   2.855   2.178
  239DPPC   C2011920   2.043   2.841   2.314
  239DPPC   C2111921   2.135   2.901   2.421
  239DPPC   C2211922   2.050   2.895   2.548
  239DPPC   C2311923   2.112   2.989   2.652
  239DPPC   C2411924   2.039   2.988   2.786
  239DPPC   C2511925   1.912   3.073   2.784
  239DPPC   C2611926   1.847   3.097   2.921
  239DPPC   C2711927   1.944   3.157   3.023
  239DPPC   C2811928   1.861   3.168   3.151
  239DPPC   C2911929   1.938   3.268   3.238
  239DPPC   C3011930   1.847   3.306   3.354
  239DPPC   C3111931   1.745   3.409   3.303
  239DPPC   C3211932   2.694   2.749   2.168
  239DPPC   O3311933   2.663   2.847   2.267
  239DPPC   C3411934   2.657   2.800   2.395
  239DPPC   O3511935   2.673   2.682   2.424
  239DPPC   C3611936   2.616   2.905   2.499
  239DPPC   C3711937   2.603   2.835   2.635
  239DPPC   C3811938   2.505   2.913   2.722
  239DPPC   C3911939   2.504   2.853   2.863
  239DPPC   C4011940   2.428   2.942   2.962
  239DPPC   C4111941   2.484   2.911   3.101
  239DPPC   C4211942   2.402   2.985   3.206
  239DPPC   C4311943   2.441   2.964   3.352
  239DPPC   C4411944   2.348   3.020   3.461
  239DPPC   C4511945   2.379   3.163   3.505
  239DPPC   C4611946   2.260   3.235   3.568
  239DPPC   C4711947   2.273   3.277   3.715
  239DPPC   C4811948   2.139   3.314   3.778
  239DPPC   C4911949   2.166   3.369   3.918
  239DPPC   C5011950   2.211   3.255   4.009
  240DPPC    C111951   1.312   4.651   1.355
  240DPPC    C211952   1.514   4.665   1.241
  240DPPC    C311953   1.296   4.704   1.133
  240DPPC    N411954   1.382   4.727   1.251
  240DPPC    C511955   1.393   4.872   1.273
  240DPPC    C611956   1.453   4.908   1.409
  240DPPC    O711957   1.358   4.948   1.508
  240DPPC    P811958   1.448   4.975   1.639
  240DPPC    O911959   1.357   5.052   1.727
  240DPPC   O1011960   1.569   5.040   1.583
  240DPPC   O1111961   1.462   4.818   1.670
  240DPPC   C1211962   1.353   4.775   1.752
  240DPPC   C1311963   1.313   4.628   1.764
  240DPPC   O1411964   1.192   4.604   1.837
  240DPPC   C1511965   1.079   4.572   1.769
  240DPPC   O1611966   1.093   4.560   1.647
  240DPPC   C1711967   0.945   4.548   1.839
  240DPPC   C1811968   0.888   4.667   1.916
  240DPPC   C1911969   0.743   4.633   1.951
  240DPPC   C2011970   0.704   4.753   2.037
  240DPPC   C2111971   0.632   4.695   2.159
  240DPPC   C2211972   0.592   4.811   2.250
  240DPPC   C2311973   0.730   4.866   2.288
  240DPPC   C2411974   0.709   4.971   2.398
  240DPPC   C2511975   0.853   5.006   2.439
  240DPPC   C2611976   0.937   5.087   2.340
  240DPPC   C2711977   1.072   5.095   2.412
  240DPPC   C2811978   1.038   5.146   2.552
  240DPPC   C2911979   1.162   5.198   2.626
  240DPPC   C3011980   1.130   5.234   2.771
  240DPPC   C3111981   1.218   5.346   2.827
  240DPPC   C3211982   1.441   4.563   1.816
  240DPPC   O3311983   1.483   4.604   1.947
  240DPPC   C3411984   1.564   4.514   2.007
  240DPPC   O3511985   1.614   4.422   1.942
  240DPPC   C3611986   1.593   4.531   2.157
  240DPPC   C3711987   1.493   4.628   2.221
  240DPPC   C3811988   1.521   4.609   2.370
  240DPPC   C3911989   1.551   4.464   2.408
  240DPPC   C4011990   1.559   4.434   2.558
  240DPPC   C4111991   1.429   4.449   2.638
  240DPPC   C4211992   1.463   4.438   2.787
  240DPPC   C4311993   1.343   4.491   2.865
  240DPPC   C4411994   1.359   4.500   3.017
  240DPPC   C4511995   1.253   4.592   3.078
  240DPPC   C4611996   1.285   4.597   3.227
  240DPPC   C4711997   1.413   4.674   3.262
  240DPPC   C4811998   1.428   4.682   3.414
  240DPPC   C4911999   1.538   4.781   3.448
  240DPPC   C5012000   1.535   4.831   3.593
  241DPPC    C112001   3.086   3.173   1.883
  241DPPC    C212002   3.290   3.213   1.789
  241DPPC    C312003   3.093   3.232   1.657
  241DPPC    N412004   3.152   3.264   1.788
  241DPPC    C512005   3.150   3.409   1.808
  241DPPC    C612006   3.009   3.459   1.839
  241DPPC    O712007   3.012   3.602   1.842
  241DPPC    P812008   2.860   3.639   1.881
  241DPPC    O912009   2.775   3.538   1.816
  241DPPC   O1012010   2.826   3.782   1.862
  241DPPC   O1112011   2.864   3.604   2.038
  241DPPC   C1212012   2.945   3.712   2.085
  241DPPC   C1312013   2.943   3.720   2.238
  241DPPC   O1412014   3.024   3.830   2.281
  241DPPC   C1512015   2.964   3.949   2.309
  241DPPC   O1612016   2.889   3.996   2.224
  241DPPC   C1712017   3.036   4.034   2.413
  241DPPC   C1812018   3.125   3.969   2.520
  241DPPC   C1912019   3.182   4.083   2.604
  241DPPC   C2012020   3.300   4.041   2.691
  241DPPC   C2112021   3.262   3.946   2.805
  241DPPC   C2212022   3.383   3.937   2.899
  241DPPC   C2312023   3.409   3.791   2.936
  241DPPC   C2412024   3.528   3.797   3.032
  241DPPC   C2512025   3.573   3.663   3.091
  241DPPC   C2612026   3.693   3.683   3.183
  241DPPC   C2712027   3.740   3.545   3.230
  241DPPC   C2812028   3.752   3.444   3.116
  241DPPC   C2912029   3.809   3.316   3.178
  241DPPC   C3012030   3.833   3.213   3.067
  241DPPC   C3112031   3.706   3.206   2.982
  241DPPC   C3212032   3.005   3.587   2.282
  241DPPC   O3312033   3.002   3.554   2.421
  241DPPC   C3412034   3.105   3.595   2.499
  241DPPC   O3512035   3.217   3.633   2.464
  241DPPC   C3612036   3.073   3.558   2.644
  241DPPC   C3712037   3.183   3.476   2.711
  241DPPC   C3812038   3.145   3.438   2.854
  241DPPC   C3912039   3.247   3.348   2.924
  241DPPC   C4012040   3.192   3.322   3.064
  241DPPC   C4112041   3.283   3.242   3.158
  241DPPC   C4212042   3.209   3.214   3.288
  241DPPC   C4312043   3.299   3.132   3.381
  241DPPC   C4412044   3.254   3.172   3.521
  241DPPC   C4512045   3.240   3.324   3.531
  241DPPC   C4612046   3.143   3.345   3.647
  241DPPC   C4712047   3.103   3.485   3.695
  241DPPC   C4812048   2.978   3.480   3.783
  241DPPC   C4912049   2.941   3.621   3.830
  241DPPC   C5012050   2.813   3.622   3.913
  242DPPC    C112051   5.274   5.121   1.977
  242DPPC    C212052   5.269   5.104   1.747
  242DPPC    C312053   5.095   5.223   1.853
  242DPPC    N412054   5.239   5.198   1.856
  242DPPC    C512055   5.321   5.319   1.851
  242DPPC    C612056   5.293   5.426   1.957
  242DPPC    O712057   5.388   5.533   1.966
  242DPPC    P812058   5.316   5.677   1.966
  242DPPC    O912059   5.184   5.640   2.021
  242DPPC   O1012060   5.328   5.747   1.837
  242DPPC   O1112061   5.420   5.752   2.064
  242DPPC   C1212062   5.485   5.665   2.157
  242DPPC   C1312063   5.580   5.750   2.242
  242DPPC   O1412064   5.670   5.689   2.336
  242DPPC   C1512065   5.777   5.619   2.289
  242DPPC   O1612066   5.812   5.624   2.172
  242DPPC   C1712067   5.851   5.532   2.391
  242DPPC   C1812068   5.782   5.522   2.527
  242DPPC   C1912069   5.865   5.587   2.639
  242DPPC   C2012070   5.805   5.566   2.778
  242DPPC   C2112071   5.916   5.590   2.880
  242DPPC   C2212072   5.861   5.619   3.020
  242DPPC   C2312073   5.957   5.640   3.138
  242DPPC   C2412074   6.043   5.514   3.154
  242DPPC   C2512075   6.103   5.513   3.295
  242DPPC   C2612076   6.196   5.394   3.315
  242DPPC   C2712077   6.119   5.262   3.315
  242DPPC   C2812078   6.213   5.147   3.354
  242DPPC   C2912079   6.137   5.014   3.359
  242DPPC   C3012080   6.234   4.901   3.396
  242DPPC   C3112081   6.154   4.770   3.403
  242DPPC   C3212082   5.478   5.852   2.293
  242DPPC   O3312083   5.372   5.797   2.372
  242DPPC   C3412084   5.279   5.889   2.410
  242DPPC   O3512085   5.306   6.004   2.374
  242DPPC   C3612086   5.175   5.855   2.517
  242DPPC   C3712087   5.044   5.805   2.456
  242DPPC   C3812088   4.945   5.736   2.550
  242DPPC   C3912089   5.002   5.609   2.614
  242DPPC   C4012090   4.883   5.535   2.675
  242DPPC   C4112091   4.940   5.402   2.726
  242DPPC   C4212092   4.823   5.304   2.731
  242DPPC   C4312093   4.877   5.170   2.781
  242DPPC   C4412094   4.774   5.058   2.792
  242DPPC   C4512095   4.651   5.106   2.870
  242DPPC   C4612096   4.580   4.983   2.925
  242DPPC   C4712097   4.519   4.904   2.808
  242DPPC   C4812098   4.463   4.765   2.840
  242DPPC   C4912099   4.372   4.728   2.722
  242DPPC   C5012100   4.261   4.832   2.706
  243DPPC    C112101   8.294   6.144   1.663
  243DPPC    C212102   8.449   6.065   1.835
  243DPPC    C312103   8.224   5.970   1.791
  243DPPC    N412104   8.347   6.028   1.735
  243DPPC    C512105   8.396   5.916   1.653
  243DPPC    C612106   8.509   5.947   1.554
  243DPPC    O712107   8.565   5.832   1.490
  243DPPC    P812108   8.703   5.878   1.422
  243DPPC    O912109   8.710   6.014   1.364
  243DPPC   O1012110   8.752   5.758   1.350
  243DPPC   O1112111   8.787   5.904   1.557
  243DPPC   C1212112   8.847   5.781   1.599
  243DPPC   C1312113   8.852   5.750   1.749
  243DPPC   O1412114   8.753   5.657   1.793
  243DPPC   C1512115   8.763   5.522   1.774
  243DPPC   O1612116   8.831   5.479   1.681
  243DPPC   C1712117   8.651   5.450   1.849
  243DPPC   C1812118   8.700   5.433   1.992
  243DPPC   C1912119   8.597   5.382   2.093
  243DPPC   C2012120   8.478   5.478   2.108
  243DPPC   C2112121   8.409   5.409   2.226
  243DPPC   C2212122   8.503   5.388   2.345
  243DPPC   C2312123   8.484   5.253   2.413
  243DPPC   C2412124   8.557   5.229   2.546
  243DPPC   C2512125   8.550   5.077   2.556
  243DPPC   C2612126   8.628   5.030   2.679
  243DPPC   C2712127   8.562   5.093   2.802
  243DPPC   C2812128   8.629   5.058   2.936
  243DPPC   C2912129   8.573   5.123   3.062
  243DPPC   C3012130   8.659   5.075   3.179
  243DPPC   C3112131   8.614   5.141   3.310
  243DPPC   C3212132   8.847   5.888   1.816
  243DPPC   O3312133   8.839   5.890   1.958
  243DPPC   C3412134   8.801   6.011   2.010
  243DPPC   O3512135   8.773   6.105   1.937
  243DPPC   C3612136   8.770   6.003   2.160
  243DPPC   C3712137   8.856   5.899   2.232
  243DPPC   C3812138   8.814   5.880   2.378
  243DPPC   C3912139   8.841   6.010   2.453
  243DPPC   C4012140   8.821   5.980   2.602
  243DPPC   C4112141   8.856   6.101   2.688
  243DPPC   C4212142   8.775   6.221   2.637
  243DPPC   C4312143   8.798   6.326   2.746
  243DPPC   C4412144   8.946   6.364   2.734
  243DPPC   C4512145   8.981   6.476   2.833
  243DPPC   C4612146   9.130   6.496   2.860
  243DPPC   C4712147   9.169   6.351   2.892
  243DPPC   C4812148   9.294   6.343   2.981
  243DPPC   C4912149   9.363   6.208   3.002
  243DPPC   C5012150   9.297   6.122   3.110
  244DPPC    C112151   6.736   2.991   1.691
  244DPPC    C212152   6.860   2.807   1.607
  244DPPC    C312153   6.913   3.026   1.528
  244DPPC    N412154   6.869   2.948   1.645
  244DPPC    C512155   6.964   2.978   1.753
  244DPPC    C612156   7.103   2.915   1.763
  244DPPC    O712157   7.100   2.792   1.836
  244DPPC    P812158   7.238   2.712   1.819
  244DPPC    O912159   7.342   2.796   1.755
  244DPPC   O1012160   7.186   2.594   1.746
  244DPPC   O1112161   7.261   2.674   1.974
  244DPPC   C1212162   7.163   2.579   2.016
  244DPPC   C1312163   7.174   2.549   2.165
  244DPPC   O1412164   7.116   2.657   2.239
  244DPPC   C1512165   6.997   2.628   2.298
  244DPPC   O1612166   6.925   2.541   2.250
  244DPPC   C1712167   6.938   2.733   2.393
  244DPPC   C1812168   6.912   2.688   2.536
  244DPPC   C1912169   7.046   2.668   2.606
  244DPPC   C2012170   7.031   2.627   2.752
  244DPPC   C2112171   7.164   2.619   2.828
  244DPPC   C2212172   7.136   2.580   2.973
  244DPPC   C2312173   7.268   2.548   3.044
  244DPPC   C2412174   7.255   2.561   3.195
  244DPPC   C2512175   7.182   2.691   3.230
  244DPPC   C2612176   7.161   2.712   3.381
  244DPPC   C2712177   7.291   2.714   3.462
  244DPPC   C2812178   7.267   2.723   3.613
  244DPPC   C2912179   7.396   2.715   3.695
  244DPPC   C3012180   7.368   2.704   3.845
  244DPPC   C3112181   7.292   2.824   3.902
  244DPPC   C3212182   7.321   2.523   2.198
  244DPPC   O3312183   7.357   2.471   2.326
  244DPPC   C3412184   7.406   2.567   2.408
  244DPPC   O3512185   7.415   2.686   2.375
  244DPPC   C3612186   7.449   2.513   2.545
  244DPPC   C3712187   7.594   2.467   2.529
  244DPPC   C3812188   7.648   2.384   2.646
  244DPPC   C3912189   7.659   2.448   2.785
  244DPPC   C4012190   7.766   2.375   2.866
  244DPPC   C4112191   7.812   2.454   2.988
  244DPPC   C4212192   7.762   2.394   3.119
  244DPPC   C4312193   7.826   2.473   3.234
  244DPPC   C4412194   7.764   2.426   3.366
  244DPPC   C4512195   7.612   2.446   3.362
  244DPPC   C4612196   7.531   2.400   3.484
  244DPPC   C4712197   7.561   2.259   3.534
  244DPPC   C4812198   7.495   2.230   3.669
  244DPPC   C4912199   7.561   2.320   3.774
  244DPPC   C5012200   7.471   2.294   3.896
  245DPPC    C112201   5.442   3.533   1.655
  245DPPC    C212202   5.507   3.425   1.855
  245DPPC    C312203   5.646   3.594   1.774
  245DPPC    N412204   5.504   3.555   1.787
  245DPPC    C512205   5.441   3.659   1.870
  245DPPC    C612206   5.393   3.788   1.804
  245DPPC    O712207   5.491   3.891   1.795
  245DPPC    P812208   5.403   4.022   1.758
  245DPPC    O912209   5.321   3.983   1.641
  245DPPC   O1012210   5.483   4.145   1.743
  245DPPC   O1112211   5.310   4.030   1.890
  245DPPC   C1212212   5.382   4.076   2.005
  245DPPC   C1312213   5.291   4.116   2.121
  245DPPC   O1412214   5.354   4.185   2.230
  245DPPC   C1512215   5.364   4.321   2.231
  245DPPC   O1612216   5.353   4.386   2.127
  245DPPC   C1712217   5.439   4.366   2.356
  245DPPC   C1812218   5.348   4.354   2.479
  245DPPC   C1912219   5.412   4.432   2.593
  245DPPC   C2012220   5.334   4.428   2.725
  245DPPC   C2112221   5.398   4.513   2.835
  245DPPC   C2212222   5.294   4.512   2.946
  245DPPC   C2312223   5.366   4.573   3.067
  245DPPC   C2412224   5.264   4.564   3.181
  245DPPC   C2512225   5.327   4.609   3.313
  245DPPC   C2612226   5.245   4.553   3.429
  245DPPC   C2712227   5.330   4.542   3.556
  245DPPC   C2812228   5.250   4.504   3.681
  245DPPC   C2912229   5.331   4.505   3.811
  245DPPC   C3012230   5.255   4.452   3.933
  245DPPC   C3112231   5.353   4.447   4.051
  245DPPC   C3212232   5.210   3.991   2.152
  245DPPC   O3312233   5.296   3.890   2.206
  245DPPC   C3412234   5.233   3.769   2.209
  245DPPC   O3512235   5.120   3.762   2.163
  245DPPC   C3612236   5.322   3.651   2.249
  245DPPC   C3712237   5.316   3.601   2.393
  245DPPC   C3812238   5.436   3.512   2.426
  245DPPC   C3912239   5.444   3.476   2.574
  245DPPC   C4012240   5.565   3.389   2.611
  245DPPC   C4112241   5.553   3.331   2.752
  245DPPC   C4212242   5.690   3.290   2.806
  245DPPC   C4312243   5.670   3.277   2.957
  245DPPC   C4412244   5.625   3.416   3.004
  245DPPC   C4512245   5.633   3.419   3.157
  245DPPC   C4612246   5.557   3.306   3.226
  245DPPC   C4712247   5.565   3.315   3.379
  245DPPC   C4812248   5.480   3.212   3.453
  245DPPC   C4912249   5.499   3.237   3.603
  245DPPC   C5012250   5.646   3.241   3.644
  246DPPC    C112251   9.296   7.897   1.500
  246DPPC    C212252   9.466   8.024   1.587
  246DPPC    C312253   9.297   7.936   1.732
  246DPPC    N412254   9.384   7.906   1.617
  246DPPC    C512255   9.474   7.790   1.614
  246DPPC    C612256   9.547   7.735   1.736
  246DPPC    O712257   9.645   7.834   1.769
  246DPPC    P812258   9.738   7.770   1.883
  246DPPC    O912259   9.855   7.860   1.898
  246DPPC   O1012260   9.747   7.623   1.877
  246DPPC   O1112261   9.625   7.808   1.991
  246DPPC   C1212262   9.635   7.945   2.030
  246DPPC   C1312263   9.504   8.023   2.041
  246DPPC   O1412264   9.534   8.160   2.073
  246DPPC   C1512265   9.578   8.252   1.984
  246DPPC   O1612266   9.565   8.219   1.866
  246DPPC   C1712267   9.654   8.376   2.033
  246DPPC   C1812268   9.602   8.453   2.154
  246DPPC   C1912269   9.688   8.575   2.190
  246DPPC   C2012270   9.837   8.548   2.209
  246DPPC   C2112271   9.892   8.506   2.346
  246DPPC   C2212272  10.045   8.503   2.347
  246DPPC   C2312273  10.106   8.492   2.487
  246DPPC   C2412274  10.037   8.373   2.554
  246DPPC   C2512275  10.046   8.376   2.707
  246DPPC   C2612276   9.960   8.267   2.771
  246DPPC   C2712277   9.979   8.262   2.923
  246DPPC   C2812278  10.114   8.210   2.971
  246DPPC   C2912279  10.121   8.071   2.907
  246DPPC   C3012280  10.243   8.000   2.966
  246DPPC   C3112281  10.243   7.865   2.894
  246DPPC   C3212282   9.394   7.974   2.135
  246DPPC   O3312283   9.316   7.868   2.080
  246DPPC   C3412284   9.232   7.816   2.174
  246DPPC   O3512285   9.248   7.843   2.293
  246DPPC   C3612286   9.149   7.703   2.113
  246DPPC   C3712287   9.001   7.703   2.153
  246DPPC   C3812288   8.980   7.630   2.286
  246DPPC   C3912289   8.835   7.632   2.336
  246DPPC   C4012290   8.824   7.567   2.474
  246DPPC   C4112291   8.874   7.668   2.578
  246DPPC   C4212292   8.842   7.619   2.720
  246DPPC   C4312293   8.926   7.694   2.823
  246DPPC   C4412294   8.884   7.651   2.964
  246DPPC   C4512295   9.005   7.623   3.053
  246DPPC   C4612296   9.079   7.754   3.080
  246DPPC   C4712297   9.197   7.746   3.178
  246DPPC   C4812298   9.277   7.875   3.190
  246DPPC   C4912299   9.327   7.926   3.055
  246DPPC   C5012300   9.421   8.047   3.055
  247DPPC    C112301   7.079   1.211   1.120
  247DPPC    C212302   7.321   1.229   1.137
  247DPPC    C312303   7.206   1.093   1.293
  247DPPC    N412304   7.205   1.141   1.154
  247DPPC    C512305   7.194   1.026   1.063
  247DPPC    C612306   7.310   0.927   1.054
  247DPPC    O712307   7.343   0.862   1.177
  247DPPC    P812308   7.503   0.873   1.187
  247DPPC    O912309   7.521   0.978   1.290
  247DPPC   O1012310   7.570   0.884   1.056
  247DPPC   O1112311   7.529   0.729   1.254
  247DPPC   C1212312   7.518   0.753   1.395
  247DPPC   C1312313   7.526   0.630   1.485
  247DPPC   O1412314   7.489   0.661   1.621
  247DPPC   C1512315   7.358   0.652   1.655
  247DPPC   O1612316   7.261   0.646   1.580
  247DPPC   C1712317   7.336   0.682   1.804
  247DPPC   C1812318   7.418   0.805   1.841
  247DPPC   C1912319   7.403   0.833   1.991
  247DPPC   C2012320   7.488   0.945   2.052
  247DPPC   C2112321   7.441   0.989   2.191
  247DPPC   C2212322   7.436   0.871   2.288
  247DPPC   C2312323   7.356   0.903   2.415
  247DPPC   C2412324   7.414   1.033   2.471
  247DPPC   C2512325   7.414   1.030   2.624
  247DPPC   C2612326   7.481   1.141   2.705
  247DPPC   C2712327   7.474   1.110   2.855
  247DPPC   C2812328   7.555   1.211   2.937
  247DPPC   C2912329   7.520   1.212   3.086
  247DPPC   C3012330   7.589   1.104   3.169
  247DPPC   C3112331   7.564   1.119   3.319
  247DPPC   C3212332   7.673   0.599   1.457
  247DPPC   O3312333   7.763   0.561   1.561
  247DPPC   C3412334   7.736   0.438   1.612
  247DPPC   O3512335   7.678   0.352   1.546
  247DPPC   C3612336   7.798   0.407   1.748
  247DPPC   C3712337   7.758   0.518   1.846
  247DPPC   C3812338   7.857   0.542   1.960
  247DPPC   C3912339   7.800   0.652   2.050
  247DPPC   C4012340   7.876   0.668   2.182
  247DPPC   C4112341   7.830   0.773   2.283
  247DPPC   C4212342   7.911   0.788   2.412
  247DPPC   C4312343   7.875   0.922   2.476
  247DPPC   C4412344   7.937   0.936   2.615
  247DPPC   C4512345   7.921   1.080   2.664
  247DPPC   C4612346   7.975   1.082   2.807
  247DPPC   C4712347   7.955   1.211   2.886
  247DPPC   C4812348   7.987   1.192   3.035
  247DPPC   C4912349   7.941   1.305   3.127
  247DPPC   C5012350   7.981   1.279   3.272
  248DPPC    C112351   6.352   1.213   1.815
  248DPPC    C212352   6.490   1.384   1.926
  248DPPC    C312353   6.263   1.395   1.931
  248DPPC    N412354   6.372   1.296   1.935
  248DPPC    C512355   6.380   1.224   2.063
  248DPPC    C612356   6.274   1.117   2.087
  248DPPC    O712357   6.142   1.161   2.117
  248DPPC    P812358   6.030   1.052   2.077
  248DPPC    O912359   6.050   1.010   1.937
  248DPPC   O1012360   5.903   1.117   2.115
  248DPPC   O1112361   6.064   0.934   2.182
  248DPPC   C1212362   6.040   0.981   2.315
  248DPPC   C1312363   6.091   0.882   2.419
  248DPPC   O1412364   6.013   0.876   2.539
  248DPPC   C1512365   5.888   0.823   2.538
  248DPPC   O1612366   5.834   0.784   2.435
  248DPPC   C1712367   5.819   0.807   2.674
  248DPPC   C1812368   5.740   0.937   2.697
  248DPPC   C1912369   5.658   0.933   2.826
  248DPPC   C2012370   5.741   0.910   2.951
  248DPPC   C2112371   5.668   0.923   3.085
  248DPPC   C2212372   5.757   0.968   3.201
  248DPPC   C2312373   5.701   0.914   3.332
  248DPPC   C2412374   5.784   0.938   3.458
  248DPPC   C2512375   5.706   0.882   3.577
  248DPPC   C2612376   5.792   0.907   3.701
  248DPPC   C2712377   5.707   0.892   3.828
  248DPPC   C2812378   5.592   0.992   3.814
  248DPPC   C2912379   5.503   1.007   3.937
  248DPPC   C3012380   5.445   1.145   3.972
  248DPPC   C3112381   5.356   1.202   3.862
  248DPPC   C3212382   6.242   0.886   2.444
  248DPPC   O3312383   6.282   1.022   2.465
  248DPPC   C3412384   6.409   1.054   2.503
  248DPPC   O3512385   6.512   0.990   2.486
  248DPPC   C3612386   6.406   1.202   2.542
  248DPPC   C3712387   6.527   1.240   2.628
  248DPPC   C3812388   6.539   1.163   2.760
  248DPPC   C3912389   6.576   1.256   2.875
  248DPPC   C4012390   6.575   1.154   2.988
  248DPPC   C4112391   6.638   1.230   3.106
  248DPPC   C4212392   6.605   1.148   3.230
  248DPPC   C4312393   6.665   1.200   3.361
  248DPPC   C4412394   6.708   1.092   3.460
  248DPPC   C4512395   6.811   1.149   3.558
  248DPPC   C4612396   6.853   1.067   3.680
  248DPPC   C4712397   6.974   1.133   3.746
  248DPPC   C4812398   7.057   1.054   3.848
  248DPPC   C4912399   7.135   0.932   3.798
  248DPPC   C5012400   7.198   0.846   3.908
  249DPPC    C112401   1.877   5.538   1.711
  249DPPC    C212402   2.049   5.653   1.588
  249DPPC    C312403   2.039   5.418   1.589
  249DPPC    N412404   1.956   5.539   1.587
  249DPPC    C512405   1.880   5.551   1.461
  249DPPC    C612406   1.821   5.685   1.420
  249DPPC    O712407   1.708   5.732   1.495
  249DPPC    P812408   1.693   5.890   1.466
  249DPPC    O912409   1.552   5.928   1.490
  249DPPC   O1012410   1.790   5.937   1.365
  249DPPC   O1112411   1.765   5.913   1.608
  249DPPC   C1212412   1.682   5.870   1.716
  249DPPC   C1312413   1.757   5.849   1.848
  249DPPC   O1412414   1.668   5.840   1.961
  249DPPC   C1512415   1.603   5.722   1.977
  249DPPC   O1612416   1.624   5.631   1.897
  249DPPC   C1712417   1.515   5.696   2.100
  249DPPC   C1812418   1.594   5.691   2.231
  249DPPC   C1912419   1.666   5.556   2.243
  249DPPC   C2012420   1.748   5.567   2.371
  249DPPC   C2112421   1.651   5.592   2.488
  249DPPC   C2212422   1.715   5.600   2.627
  249DPPC   C2312423   1.777   5.469   2.677
  249DPPC   C2412424   1.848   5.504   2.808
  249DPPC   C2512425   1.943   5.394   2.855
  249DPPC   C2612426   1.985   5.428   2.998
  249DPPC   C2712427   2.011   5.304   3.084
  249DPPC   C2812428   2.018   5.349   3.231
  249DPPC   C2912429   2.006   5.222   3.315
  249DPPC   C3012430   1.869   5.155   3.325
  249DPPC   C3112431   1.872   5.009   3.372
  249DPPC   C3212432   1.852   5.969   1.856
  249DPPC   O3312433   1.953   5.976   1.957
  249DPPC   C3412434   2.045   5.876   1.962
  249DPPC   O3512435   2.056   5.788   1.876
  249DPPC   C3612436   2.148   5.885   2.075
  249DPPC   C3712437   2.109   5.785   2.184
  249DPPC   C3812438   2.214   5.750   2.288
  249DPPC   C3912439   2.158   5.677   2.411
  249DPPC   C4012440   2.263   5.688   2.522
  249DPPC   C4112441   2.201   5.616   2.642
  249DPPC   C4212442   2.308   5.602   2.751
  249DPPC   C4312443   2.360   5.739   2.793
  249DPPC   C4412444   2.265   5.812   2.889
  249DPPC   C4512445   2.302   5.776   3.033
  249DPPC   C4612446   2.445   5.792   3.086
  249DPPC   C4712447   2.448   5.809   3.238
  249DPPC   C4812448   2.594   5.818   3.281
  249DPPC   C4912449   2.621   5.850   3.428
  249DPPC   C5012450   2.522   5.765   3.507
  250DPPC    C112451   8.739   8.062   1.207
  250DPPC    C212452   8.927   8.116   1.338
  250DPPC    C312453   8.969   8.087   1.110
  250DPPC    N412454   8.867   8.135   1.205
  250DPPC    C512455   8.858   8.276   1.165
  250DPPC    C612456   8.843   8.392   1.263
  250DPPC    O712457   8.962   8.413   1.340
  250DPPC    P812458   8.931   8.504   1.469
  250DPPC    O912459   8.867   8.625   1.413
  250DPPC   O1012460   9.068   8.510   1.526
  250DPPC   O1112461   8.829   8.388   1.514
  250DPPC   C1212462   8.765   8.422   1.637
  250DPPC   C1312463   8.706   8.308   1.720
  250DPPC   O1412464   8.620   8.351   1.826
  250DPPC   C1512465   8.490   8.310   1.825
  250DPPC   O1612466   8.444   8.240   1.735
  250DPPC   C1712467   8.398   8.364   1.934
  250DPPC   C1812468   8.394   8.276   2.059
  250DPPC   C1912469   8.343   8.365   2.173
  250DPPC   C2012470   8.333   8.285   2.303
  250DPPC   C2112471   8.221   8.183   2.291
  250DPPC   C2212472   8.194   8.135   2.434
  250DPPC   C2312473   8.087   8.027   2.418
  250DPPC   C2412474   8.063   7.944   2.543
  250DPPC   C2512475   7.936   7.858   2.536
  250DPPC   C2612476   7.901   7.797   2.671
  250DPPC   C2712477   7.766   7.724   2.666
  250DPPC   C2812478   7.763   7.653   2.802
  250DPPC   C2912479   7.801   7.745   2.918
  250DPPC   C3012480   7.814   7.653   3.040
  250DPPC   C3112481   7.855   7.751   3.150
  250DPPC   C3212482   8.823   8.213   1.750
  250DPPC   O3312483   8.925   8.285   1.819
  250DPPC   C3412484   9.030   8.207   1.858
  250DPPC   O3512485   9.035   8.088   1.827
  250DPPC   C3612486   9.139   8.264   1.949
  250DPPC   C3712487   9.081   8.282   2.090
  250DPPC   C3812488   9.173   8.371   2.173
  250DPPC   C3912489   9.113   8.388   2.313
  250DPPC   C4012490   9.216   8.456   2.402
  250DPPC   C4112491   9.172   8.458   2.549
  250DPPC   C4212492   9.275   8.526   2.639
  250DPPC   C4312493   9.405   8.446   2.641
  250DPPC   C4412494   9.403   8.305   2.702
  250DPPC   C4512495   9.546   8.250   2.701
  250DPPC   C4612496   9.569   8.184   2.566
  250DPPC   C4712497   9.708   8.121   2.564
  250DPPC   C4812498   9.739   8.059   2.427
  250DPPC   C4912499   9.885   8.013   2.418
  250DPPC   C5012500   9.922   7.916   2.530
  251DPPC    C112501   6.564   5.633   1.582
  251DPPC    C212502   6.783   5.620   1.495
  251DPPC    C312503   6.630   5.775   1.404
  251DPPC    N412504   6.675   5.714   1.529
  251DPPC    C512505   6.718   5.815   1.627
  251DPPC    C612506   6.634   5.938   1.662
  251DPPC    O712507   6.518   5.911   1.742
  251DPPC    P812508   6.439   6.028   1.820
  251DPPC    O912509   6.334   5.946   1.884
  251DPPC   O1012510   6.403   6.137   1.727
  251DPPC   O1112511   6.543   6.087   1.928
  251DPPC   C1212512   6.590   5.968   1.991
  251DPPC   C1312513   6.682   5.998   2.110
  251DPPC   O1412514   6.742   5.877   2.157
  251DPPC   C1512515   6.877   5.866   2.152
  251DPPC   O1612516   6.946   5.915   2.062
  251DPPC   C1712517   6.932   5.762   2.250
  251DPPC   C1812518   6.978   5.833   2.377
  251DPPC   C1912519   7.033   5.733   2.479
  251DPPC   C2012520   7.155   5.659   2.423
  251DPPC   C2112521   7.268   5.757   2.395
  251DPPC   C2212522   7.388   5.681   2.337
  251DPPC   C2312523   7.519   5.755   2.310
  251DPPC   C2412524   7.620   5.655   2.253
  251DPPC   C2512525   7.757   5.723   2.254
  251DPPC   C2612526   7.836   5.654   2.365
  251DPPC   C2712527   7.962   5.741   2.375
  251DPPC   C2812528   8.052   5.747   2.252
  251DPPC   C2912529   8.182   5.818   2.289
  251DPPC   C3012530   8.282   5.827   2.174
  251DPPC   C3112531   8.419   5.864   2.231
  251DPPC   C3212532   6.604   6.089   2.205
  251DPPC   O3312533   6.690   6.179   2.275
  251DPPC   C3412534   6.616   6.264   2.352
  251DPPC   O3512535   6.494   6.267   2.339
  251DPPC   C3612536   6.681   6.360   2.451
  251DPPC   C3712537   6.585   6.367   2.570
  251DPPC   C3812538   6.659   6.441   2.683
  251DPPC   C3912539   6.605   6.406   2.822
  251DPPC   C4012540   6.646   6.502   2.934
  251DPPC   C4112541   6.607   6.435   3.066
  251DPPC   C4212542   6.649   6.528   3.181
  251DPPC   C4312543   6.635   6.469   3.321
  251DPPC   C4412544   6.496   6.410   3.344
  251DPPC   C4512545   6.475   6.360   3.488
  251DPPC   C4612546   6.492   6.490   3.567
  251DPPC   C4712547   6.494   6.463   3.718
  251DPPC   C4812548   6.355   6.449   3.779
  251DPPC   C4912549   6.282   6.584   3.776
  251DPPC   C5012550   6.138   6.580   3.827
  252DPPC    C112551   4.473   2.536   1.822
  252DPPC    C212552   4.670   2.561   1.969
  252DPPC    C312553   4.478   2.675   2.006
  252DPPC    N412554   4.524   2.544   1.959
  252DPPC    C512555   4.474   2.420   2.021
  252DPPC    C612556   4.328   2.381   2.045
  252DPPC    O712557   4.256   2.482   2.115
  252DPPC    P812558   4.122   2.415   2.175
  252DPPC    O912559   4.164   2.299   2.257
  252DPPC   O1012560   4.032   2.397   2.059
  252DPPC   O1112561   4.084   2.541   2.266
  252DPPC   C1212562   4.184   2.559   2.367
  252DPPC   C1312563   4.245   2.699   2.369
  252DPPC   O1412564   4.355   2.718   2.460
  252DPPC   C1512565   4.466   2.793   2.439
  252DPPC   O1612566   4.484   2.861   2.338
  252DPPC   C1712567   4.557   2.797   2.562
  252DPPC   C1812568   4.646   2.673   2.569
  252DPPC   C1912569   4.701   2.662   2.711
  252DPPC   C2012570   4.807   2.553   2.731
  252DPPC   C2112571   4.830   2.516   2.878
  252DPPC   C2212572   4.872   2.371   2.901
  252DPPC   C2312573   4.872   2.343   3.052
  252DPPC   C2412574   4.917   2.199   3.073
  252DPPC   C2512575   4.964   2.162   3.214
  252DPPC   C2612576   5.018   2.020   3.227
  252DPPC   C2712577   4.903   1.928   3.188
  252DPPC   C2812578   4.948   1.790   3.138
  252DPPC   C2912579   5.063   1.801   3.038
  252DPPC   C3012580   5.151   1.676   3.024
  252DPPC   C3112581   5.281   1.708   2.950
  252DPPC   C3212582   4.131   2.799   2.392
  252DPPC   O3312583   4.049   2.779   2.507
  252DPPC   C3412584   3.941   2.861   2.503
  252DPPC   O3512585   3.918   2.924   2.400
  252DPPC   C3612586   3.857   2.871   2.631
  252DPPC   C3712587   3.744   2.769   2.614
  252DPPC   C3812588   3.643   2.764   2.729
  252DPPC   C3912589   3.722   2.722   2.853
  252DPPC   C4012590   3.637   2.716   2.980
  252DPPC   C4112591   3.714   2.650   3.094
  252DPPC   C4212592   3.761   2.506   3.070
  252DPPC   C4312593   3.845   2.455   3.188
  252DPPC   C4412594   3.895   2.315   3.151
  252DPPC   C4512595   4.040   2.302   3.198
  252DPPC   C4612596   4.105   2.165   3.180
  252DPPC   C4712597   4.110   2.130   3.031
  252DPPC   C4812598   4.192   2.001   3.028
  252DPPC   C4912599   4.116   1.904   3.120
  252DPPC   C5012600   4.168   1.760   3.114
  253DPPC    C112601   3.820   7.474   1.868
  253DPPC    C212602   3.791   7.706   1.816
  253DPPC    C312603   3.613   7.544   1.769
  253DPPC    N412604   3.722   7.583   1.859
  253DPPC    C512605   3.663   7.597   1.993
  253DPPC    C612606   3.743   7.612   2.123
  253DPPC    O712607   3.800   7.738   2.161
  253DPPC    P812608   3.957   7.726   2.194
  253DPPC    O912609   4.028   7.855   2.184
  253DPPC   O1012610   4.009   7.622   2.102
  253DPPC   O1112611   3.950   7.679   2.348
  253DPPC   C1212612   3.876   7.774   2.425
  253DPPC   C1312613   3.799   7.705   2.538
  253DPPC   O1412614   3.703   7.782   2.612
  253DPPC   C1512615   3.572   7.783   2.573
  253DPPC   O1612616   3.536   7.723   2.472
  253DPPC   C1712617   3.474   7.858   2.663
  253DPPC   C1812618   3.330   7.818   2.632
  253DPPC   C1912619   3.243   7.902   2.727
  253DPPC   C2012620   3.099   7.854   2.745
  253DPPC   C2112621   3.056   7.916   2.877
  253DPPC   C2212622   2.917   7.861   2.912
  253DPPC   C2312623   2.868   7.943   3.031
  253DPPC   C2412624   2.717   7.945   3.054
  253DPPC   C2512625   2.674   8.000   3.190
  253DPPC   C2612626   2.529   7.965   3.227
  253DPPC   C2712627   2.432   8.035   3.131
  253DPPC   C2812628   2.379   8.174   3.167
  253DPPC   C2912629   2.308   8.236   3.046
  253DPPC   C3012630   2.263   8.372   3.100
  253DPPC   C3112631   2.182   8.466   3.012
  253DPPC   C3212632   3.906   7.643   2.627
  253DPPC   O3312633   4.009   7.718   2.692
  253DPPC   C3412634   4.108   7.652   2.757
  253DPPC   O3512635   4.104   7.529   2.766
  253DPPC   C3612636   4.228   7.732   2.809
  253DPPC   C3712637   4.217   7.794   2.949
  253DPPC   C3812638   4.346   7.872   2.969
  253DPPC   C3912639   4.358   8.009   2.901
  253DPPC   C4012640   4.486   8.081   2.946
  253DPPC   C4112641   4.612   7.995   2.934
  253DPPC   C4212642   4.719   8.051   3.028
  253DPPC   C4312643   4.822   7.939   3.039
  253DPPC   C4412644   4.935   7.990   3.130
  253DPPC   C4512645   5.062   7.910   3.101
  253DPPC   C4612646   5.176   7.956   3.191
  253DPPC   C4712647   5.295   7.865   3.160
  253DPPC   C4812648   5.404   7.893   3.263
  253DPPC   C4912649   5.521   7.795   3.283
  253DPPC   C5012650   5.610   7.822   3.404
  254DPPC    C112651   3.123   1.394   2.513
  254DPPC    C212652   3.030   1.614   2.494
  254DPPC    C312653   3.145   1.511   2.317
  254DPPC    N412654   3.048   1.486   2.424
  254DPPC    C512655   2.925   1.424   2.372
  254DPPC    C612656   2.848   1.480   2.252
  254DPPC    O712657   2.713   1.514   2.283
  254DPPC    P812658   2.663   1.584   2.147
  254DPPC    O912659   2.720   1.505   2.036
  254DPPC   O1012660   2.689   1.727   2.177
  254DPPC   O1112661   2.515   1.550   2.199
  254DPPC   C1212662   2.470   1.644   2.298
  254DPPC   C1312663   2.324   1.642   2.343
  254DPPC   O1412664   2.280   1.726   2.450
  254DPPC   C1512665   2.300   1.860   2.441
  254DPPC   O1612666   2.349   1.925   2.349
  254DPPC   C1712667   2.240   1.937   2.559
  254DPPC   C1812668   2.346   2.001   2.649
  254DPPC   C1912669   2.282   2.044   2.781
  254DPPC   C2012670   2.397   2.077   2.875
  254DPPC   C2112671   2.342   2.157   2.993
  254DPPC   C2212672   2.421   2.123   3.119
  254DPPC   C2312673   2.430   1.979   3.169
  254DPPC   C2412674   2.320   1.939   3.268
  254DPPC   C2512675   2.345   1.797   3.320
  254DPPC   C2612676   2.237   1.769   3.424
  254DPPC   C2712677   2.244   1.638   3.502
  254DPPC   C2812678   2.381   1.648   3.571
  254DPPC   C2912679   2.414   1.524   3.655
  254DPPC   C3012680   2.300   1.487   3.751
  254DPPC   C3112681   2.356   1.378   3.842
  254DPPC   C3212682   2.308   1.491   2.367
  254DPPC   O3312683   2.378   1.440   2.481
  254DPPC   C3412684   2.404   1.307   2.473
  254DPPC   O3512685   2.366   1.240   2.377
  254DPPC   C3612686   2.489   1.252   2.588
  254DPPC   C3712687   2.408   1.155   2.674
  254DPPC   C3812688   2.502   1.096   2.779
  254DPPC   C3912689   2.435   0.994   2.870
  254DPPC   C4012690   2.538   0.943   2.971
  254DPPC   C4112691   2.485   0.829   3.058
  254DPPC   C4212692   2.610   0.759   3.110
  254DPPC   C4312693   2.694   0.825   3.219
  254DPPC   C4412694   2.797   0.721   3.263
  254DPPC   C4512695   2.871   0.754   3.393
  254DPPC   C4612696   2.784   0.763   3.519
  254DPPC   C4712697   2.877   0.753   3.641
  254DPPC   C4812698   2.806   0.740   3.776
  254DPPC   C4912699   2.908   0.729   3.889
  254DPPC   C5012700   2.860   0.790   4.021
  255DPPC    C112701   1.551   7.628   1.832
  255DPPC    C212702   1.559   7.399   1.757
  255DPPC    C312703   1.395   7.536   1.676
  255DPPC    N412704   1.536   7.538   1.717
  255DPPC    C512705   1.618   7.588   1.606
  255DPPC    C612706   1.770   7.602   1.609
  255DPPC    O712707   1.860   7.491   1.606
  255DPPC    P812708   2.015   7.529   1.586
  255DPPC    O912709   2.019   7.650   1.502
  255DPPC   O1012710   2.084   7.402   1.553
  255DPPC   O1112711   2.024   7.556   1.745
  255DPPC   C1212712   2.008   7.429   1.810
  255DPPC   C1312713   2.027   7.431   1.961
  255DPPC   O1412714   2.035   7.301   2.020
  255DPPC   C1512715   2.160   7.248   2.034
  255DPPC   O1612716   2.260   7.292   1.979
  255DPPC   C1712717   2.169   7.115   2.110
  255DPPC   C1812718   2.054   7.074   2.201
  255DPPC   C1912719   2.094   6.960   2.295
  255DPPC   C2012720   1.971   6.896   2.360
  255DPPC   C2112721   1.900   6.802   2.262
  255DPPC   C2212722   1.771   6.745   2.320
  255DPPC   C2312723   1.792   6.643   2.433
  255DPPC   C2412724   1.662   6.619   2.511
  255DPPC   C2512725   1.693   6.495   2.595
  255DPPC   C2612726   1.584   6.467   2.698
  255DPPC   C2712727   1.593   6.319   2.737
  255DPPC   C2812728   1.475   6.279   2.826
  255DPPC   C2912729   1.481   6.362   2.954
  255DPPC   C3012730   1.406   6.270   3.050
  255DPPC   C3112731   1.471   6.136   3.084
  255DPPC   C3212732   1.921   7.531   2.009
  255DPPC   O3312733   1.929   7.597   2.136
  255DPPC   C3412734   1.807   7.646   2.171
  255DPPC   O3512735   1.712   7.629   2.095
  255DPPC   C3612736   1.774   7.697   2.311
  255DPPC   C3712737   1.846   7.829   2.336
  255DPPC   C3812738   1.802   7.887   2.470
  255DPPC   C3912739   1.872   8.020   2.499
  255DPPC   C4012740   1.836   8.054   2.644
  255DPPC   C4112741   1.893   8.194   2.667
  255DPPC   C4212742   1.870   8.246   2.809
  255DPPC   C4312743   1.961   8.164   2.901
  255DPPC   C4412744   1.886   8.098   3.017
  255DPPC   C4512745   1.995   8.017   3.088
  255DPPC   C4612746   1.945   7.955   3.218
  255DPPC   C4712747   2.046   7.862   3.285
  255DPPC   C4812748   2.012   7.715   3.260
  255DPPC   C4912749   2.121   7.630   3.325
  255DPPC   C5012750   2.116   7.659   3.475
  256DPPC    C112751   2.747   6.670   1.864
  256DPPC    C212752   2.709   6.444   1.914
  256DPPC    C312753   2.598   6.558   1.726
  256DPPC    N412754   2.722   6.539   1.803
  256DPPC    C512755   2.833   6.512   1.711
  256DPPC    C612756   2.874   6.365   1.701
  256DPPC    O712757   2.774   6.293   1.628
  256DPPC    P812758   2.820   6.140   1.613
  256DPPC    O912759   2.967   6.147   1.598
  256DPPC   O1012760   2.722   6.097   1.511
  256DPPC   O1112761   2.767   6.104   1.761
  256DPPC   C1212762   2.627   6.097   1.735
  256DPPC   C1312763   2.549   6.044   1.856
  256DPPC   O1412764   2.503   6.147   1.945
  256DPPC   C1512765   2.378   6.198   1.933
  256DPPC   O1612766   2.311   6.191   1.830
  256DPPC   C1712767   2.345   6.302   2.040
  256DPPC   C1812768   2.270   6.229   2.152
  256DPPC   C1912769   2.224   6.344   2.242
  256DPPC   C2012770   2.140   6.278   2.352
  256DPPC   C2112771   2.117   6.383   2.460
  256DPPC   C2212772   2.235   6.443   2.537
  256DPPC   C2312773   2.184   6.527   2.654
  256DPPC   C2412774   2.145   6.664   2.597
  256DPPC   C2512775   2.099   6.742   2.721
  256DPPC   C2612776   1.991   6.674   2.805
  256DPPC   C2712777   1.961   6.732   2.943
  256DPPC   C2812778   1.833   6.674   3.002
  256DPPC   C2912779   1.860   6.529   3.044
  256DPPC   C3012780   1.761   6.488   3.153
  256DPPC   C3112781   1.816   6.359   3.215
  256DPPC   C3212782   2.633   5.928   1.909
  256DPPC   O3312783   2.576   5.844   2.009
  256DPPC   C3412784   2.650   5.739   2.055
  256DPPC   O3512785   2.769   5.727   2.028
  256DPPC   C3612786   2.561   5.635   2.124
  256DPPC   C3712787   2.632   5.572   2.245
  256DPPC   C3812788   2.538   5.509   2.347
  256DPPC   C3912789   2.491   5.373   2.294
  256DPPC   C4012790   2.384   5.319   2.389
  256DPPC   C4112791   2.452   5.301   2.525
  256DPPC   C4212792   2.338   5.270   2.623
  256DPPC   C4312793   2.269   5.141   2.579
  256DPPC   C4412794   2.165   5.086   2.676
  256DPPC   C4512795   2.115   4.948   2.630
  256DPPC   C4612796   2.001   4.908   2.723
  256DPPC   C4712797   2.049   4.898   2.868
  256DPPC   C4812798   1.927   4.894   2.961
  256DPPC   C4912799   1.916   4.748   3.006
  256DPPC   C5012800   1.792   4.740   3.095
  257SOL     OW12801   9.589   0.674   5.985
  257SOL    HW112802   9.520   0.631   5.926
  257SOL    HW212803   9.550   0.690   6.075
  258SOL     OW12804   6.228   8.136   1.290
  258SOL    HW112805   6.327   8.128   1.305
  258SOL    HW212806   6.198   8.228   1.315
  259SOL     OW12807   3.773   2.382   0.804
  259SOL    HW112808   3.743   2.446   0.875
  259SOL    HW212809   3.871   2.368   0.812
  260SOL     OW12810   6.349   1.305   0.755
  260SOL    HW112811   6.375   1.355   0.838
  260SOL    HW212812   6.276   1.354   0.709
  261SOL     OW12813   2.918   0.358   6.525
  261SOL    HW112814   2.995   0.422   6.514
  261SOL    HW212815   2.840   0.407   6.564
  262SOL     OW12816   1.010   5.497   4.570
  262SOL    HW112817   0.944   5.428   4.542
  262SOL    HW212818   1.102   5.457   4.574
  263SOL     OW12819   0.726   3.949   6.708
  263SOL    HW112820   0.729   3.850   6.719
  263SOL    HW212821   0.783   3.976   6.629
  264SOL     OW12822   4.311   5.130   2.107
  264SOL    HW112823   4.348   5.091   2.192
  264SOL    HW212824   4.212   5.119   2.105
  265SOL     OW12825   3.498   1.439   2.006
  265SOL    HW112826   3.443   1.417   2.086
  265SOL    HW212827   3.580   1.383   2.004
  266SOL     OW12828   4.147   7.382   2.057
  266SOL    HW112829   4.106   7.474   2.054
  266SOL    HW212830   4.075   7.314   2.070
  267SOL     OW12831   8.385   3.099   5.622
  267SOL    HW112832   8.386   3.160   5.543
  267SOL    HW212833   8.303   3.043   5.620
  268SOL     OW12834   3.520   1.466   0.551
  268SOL    HW112835   3.504   1.545   0.491
  268SOL    HW212836   3.471   1.478   0.637
  269SOL     OW12837   6.597   0.376   1.203
  269SOL    HW112838   6.604   0.286   1.160
  269SOL    HW212839   6.525   0.429   1.159
  270SOL     OW12840   4.544   2.606   1.445
  270SOL    HW112841   4.498   2.679   1.496
  270SOL    HW212842   4.629   2.582   1.492
  271SOL     OW12843   7.586   7.602   5.049
  271SOL    HW112844   7.644   7.655   5.111
  271SOL    HW212845   7.592   7.641   4.957
  272SOL     OW12846   2.522   6.580   6.966
  272SOL    HW112847   2.584   6.625   6.901
  272SOL    HW212848   2.468   6.649   7.014
  273SOL     OW12849   9.000   6.706   0.296
  273SOL    HW112850   9.049   6.790   0.273
  273SOL    HW212851   8.987   6.651   0.214
  274SOL     OW12852   1.348   4.366   6.647
  274SOL    HW112853   1.415   4.291   6.640
  274SOL    HW212854   1.333   4.388   6.743
  275SOL     OW12855   5.900   3.019   1.441
  275SOL    HW112856   5.903   3.118   1.459
  275SOL    HW212857   5.960   2.998   1.364
  276SOL     OW12858   1.125   6.706   6.404
  276SOL    HW112859   1.044   6.754   6.368
  276SOL    HW212860   1.183   6.771   6.453
  277SOL     OW12861   5.767   5.710   5.997
  277SOL    HW112862   5.841   5.750   6.051
  277SOL    HW212863   5.703   5.782   5.970
  278SOL     OW12864   5.662   7.302   6.354
  278SOL    HW112865   5.707   7.223   6.395
  278SOL    HW212866   5.669   7.297   6.254
  279SOL     OW12867   6.054   0.482   1.853
  279SOL    HW112868   6.066   0.581   1.854
  279SOL    HW212869   6.040   0.449   1.946
  280SOL     OW12870   3.885   2.772   5.480
  280SOL    HW112871   3.921   2.821   5.559
  280SOL    HW212872   3.946   2.784   5.402
  281SOL     OW12873   3.095   6.532   5.060
  281SOL    HW112874   3.174   6.590   5.082
  281SOL    HW212875   3.012   6.588   5.059
  282SOL     OW12876   1.773   3.678   6.834
  282SOL    HW112877   1.676   3.662   6.849
  282SOL    HW212878   1.795   3.660   6.738
  283SOL     OW12879   8.251   8.025   5.980
  283SOL    HW112880   8.301   8.085   6.044
  283SOL    HW212881   8.206   8.081   5.910
  284SOL     OW12882   2.496   1.408   6.968
  284SOL    HW112883   2.537   1.441   7.054
  284SOL    HW212884   2.475   1.486   6.909
  285SOL     OW12885   4.141   0.977   1.225
  285SOL    HW112886   4.095   0.924   1.154
  285SOL    HW212887   4.178   1.061   1.185
  286SOL     OW12888   6.971   7.096   1.696
  286SOL    HW112889   7.046   7.031   1.687
  286SOL    HW212890   6.938   7.096   1.790
  287SOL     OW12891   3.098   6.891   0.556
  287SOL    HW112892   3.065   6.897   0.461
  287SOL    HW212893   3.195   6.867   0.556
  288SOL     OW12894   8.903   6.443   0.855
  288SOL    HW112895   8.832   6.489   0.908
  288SOL    HW212896   8.925   6.355   0.898
  289SOL     OW12897   6.639   6.385   6.526
  289SOL    HW112898   6.603   6.376   6.433
  289SOL    HW212899   6.728   6.431   6.523
  290SOL     OW12900   0.820   2.499   1.008
  290SOL    HW112901   0.847   2.567   0.940
  290SOL    HW212902   0.842   2.532   1.100
  291SOL     OW12903   3.054   1.211   1.509
  291SOL    HW112904   2.982   1.167   1.456
  291SOL    HW212905   3.142   1.195   1.465
  292SOL     OW12906   7.299   6.410   6.292
  292SOL    HW112907   7.212   6.365   6.271
  292SOL    HW212908   7.370   6.341   6.307
  293SOL     OW12909   6.674   6.842   5.726
  293SOL    HW112910   6.734   6.835   5.807
  293SOL    HW212911   6.730   6.834   5.643
  294SOL     OW12912   5.629   0.885   0.405
  294SOL    HW112913   5.717   0.841   0.388
  294SOL    HW212914   5.557   0.833   0.359
  295SOL     OW12915   4.603   4.249   2.132
  295SOL    HW112916   4.591   4.304   2.049
  295SOL    HW212917   4.700   4.245   2.155
  296SOL     OW12918   8.718   6.009   6.499
  296SOL    HW112919   8.761   6.033   6.412
  296SOL    HW212920   8.626   5.974   6.481
  297SOL     OW12921   6.910   1.032   6.941
  297SOL    HW112922   6.931   0.985   6.856
  297SOL    HW212923   6.985   1.020   7.006
  298SOL     OW12924   4.327   0.333   5.889
  298SOL    HW112925   4.421   0.310   5.913
  298SOL    HW212926   4.319   0.431   5.872
  299SOL     OW12927   1.013   8.245   6.955
  299SOL    HW112928   0.977   8.155   6.978
  299SOL    HW212929   0.986   8.311   7.025
  300SOL     OW12930   3.222   0.357   5.296
  300SOL    HW112931   3.130   0.368   5.259
  300SOL    HW212932   3.218   0.307   5.382
  301SOL     OW12933   4.294   6.936   5.836
  301SOL    HW112934   4.262   6.848   5.870
  301SOL    HW212935   4.230   6.971   5.768
  302SOL     OW12936   2.588   3.521   1.162
  302SOL    HW112937   2.681   3.504   1.192
  302SOL    HW212938   2.559   3.612   1.193
  303SOL     OW12939   4.733   1.387   1.617
  303SOL    HW112940   4.783   1.303   1.597
  303SOL    HW212941   4.720   1.395   1.715
  304SOL     OW12942   6.477   3.298   0.477
  304SOL    HW112943   6.565   3.309   0.430
  304SOL    HW212944   6.487   3.329   0.572
  305SOL     OW12945   8.048   4.539   5.488
  305SOL    HW112946   7.949   4.528   5.497
  305SOL    HW212947   8.086   4.461   5.437
  306SOL     OW12948   1.551   0.874   5.653
  306SOL    HW112949   1.456   0.848   5.668
  306SOL    HW212950   1.609   0.793   5.655
  307SOL     OW12951   3.072   6.196   6.459
  307SOL    HW112952   3.106   6.276   6.508
  307SOL    HW212953   3.011   6.224   6.385
  308SOL     OW12954   1.748   4.204   0.855
  308SOL    HW112955   1.669   4.215   0.795
  308SOL    HW212956   1.718   4.168   0.944
  309SOL     OW12957   4.417   0.051   6.775
  309SOL    HW112958   4.472   0.134   6.764
  309SOL    HW212959   4.353   0.043   6.699
  310SOL     OW12960   6.986   1.276   6.564
  310SOL    HW112961   6.972   1.359   6.509
  310SOL    HW212962   6.946   1.198   6.518
  311SOL     OW12963   6.886   2.724   1.974
  311SOL    HW112964   6.861   2.799   2.034
  311SOL    HW212965   6.966   2.750   1.919
  312SOL     OW12966   7.632   7.564   1.267
  312SOL    HW112967   7.707   7.563   1.201
  312SOL    HW212968   7.545   7.547   1.219
  313SOL     OW12969   1.039  -0.023   1.273
  313SOL    HW112970   1.035  -0.106   1.329
  313SOL    HW212971   1.017  -0.046   1.178
  314SOL     OW12972   3.188   8.403   2.199
  314SOL    HW112973   3.227   8.490   2.227
  314SOL    HW212974   3.090   8.402   2.217
  315SOL     OW12975   0.381   3.647   1.291
  315SOL    HW112976   0.409   3.689   1.378
  315SOL    HW212977   0.458   3.647   1.227
  316SOL     OW12978   7.148   3.155   0.588
  316SOL    HW112979   7.155   3.072   0.643
  316SOL    HW212980   7.103   3.227   0.641
  317SOL     OW12981   1.885   0.510   1.167
  317SOL    HW112982   1.936   0.587   1.128
  317SOL    HW212983   1.880   0.435   1.101
  318SOL     OW12984   0.245   3.053   0.558
  318SOL    HW112985   0.260   2.954   0.564
  318SOL    HW212986   0.147   3.073   0.558
  319SOL     OW12987   4.037   6.083   6.192
  319SOL    HW112988   4.000   6.006   6.245
  319SOL    HW212989   3.961   6.136   6.154
  320SOL     OW12990   2.464   6.007   6.425
  320SOL    HW112991   2.448   5.983   6.521
  320SOL    HW212992   2.377   6.033   6.383
  321SOL     OW12993   1.569   4.104   0.459
  321SOL    HW112994   1.611   4.183   0.414
  321SOL    HW212995   1.638   4.032   0.471
  322SOL     OW12996   7.816   3.255   6.341
  322SOL    HW112997   7.768   3.312   6.275
  322SOL    HW212998   7.837   3.310   6.423
  323SOL     OW12999   7.838   5.994   6.494
  323SOL    HW113000   7.768   5.996   6.565
  323SOL    HW213001   7.904   5.922   6.515
  324SOL     OW13002   7.286   1.471   1.470
  324SOL    HW113003   7.292   1.373   1.453
  324SOL    HW213004   7.330   1.493   1.557
  325SOL     OW13005   6.536   3.357   1.474
  325SOL    HW113006   6.615   3.311   1.513
  325SOL    HW213007   6.480   3.291   1.424
  326SOL     OW13008   3.476   0.959   1.205
  326SOL    HW113009   3.382   0.970   1.172
  326SOL    HW213010   3.530   1.039   1.180
  327SOL     OW13011   4.229   8.321   6.386
  327SOL    HW113012   4.291   8.245   6.367
  327SOL    HW213013   4.139   8.302   6.347
  328SOL     OW13014   3.039   6.203   6.892
  328SOL    HW113015   2.984   6.184   6.811
  328SOL    HW213016   3.131   6.228   6.864
  329SOL     OW13017   0.615   4.532   6.898
  329SOL    HW113018   0.595   4.438   6.928
  329SOL    HW213019   0.703   4.534   6.851
  330SOL     OW13020   2.630   3.206   5.779
  330SOL    HW113021   2.689   3.136   5.820
  330SOL    HW213022   2.635   3.201   5.680
  331SOL     OW13023   6.117   6.440   5.526
  331SOL    HW113024   6.202   6.441   5.473
  331SOL    HW213025   6.042   6.475   5.469
  332SOL     OW13026   5.435   2.507   1.615
  332SOL    HW113027   5.476   2.417   1.601
  332SOL    HW213028   5.358   2.518   1.552
  333SOL     OW13029   9.120   3.903   1.190
  333SOL    HW113030   9.215   3.875   1.176
  333SOL    HW213031   9.117   3.994   1.232
  334SOL     OW13032   0.381   3.145   5.717
  334SOL    HW113033   0.436   3.145   5.633
  334SOL    HW213034   0.298   3.200   5.702
  335SOL     OW13035   7.151   4.407   6.568
  335SOL    HW113036   7.065   4.359   6.582
  335SOL    HW213037   7.219   4.344   6.530
  336SOL     OW13038   1.072   7.974   1.683
  336SOL    HW113039   1.115   8.063   1.696
  336SOL    HW213040   0.978   7.977   1.717
  337SOL     OW13041   0.634   1.236   4.924
  337SOL    HW113042   0.575   1.317   4.919
  337SOL    HW213043   0.579   1.155   4.943
  338SOL     OW13044   4.661   5.820   6.895
  338SOL    HW113045   4.748   5.869   6.888
  338SOL    HW213046   4.678   5.728   6.930
  339SOL     OW13047   0.286   4.107   6.789
  339SOL    HW113048   0.258   4.014   6.813
  339SOL    HW213049   0.212   4.153   6.740
  340SOL     OW13050   7.614   6.261   6.963
  340SOL    HW113051   7.570   6.351   6.962
  340SOL    HW213052   7.693   6.262   6.901
  341SOL     OW13053   3.475   6.284   6.651
  341SOL    HW113054   3.531   6.226   6.591
  341SOL    HW213055   3.421   6.347   6.595
  342SOL     OW13056   6.531   3.675   6.845
  342SOL    HW113057   6.467   3.751   6.836
  342SOL    HW213058   6.624   3.707   6.825
  343SOL     OW13059   7.778   0.615   6.026
  343SOL    HW113060   7.852   0.574   5.973
  343SOL    HW213061   7.712   0.657   5.963
  344SOL     OW13062   7.927   7.401   5.161
  344SOL    HW113063   7.966   7.414   5.252
  344SOL    HW213064   7.827   7.408   5.166
  345SOL     OW13065   4.029   5.910   1.007
  345SOL    HW113066   3.962   5.951   0.945
  345SOL    HW213067   4.115   5.895   0.959
  346SOL     OW13068   2.508   1.374   0.619
  346SOL    HW113069   2.504   1.470   0.646
  346SOL    HW213070   2.437   1.322   0.667
  347SOL     OW13071   6.528   1.810   5.982
  347SOL    HW113072   6.533   1.895   5.929
  347SOL    HW213073   6.455   1.753   5.944
  348SOL     OW13074   5.223   0.353   6.532
  348SOL    HW113075   5.316   0.377   6.505
  348SOL    HW213076   5.198   0.404   6.615
  349SOL     OW13077   7.529   3.522   1.041
  349SOL    HW113078   7.523   3.620   1.054
  349SOL    HW213079   7.563   3.478   1.124
  350SOL     OW13080   0.389   3.205   6.448
  350SOL    HW113081   0.332   3.123   6.440
  350SOL    HW213082   0.338   3.283   6.412
  351SOL     OW13083   2.509  -0.049   6.138
  351SOL    HW113084   2.444   0.027   6.128
  351SOL    HW213085   2.494  -0.115   6.065
  352SOL     OW13086   3.386   3.477   0.395
  352SOL    HW113087   3.362   3.543   0.325
  352SOL    HW213088   3.486   3.468   0.400
  353SOL     OW13089   7.337   5.890   5.745
  353SOL    HW113090   7.343   5.812   5.683
  353SOL    HW213091   7.256   5.945   5.722
  354SOL     OW13092   7.610   3.730   6.597
  354SOL    HW113093   7.683   3.708   6.662
  354SOL    HW213094   7.627   3.684   6.510
  355SOL     OW13095   8.113   6.146   0.288
  355SOL    HW113096   8.158   6.057   0.280
  355SOL    HW213097   8.121   6.196   0.202
  356SOL     OW13098   4.805   7.392   6.592
  356SOL    HW113099   4.862   7.337   6.653
  356SOL    HW213100   4.726   7.427   6.642
  357SOL     OW13101   4.853   0.495   0.635
  357SOL    HW113102   4.788   0.516   0.708
  357SOL    HW213103   4.831   0.407   0.594
  358SOL     OW13104   2.241   0.412   1.027
  358SOL    HW113105   2.234   0.360   1.113
  358SOL    HW213106   2.187   0.368   0.956
  359SOL     OW13107   0.475   0.254   5.875
  359SOL    HW113108   0.573   0.235   5.881
  359SOL    HW213109   0.456   0.346   5.910
  360SOL     OW13110   8.843   1.832   0.409
  360SOL    HW113111   8.802   1.796   0.325
  360SOL    HW213112   8.892   1.917   0.389
  361SOL     OW13113   3.926   4.257   0.846
  361SOL    HW113114   3.949   4.320   0.772
  361SOL    HW213115   4.009   4.237   0.899
  362SOL     OW13116   2.649   2.191   0.652
  362SOL    HW113117   2.719   2.151   0.711
  362SOL    HW213118   2.572   2.223   0.708
  363SOL     OW13119   8.872   4.224   6.624
  363SOL    HW113120   8.845   4.293   6.690
  363SOL    HW213121   8.869   4.263   6.532
  364SOL     OW13122   8.102   1.072   6.169
  364SOL    HW113123   8.128   1.116   6.083
  364SOL    HW213124   8.093   0.973   6.154
  365SOL     OW13125   0.832   4.861   0.443
  365SOL    HW113126   0.769   4.919   0.390
  365SOL    HW213127   0.893   4.813   0.380
  366SOL     OW13128   7.050   5.446   6.019
  366SOL    HW113129   7.039   5.543   5.999
  366SOL    HW213130   7.121   5.408   5.960
  367SOL     OW13131   5.752   1.473   0.619
  367SOL    HW113132   5.777   1.401   0.684
  367SOL    HW213133   5.804   1.461   0.534
  368SOL     OW13134   5.133   7.403   6.530
  368SOL    HW113135   5.125   7.422   6.432
  368SOL    HW213136   5.124   7.305   6.546
  369SOL     OW13137   0.448   3.334   1.199
  369SOL    HW113138   0.532   3.386   1.182
  369SOL    HW213139   0.467   3.262   1.265
  370SOL     OW13140   6.525   4.903   1.114
  370SOL    HW113141   6.545   4.992   1.073
  370SOL    HW213142   6.600   4.839   1.095
  371SOL     OW13143   3.835   0.040   0.541
  371SOL    HW113144   3.816  -0.054   0.567
  371SOL    HW213145   3.933   0.051   0.523
  372SOL     OW13146   2.433   5.606   6.729
  372SOL    HW113147   2.528   5.612   6.760
  372SOL    HW213148   2.372   5.613   6.808
  373SOL     OW13149   8.473   3.915   5.510
  373SOL    HW113150   8.399   3.853   5.485
  373SOL    HW213151   8.495   3.974   5.432
  374SOL     OW13152   3.528   2.322   5.438
  374SOL    HW113153   3.465   2.399   5.452
  374SOL    HW213154   3.543   2.309   5.340
  375SOL     OW13155   8.456   1.808   0.668
  375SOL    HW113156   8.554   1.803   0.650
  375SOL    HW213157   8.414   1.873   0.606
  376SOL     OW13158   3.998   5.174   1.971
  376SOL    HW113159   3.934   5.249   1.987
  376SOL    HW213160   3.957   5.109   1.907
  377SOL     OW13161   6.173   0.950   1.583
  377SOL    HW113162   6.127   1.020   1.638
  377SOL    HW213163   6.108   0.912   1.517
  378SOL     OW13164   6.541   7.793   1.416
  378SOL    HW113165   6.606   7.800   1.493
  378SOL    HW213166   6.590   7.765   1.334
  379SOL     OW13167   5.890   0.434   5.489
  379SOL    HW113168   5.843   0.521   5.499
  379SOL    HW213169   5.939   0.413   5.574
  380SOL     OW13170   8.380   0.031   6.442
  380SOL    HW113171   8.359  -0.063   6.415
  380SOL    HW213172   8.303   0.069   6.493
  381SOL     OW13173   0.354   8.287   1.710
  381SOL    HW113174   0.426   8.314   1.774
  381SOL    HW213175   0.270   8.266   1.761
  382SOL     OW13176   6.637   1.063   0.847
  382SOL    HW113177   6.595   0.973   0.855
  382SOL    HW213178   6.567   1.133   0.847
  383SOL     OW13179   6.586   7.512   0.662
  383SOL    HW113180   6.626   7.597   0.696
  383SOL    HW213181   6.489   7.526   0.643
  384SOL     OW13182   6.540   2.701   1.253
  384SOL    HW113183   6.640   2.700   1.245
  384SOL    HW213184   6.513   2.770   1.320
  385SOL     OW13185   6.078   6.701   6.554
  385SOL    HW113186   6.036   6.704   6.463
  385SOL    HW213187   6.059   6.612   6.596
  386SOL     OW13188   5.709   7.235   6.086
  386SOL    HW113189   5.800   7.277   6.082
  386SOL    HW213190   5.668   7.236   5.995
  387SOL     OW13191   5.100   3.998   1.438
  387SOL    HW113192   5.053   4.086   1.426
  387SOL    HW213193   5.186   4.013   1.486
  388SOL     OW13194   6.485   3.368   0.745
  388SOL    HW113195   6.421   3.318   0.803
  388SOL    HW213196   6.567   3.391   0.798
  389SOL     OW13197   0.658   5.094   5.651
  389SOL    HW113198   0.663   5.032   5.573
  389SOL    HW213199   0.597   5.170   5.630
  390SOL     OW13200   3.608  -0.015   1.310
  390SOL    HW113201   3.706  -0.015   1.289
  390SOL    HW213202   3.557   0.015   1.230
  391SOL     OW13203   4.583   1.985   1.359
  391SOL    HW113204   4.656   1.989   1.291
  391SOL    HW213205   4.502   1.943   1.319
  392SOL     OW13206   8.360   4.966   6.482
  392SOL    HW113207   8.360   5.017   6.568
  392SOL    HW213208   8.391   5.025   6.407
  393SOL     OW13209   8.534   2.861   6.457
  393SOL    HW113210   8.579   2.866   6.547
  393SOL    HW213211   8.516   2.766   6.434
  394SOL     OW13212   6.860   5.855   5.623
  394SOL    HW113213   6.872   5.806   5.537
  394SOL    HW213214   6.910   5.808   5.696
  395SOL     OW13215   8.607   7.743   6.036
  395SOL    HW113216   8.617   7.644   6.044
  395SOL    HW213217   8.540   7.764   5.964
  396SOL     OW13218   3.156   3.150   6.709
  396SOL    HW113219   3.150   3.154   6.610
  396SOL    HW213220   3.224   3.082   6.736
  397SOL     OW13221   1.632   5.700   5.673
  397SOL    HW113222   1.708   5.636   5.659
  397SOL    HW213223   1.548   5.660   5.638
  398SOL     OW13224   5.697   3.998   5.874
  398SOL    HW113225   5.659   3.955   5.956
  398SOL    HW213226   5.680   3.939   5.795
  399SOL     OW13227   6.464   2.424   0.856
  399SOL    HW113228   6.420   2.346   0.811
  399SOL    HW213229   6.486   2.493   0.787
  400SOL     OW13230   3.500   1.724   6.507
  400SOL    HW113231   3.490   1.699   6.604
  400SOL    HW213232   3.416   1.698   6.458
  401SOL     OW13233   0.341   4.640   1.526
  401SOL    HW113234   0.398   4.683   1.455
  401SOL    HW213235   0.284   4.710   1.569
  402SOL     OW13236   8.627   6.893   0.699
  402SOL    HW113237   8.653   6.810   0.649
  402SOL    HW213238   8.622   6.970   0.635
  403SOL     OW13239   2.681   7.952   6.805
  403SOL    HW113240   2.631   8.038   6.811
  403SOL    HW213241   2.617   7.876   6.818
  404SOL     OW13242   1.580   7.201   0.477
  404SOL    HW113243   1.605   7.260   0.400
  404SOL    HW213244   1.649   7.210   0.549
  405SOL     OW13245   9.583   0.073   1.354
  405SOL    HW113246   9.484   0.066   1.370
  405SOL    HW213247   9.609   0.011   1.280
  406SOL     OW13248   8.642   2.034   0.768
  406SOL    HW113249   8.689   1.950   0.742
  406SOL    HW213250   8.703   2.112   0.750
  407SOL     OW13251   6.903   7.901   0.998
  407SOL    HW113252   6.965   7.826   0.975
  407SOL    HW213253   6.918   7.929   1.093
  408SOL     OW13254   1.257   0.003   5.352
  408SOL    HW113255   1.192   0.078   5.367
  408SOL    HW213256   1.220  -0.081   5.392
  409SOL     OW13257   3.146   0.968   6.776
  409SOL    HW113258   3.156   0.897   6.845
  409SOL    HW213259   3.072   1.030   6.801
  410SOL     OW13260   2.055   0.643   5.240
  410SOL    HW113261   2.111   0.606   5.166
  410SOL    HW213262   2.050   0.576   5.314
  411SOL     OW13263   0.539   6.909   1.281
  411SOL    HW113264   0.466   6.842   1.264
  411SOL    HW213265   0.570   6.900   1.376
  412SOL     OW13266   1.928   7.879   4.358
  412SOL    HW113267   1.841   7.917   4.387
  412SOL    HW213268   1.974   7.943   4.297
  413SOL     OW13269   7.670   6.464   6.659
  413SOL    HW113270   7.632   6.485   6.749
  413SOL    HW213271   7.738   6.533   6.635
  414SOL     OW13272   6.588   3.113   0.960
  414SOL    HW113273   6.574   3.035   0.898
  414SOL    HW213274   6.647   3.084   1.036
  415SOL     OW13275   0.711   3.360   5.379
  415SOL    HW113276   0.616   3.381   5.399
  415SOL    HW213277   0.743   3.417   5.303
  416SOL     OW13278   1.276   2.767   1.295
  416SOL    HW113279   1.188   2.743   1.336
  416SOL    HW213280   1.285   2.866   1.292
  417SOL     OW13281   5.636  -0.048   1.396
  417SOL    HW113282   5.681  -0.091   1.317
  417SOL    HW213283   5.702   0.008   1.445
  418SOL     OW13284   3.208   6.361   5.902
  418SOL    HW113285   3.222   6.284   5.840
  418SOL    HW213286   3.119   6.403   5.885
  419SOL     OW13287   0.348   0.469   6.011
  419SOL    HW113288   0.271   0.526   5.981
  419SOL    HW213289   0.330   0.435   6.103
  420SOL     OW13290   2.859   7.818   1.037
  420SOL    HW113291   2.901   7.738   0.994
  420SOL    HW213292   2.761   7.803   1.047
  421SOL     OW13293   7.721   6.469   6.107
  421SOL    HW113294   7.719   6.568   6.118
  421SOL    HW213295   7.691   6.445   6.015
  422SOL     OW13296   1.352   5.074   5.941
  422SOL    HW113297   1.318   5.087   5.848
  422SOL    HW213298   1.282   5.100   6.006
  423SOL     OW13299   7.174   2.976   1.307
  423SOL    HW113300   7.216   2.952   1.395
  423SOL    HW213301   7.157   3.074   1.305
  424SOL     OW13302   2.169   6.473   5.654
  424SOL    HW113303   2.187   6.482   5.556
  424SOL    HW213304   2.089   6.526   5.679
  425SOL     OW13305   1.149   3.985   6.396
  425SOL    HW113306   1.209   3.907   6.378
  425SOL    HW213307   1.176   4.028   6.482
  426SOL     OW13308   0.503   1.750   0.926
  426SOL    HW113309   0.595   1.750   0.965
  426SOL    HW213310   0.449   1.823   0.969
  427SOL     OW13311   4.186   6.470   1.234
  427SOL    HW113312   4.275   6.478   1.279
  427SOL    HW213313   4.119   6.433   1.298
  428SOL     OW13314   4.647   4.650   5.684
  428SOL    HW113315   4.702   4.689   5.610
  428SOL    HW213316   4.672   4.554   5.698
  429SOL     OW13317   9.368   2.695   6.218
  429SOL    HW113318   9.332   2.721   6.308
  429SOL    HW213319   9.309   2.624   6.179
  430SOL     OW13320   3.934   1.837   0.659
  430SOL    HW113321   3.909   1.796   0.572
  430SOL    HW213322   3.862   1.900   0.688
  431SOL     OW13323   4.850   7.143   6.789
  431SOL    HW113324   4.762   7.131   6.835
  431SOL    HW213325   4.911   7.067   6.814
  432SOL     OW13326   7.908   0.277   1.025
  432SOL    HW113327   7.859   0.343   1.082
  432SOL    HW213328   7.977   0.229   1.080
  433SOL     OW13329   3.592   6.106   0.407
  433SOL    HW113330   3.639   6.114   0.494
  433SOL    HW213331   3.524   6.180   0.399
  434SOL     OW13332   7.468   5.232   5.471
  434SOL    HW113333   7.425   5.300   5.412
  434SOL    HW213334   7.537   5.181   5.419
  435SOL     OW13335   4.275   6.381   0.622
  435SOL    HW113336   4.206   6.361   0.552
  435SOL    HW213337   4.290   6.300   0.679
  436SOL     OW13338   9.576   5.362   0.531
  436SOL    HW113339   9.520   5.293   0.485
  436SOL    HW213340   9.559   5.358   0.630
  437SOL     OW13341   6.814   3.183   5.811
  437SOL    HW113342   6.871   3.265   5.811
  437SOL    HW213343   6.723   3.207   5.777
  438SOL     OW13344   3.646   4.911   5.747
  438SOL    HW113345   3.655   4.932   5.844
  438SOL    HW213346   3.616   4.817   5.735
  439SOL     OW13347   0.142   4.316   0.304
  439SOL    HW113348   0.169   4.412   0.293
  439SOL    HW213349   0.216   4.266   0.349
  440SOL     OW13350   0.215   1.877   5.862
  440SOL    HW113351   0.170   1.852   5.777
  440SOL    HW213352   0.165   1.837   5.939
  441SOL     OW13353   3.652   3.602   0.891
  441SOL    HW113354   3.647   3.651   0.978
  441SOL    HW213355   3.658   3.667   0.816
  442SOL     OW13356   1.916   7.239   6.634
  442SOL    HW113357   1.893   7.275   6.724
  442SOL    HW213358   1.970   7.307   6.584
  443SOL     OW13359   9.219   2.868   5.999
  443SOL    HW113360   9.193   2.957   6.034
  443SOL    HW213361   9.283   2.825   6.063
  444SOL     OW13362   2.033   1.432   6.757
  444SOL    HW113363   1.944   1.477   6.770
  444SOL    HW213364   2.099   1.473   6.820
  445SOL     OW13365   6.619   2.958   0.739
  445SOL    HW113366   6.553   2.963   0.664
  445SOL    HW213367   6.709   2.990   0.707
  446SOL     OW13368   2.422   5.699   1.396
  446SOL    HW113369   2.419   5.757   1.477
  446SOL    HW213370   2.516   5.694   1.362
  447SOL     OW13371   9.263   2.834   6.467
  447SOL    HW113372   9.205   2.902   6.422
  447SOL    HW213373   9.224   2.810   6.556
  448SOL     OW13374   6.370   7.610   0.335
  448SOL    HW113375   6.373   7.557   0.419
  448SOL    HW213376   6.342   7.551   0.259
  449SOL     OW13377   9.280   5.340   6.349
  449SOL    HW113378   9.324   5.257   6.317
  449SOL    HW213379   9.250   5.328   6.444
  450SOL     OW13380   9.135   3.068   6.479
  450SOL    HW113381   9.170   3.153   6.440
  450SOL    HW213382   9.045   3.085   6.521
  451SOL     OW13383   1.137   0.362   6.622
  451SOL    HW113384   1.171   0.337   6.713
  451SOL    HW213385   1.132   0.462   6.616
  452SOL     OW13386   3.066   6.446   6.559
  452SOL    HW113387   2.993   6.484   6.502
  452SOL    HW213388   3.065   6.490   6.649
  453SOL     OW13389   4.413   0.523   5.568
  453SOL    HW113390   4.363   0.442   5.536
  453SOL    HW213391   4.461   0.565   5.491
  454SOL     OW13392   2.150   8.342   1.220
  454SOL    HW113393   2.104   8.277   1.160
  454SOL    HW213394   2.246   8.316   1.231
  455SOL     OW13395   9.423   4.818   0.812
  455SOL    HW113396   9.473   4.759   0.876
  455SOL    HW213397   9.405   4.767   0.728
  456SOL     OW13398   6.394   6.638   0.388
  456SOL    HW113399   6.449   6.554   0.390
  456SOL    HW213400   6.452   6.715   0.364
  457SOL     OW13401   8.965   4.726   6.937
  457SOL    HW113402   9.041   4.668   6.966
  457SOL    HW213403   8.955   4.803   7.001
  458SOL     OW13404   7.460   7.364   6.322
  458SOL    HW113405   7.395   7.289   6.336
  458SOL    HW213406   7.528   7.363   6.395
  459SOL     OW13407   3.138   7.599   6.419
  459SOL    HW113408   3.061   7.632   6.474
  459SOL    HW213409   3.146   7.654   6.336
  460SOL     OW13410   0.968   6.530   5.066
  460SOL    HW113411   1.059   6.490   5.065
  460SOL    HW213412   0.942   6.551   5.161
  461SOL     OW13413   0.355   6.890   0.713
  461SOL    HW113414   0.415   6.938   0.650
  461SOL    HW213415   0.397   6.803   0.739
  462SOL     OW13416   5.418   5.458   0.693
  462SOL    HW113417   5.363   5.392   0.642
  462SOL    HW213418   5.362   5.537   0.718
  463SOL     OW13419   0.263   7.587   6.943
  463SOL    HW113420   0.299   7.580   7.036
  463SOL    HW213421   0.212   7.504   6.921
  464SOL     OW13422   5.004   7.906   5.711
  464SOL    HW113423   5.024   7.832   5.775
  464SOL    HW213424   5.030   7.878   5.619
  465SOL     OW13425   6.870   3.469   0.334
  465SOL    HW113426   6.944   3.456   0.268
  465SOL    HW213427   6.782   3.461   0.287
  466SOL     OW13428   1.978   4.482   4.888
  466SOL    HW113429   1.958   4.385   4.898
  466SOL    HW213430   1.894   4.532   4.870
  467SOL     OW13431   4.427   5.727   0.381
  467SOL    HW113432   4.426   5.632   0.413
  467SOL    HW213433   4.521   5.759   0.374
  468SOL     OW13434   8.153   2.399   0.524
  468SOL    HW113435   8.079   2.356   0.576
  468SOL    HW213436   8.119   2.483   0.481
  469SOL     OW13437   8.868   7.399   6.601
  469SOL    HW113438   8.780   7.389   6.647
  469SOL    HW213439   8.883   7.322   6.539
  470SOL     OW13440   0.664   4.675   5.643
  470SOL    HW113441   0.735   4.625   5.594
  470SOL    HW213442   0.707   4.733   5.713
  471SOL     OW13443   2.146   4.422   1.105
  471SOL    HW113444   2.205   4.397   1.182
  471SOL    HW213445   2.056   4.447   1.139
  472SOL     OW13446   5.979   7.795   2.322
  472SOL    HW113447   6.050   7.820   2.388
  472SOL    HW213448   5.999   7.705   2.284
  473SOL     OW13449   2.605   1.172   6.028
  473SOL    HW113450   2.565   1.252   5.983
  473SOL    HW213451   2.655   1.203   6.110
  474SOL     OW13452   5.850   1.924   1.809
  474SOL    HW113453   5.846   1.845   1.869
  474SOL    HW213454   5.945   1.940   1.781
  475SOL     OW13455   1.255   5.478   4.817
  475SOL    HW113456   1.180   5.415   4.837
  475SOL    HW213457   1.285   5.466   4.723
  476SOL     OW13458   8.124   6.141   5.814
  476SOL    HW113459   8.027   6.162   5.824
  476SOL    HW213460   8.179   6.211   5.859
  477SOL     OW13461   0.950   6.784   5.915
  477SOL    HW113462   1.018   6.794   5.842
  477SOL    HW213463   0.859   6.775   5.873
  478SOL     OW13464   1.448   7.073   1.029
  478SOL    HW113465   1.380   7.139   1.060
  478SOL    HW213466   1.443   6.990   1.086
  479SOL     OW13467   5.642   1.901   0.288
  479SOL    HW113468   5.620   1.830   0.355
  479SOL    HW213469   5.599   1.880   0.201
  480SOL     OW13470   5.005   5.586   5.219
  480SOL    HW113471   4.965   5.648   5.151
  480SOL    HW213472   5.088   5.546   5.182
  481SOL     OW13473   9.106   4.648   5.309
  481SOL    HW113474   9.043   4.709   5.357
  481SOL    HW213475   9.080   4.553   5.325
  482SOL     OW13476   5.947   5.439   0.557
  482SOL    HW113477   5.862   5.468   0.602
  482SOL    HW213478   6.025   5.488   0.598
  483SOL     OW13479   1.725   1.173   1.159
  483SOL    HW113480   1.746   1.220   1.245
  483SOL    HW213481   1.630   1.144   1.158
  484SOL     OW13482   7.935   0.465   6.714
  484SOL    HW113483   7.862   0.415   6.761
  484SOL    HW213484   7.951   0.424   6.624
  485SOL     OW13485   4.711   7.794   6.355
  485SOL    HW113486   4.803   7.820   6.324
  485SOL    HW213487   4.701   7.694   6.349
  486SOL     OW13488   1.851   1.438   1.860
  486SOL    HW113489   1.946   1.417   1.885
  486SOL    HW213490   1.788   1.388   1.919
  487SOL     OW13491   8.557   2.563   6.726
  487SOL    HW113492   8.596   2.536   6.814
  487SOL    HW213493   8.495   2.491   6.693
  488SOL     OW13494   8.466   7.214   0.872
  488SOL    HW113495   8.485   7.137   0.933
  488SOL    HW213496   8.548   7.271   0.864
  489SOL     OW13497   1.299   4.242   1.413
  489SOL    HW113498   1.380   4.250   1.472
  489SOL    HW213499   1.222   4.290   1.456
  490SOL     OW13500   6.694   7.105   1.153
  490SOL    HW113501   6.685   7.178   1.221
  490SOL    HW213502   6.734   7.024   1.196
  491SOL     OW13503   2.042   7.538   6.914
  491SOL    HW113504   2.132   7.560   6.875
  491SOL    HW213505   2.028   7.590   6.997
  492SOL     OW13506   1.323   4.136   0.307
  492SOL    HW113507   1.311   4.043   0.271
  492SOL    HW213508   1.395   4.135   0.377
  493SOL     OW13509   3.691   1.971   0.319
  493SOL    HW113510   3.763   1.980   0.249
  493SOL    HW213511   3.603   1.959   0.274
  494SOL     OW13512   1.059   6.577   5.391
  494SOL    HW113513   1.008   6.622   5.464
  494SOL    HW213514   1.114   6.503   5.430
  495SOL     OW13515   2.255   1.786   6.661
  495SOL    HW113516   2.270   1.742   6.572
  495SOL    HW213517   2.339   1.782   6.715
  496SOL     OW13518   2.910   4.169   6.328
  496SOL    HW113519   2.950   4.259   6.310
  496SOL    HW213520   2.839   4.149   6.260
  497SOL     OW13521   8.800   2.586   1.050
  497SOL    HW113522   8.872   2.563   1.115
  497SOL    HW213523   8.771   2.681   1.063
  498SOL     OW13524   8.633   0.505   5.904
  498SOL    HW113525   8.656   0.603   5.904
  498SOL    HW213526   8.692   0.457   5.969
  499SOL     OW13527   3.000   6.954   1.029
  499SOL    HW113528   3.058   6.919   1.103
  499SOL    HW213529   2.904   6.950   1.058
  500SOL     OW13530   4.545   3.978   0.309
  500SOL    HW113531   4.598   3.915   0.252
  500SOL    HW213532   4.516   4.056   0.253
  501SOL     OW13533   3.332   7.944   0.376
  501SOL    HW113534   3.419   7.963   0.423
  501SOL    HW213535   3.324   8.006   0.298
  502SOL     OW13536   1.044   0.968   6.636
  502SOL    HW113537   1.069   0.959   6.732
  502SOL    HW213538   0.995   1.054   6.622
  503SOL     OW13539   1.628   1.716   0.495
  503SOL    HW113540   1.614   1.737   0.592
  503SOL    HW213541   1.725   1.706   0.477
  504SOL     OW13542   0.593   2.337   1.564
  504SOL    HW113543   0.570   2.414   1.504
  504SOL    HW213544   0.662   2.367   1.630
  505SOL     OW13545   5.678   7.584   1.164
  505SOL    HW113546   5.743   7.652   1.130
  505SOL    HW213547   5.637   7.617   1.249
  506SOL     OW13548   4.182   3.308   6.651
  506SOL    HW113549   4.093   3.269   6.676
  506SOL    HW213550   4.244   3.234   6.625
  507SOL     OW13551   2.555   0.013   5.644
  507SOL    HW113552   2.652   0.024   5.664
  507SOL    HW213553   2.520   0.095   5.599
  508SOL     OW13554   5.652   3.203   0.761
  508SOL    HW113555   5.705   3.177   0.842
  508SOL    HW213556   5.627   3.120   0.710
  509SOL     OW13557   7.256   1.878   6.298
  509SOL    HW113558   7.289   1.868   6.204
  509SOL    HW213559   7.300   1.809   6.355
  510SOL     OW13560   2.702   1.456   6.306
  510SOL    HW113561   2.757   1.373   6.306
  510SOL    HW213562   2.642   1.456   6.225
  511SOL     OW13563   4.692   7.348   0.341
  511SOL    HW113564   4.783   7.356   0.381
  511SOL    HW213565   4.660   7.439   0.314
  512SOL     OW13566   7.867   4.198   0.813
  512SOL    HW113567   7.887   4.279   0.868
  512SOL    HW213568   7.953   4.158   0.780
  513SOL     OW13569   0.189   3.198   5.930
  513SOL    HW113570   0.233   3.190   6.019
  513SOL    HW213571   0.259   3.207   5.859
  514SOL     OW13572   2.930   7.918   1.758
  514SOL    HW113573   2.970   8.000   1.799
  514SOL    HW213574   3.001   7.849   1.745
  515SOL     OW13575   1.039   5.382   1.621
  515SOL    HW113576   0.992   5.469   1.638
  515SOL    HW213577   1.131   5.386   1.658
  516SOL     OW13578   1.587   4.184   6.830
  516SOL    HW113579   1.620   4.091   6.842
  516SOL    HW213580   1.543   4.216   6.914
  517SOL     OW13581   1.143   2.042   1.030
  517SOL    HW113582   1.079   1.965   1.030
  517SOL    HW213583   1.226   2.016   0.981
  518SOL     OW13584   1.129   7.711   6.189
  518SOL    HW113585   1.173   7.795   6.159
  518SOL    HW213586   1.128   7.707   6.289
  519SOL     OW13587   7.319   7.103   1.365
  519SOL    HW113588   7.316   7.098   1.465
  519SOL    HW213589   7.336   7.198   1.337
  520SOL     OW13590   3.476   2.726   6.638
  520SOL    HW113591   3.565   2.726   6.592
  520SOL    HW213592   3.486   2.689   6.731
  521SOL     OW13593   2.792   6.997   1.783
  521SOL    HW113594   2.836   7.073   1.830
  521SOL    HW213595   2.695   6.994   1.807
  522SOL     OW13596   8.190   7.650   6.631
  522SOL    HW113597   8.177   7.601   6.545
  522SOL    HW213598   8.121   7.722   6.640
  523SOL     OW13599   6.942   3.511   6.607
  523SOL    HW113600   6.909   3.604   6.591
  523SOL    HW213601   6.863   3.452   6.626
  524SOL     OW13602   8.306   6.767   6.214
  524SOL    HW113603   8.345   6.794   6.126
  524SOL    HW213604   8.354   6.815   6.288
  525SOL     OW13605   0.784   6.001   1.194
  525SOL    HW113606   0.833   6.002   1.107
  525SOL    HW213607   0.700   6.054   1.185
  526SOL     OW13608   5.451   1.215   1.180
  526SOL    HW113609   5.531   1.160   1.154
  526SOL    HW213610   5.371   1.156   1.185
  527SOL     OW13611   8.523   7.986   5.683
  527SOL    HW113612   8.510   8.081   5.712
  527SOL    HW213613   8.497   7.977   5.586
  528SOL     OW13614   5.445   0.204   0.885
  528SOL    HW113615   5.482   0.285   0.931
  528SOL    HW213616   5.413   0.138   0.954
  529SOL     OW13617   9.197   7.655   6.461
  529SOL    HW113618   9.228   7.740   6.418
  529SOL    HW213619   9.100   7.662   6.481
  530SOL     OW13620   5.441   0.993   1.876
  530SOL    HW113621   5.481   0.910   1.836
  530SOL    HW213622   5.507   1.035   1.938
  531SOL     OW13623   0.759   2.944   5.583
  531SOL    HW113624   0.675   2.896   5.557
  531SOL    HW213625   0.801   2.983   5.501
  532SOL     OW13626   1.792   1.958   5.296
  532SOL    HW113627   1.767   1.906   5.214
  532SOL    HW213628   1.814   2.052   5.270
  533SOL     OW13629   6.175   0.901   5.860
  533SOL    HW113630   6.249   0.950   5.814
  533SOL    HW213631   6.109   0.870   5.793
  534SOL     OW13632   6.054   3.246   1.272
  534SOL    HW113633   6.013   3.302   1.200
  534SOL    HW213634   6.059   3.300   1.356
  535SOL     OW13635   3.507   4.499   6.371
  535SOL    HW113636   3.602   4.527   6.359
  535SOL    HW213637   3.463   4.494   6.281
  536SOL     OW13638   6.191   2.400   6.509
  536SOL    HW113639   6.265   2.454   6.549
  536SOL    HW213640   6.103   2.435   6.541
  537SOL     OW13641   0.247   7.289   0.527
  537SOL    HW113642   0.243   7.379   0.571
  537SOL    HW213643   0.313   7.292   0.451
  538SOL     OW13644   2.623   1.486   1.014
  538SOL    HW113645   2.664   1.485   0.923
  538SOL    HW213646   2.694   1.468   1.083
  539SOL     OW13647   3.400   6.526   1.033
  539SOL    HW113648   3.394   6.621   1.063
  539SOL    HW213649   3.435   6.469   1.107
  540SOL     OW13650   5.531   0.604   6.651
  540SOL    HW113651   5.489   0.689   6.619
  540SOL    HW213652   5.513   0.531   6.585
  541SOL     OW13653   7.799   1.997   0.599
  541SOL    HW113654   7.720   2.059   0.589
  541SOL    HW213655   7.772   1.917   0.654
  542SOL     OW13656   0.805   4.870   5.789
  542SOL    HW113657   0.896   4.830   5.793
  542SOL    HW213658   0.808   4.954   5.733
  543SOL     OW13659   9.458   7.547   5.672
  543SOL    HW113660   9.551   7.512   5.658
  543SOL    HW213661   9.446   7.569   5.769
  544SOL     OW13662   8.669   3.560   0.857
  544SOL    HW113663   8.588   3.510   0.827
  544SOL    HW213664   8.737   3.559   0.783
  545SOL     OW13665   8.684   6.818   6.022
  545SOL    HW113666   8.605   6.788   5.970
  545SOL    HW213667   8.767   6.808   5.966
  546SOL     OW13668   5.668   5.055   1.182
  546SOL    HW113669   5.764   5.072   1.203
  546SOL    HW213670   5.617   5.141   1.190
  547SOL     OW13671   0.221   5.812   1.008
  547SOL    HW113672   0.320   5.802   1.021
  547SOL    HW213673   0.197   5.909   1.009
  548SOL     OW13674   1.034   8.191   0.837
  548SOL    HW113675   1.102   8.118   0.828
  548SOL    HW213676   1.018   8.210   0.934
  549SOL     OW13677   6.809   7.100   5.619
  549SOL    HW113678   6.866   7.055   5.688
  549SOL    HW213679   6.712   7.080   5.638
  550SOL     OW13680   9.523   0.971   6.512
  550SOL    HW113681   9.528   1.032   6.591
  550SOL    HW213682   9.601   0.909   6.512
  551SOL     OW13683   0.734   0.418   1.053
  551SOL    HW113684   0.736   0.485   1.126
  551SOL    HW213685   0.823   0.371   1.048
  552SOL     OW13686   4.519   7.758   0.837
  552SOL    HW113687   4.572   7.729   0.917
  552SOL    HW213688   4.575   7.748   0.755
  553SOL     OW13689   7.208   0.895   6.241
  553SOL    HW113690   7.218   0.990   6.268
  553SOL    HW213691   7.281   0.871   6.176
  554SOL     OW13692   8.805   5.520   5.709
  554SOL    HW113693   8.844   5.538   5.619
  554SOL    HW213694   8.875   5.536   5.779
  555SOL     OW13695   5.699   5.121   5.445
  555SOL    HW113696   5.676   5.029   5.414
  555SOL    HW213697   5.659   5.137   5.535
  556SOL     OW13698   1.146   3.723   0.271
  556SOL    HW113699   1.182   3.732   0.364
  556SOL    HW213700   1.159   3.809   0.221
  557SOL     OW13701   6.372   7.958   5.603
  557SOL    HW113702   6.465   7.973   5.636
  557SOL    HW213703   6.363   7.993   5.510
  558SOL     OW13704   4.051   8.077   6.538
  558SOL    HW113705   4.042   8.035   6.448
  558SOL    HW213706   4.017   8.014   6.608
  559SOL     OW13707   6.550   6.700   0.849
  559SOL    HW113708   6.513   6.611   0.875
  559SOL    HW213709   6.599   6.692   0.763
  560SOL     OW13710   5.985   6.080   1.577
  560SOL    HW113711   6.030   6.166   1.555
  560SOL    HW213712   5.992   6.063   1.676
  561SOL     OW13713   3.313   6.001   5.524
  561SOL    HW113714   3.334   5.903   5.514
  561SOL    HW213715   3.387   6.055   5.485
  562SOL     OW13716   5.040   5.278   6.254
  562SOL    HW113717   5.080   5.289   6.164
  562SOL    HW213718   5.027   5.181   6.273
  563SOL     OW13719   0.808   8.377   6.035
  563SOL    HW113720   0.719   8.345   6.003
  563SOL    HW213721   0.810   8.378   6.135
  564SOL     OW13722   0.529   8.179   6.482
  564SOL    HW113723   0.609   8.160   6.425
  564SOL    HW213724   0.525   8.111   6.556
  565SOL     OW13725   4.547   7.893   1.158
  565SOL    HW113726   4.473   7.825   1.161
  565SOL    HW213727   4.598   7.882   1.073
  566SOL     OW13728   5.217   5.619   1.040
  566SOL    HW113729   5.289   5.645   1.105
  566SOL    HW213730   5.196   5.697   0.981
  567SOL     OW13731   0.267   1.112   5.851
  567SOL    HW113732   0.225   1.085   5.937
  567SOL    HW213733   0.343   1.051   5.829
  568SOL     OW13734   7.433   2.438   1.134
  568SOL    HW113735   7.506   2.474   1.192
  568SOL    HW213736   7.367   2.511   1.114
  569SOL     OW13737   0.682   0.582   1.331
  569SOL    HW113738   0.734   0.650   1.383
  569SOL    HW213739   0.587   0.582   1.362
  570SOL     OW13740   8.009   5.866   0.829
  570SOL    HW113741   7.954   5.949   0.833
  570SOL    HW213742   8.077   5.868   0.903
  571SOL     OW13743   3.744   6.749   0.587
  571SOL    HW113744   3.776   6.703   0.670
  571SOL    HW213745   3.739   6.847   0.603
  572SOL     OW13746   4.115   2.888   0.967
  572SOL    HW113747   4.134   2.947   0.888
  572SOL    HW213748   4.016   2.873   0.974
  573SOL     OW13749   8.476   6.263   5.879
  573SOL    HW113750   8.495   6.197   5.952
  573SOL    HW213751   8.562   6.297   5.841
  574SOL     OW13752   5.055   7.244   0.970
  574SOL    HW113753   5.106   7.325   1.000
  574SOL    HW213754   4.993   7.215   1.042
  575SOL     OW13755   8.616   2.136   6.381
  575SOL    HW113756   8.570   2.156   6.295
  575SOL    HW213757   8.635   2.038   6.387
  576SOL     OW13758   3.686   0.752   0.963
  576SOL    HW113759   3.613   0.701   1.010
  576SOL    HW213760   3.650   0.792   0.879
  577SOL     OW13761   0.586   1.036   0.479
  577SOL    HW113762   0.663   0.972   0.479
  577SOL    HW213763   0.537   1.030   0.392
  578SOL     OW13764   7.194   5.048   5.789
  578SOL    HW113765   7.239   5.020   5.705
  578SOL    HW213766   7.140   4.972   5.825
  579SOL     OW13767   2.234   7.268   0.656
  579SOL    HW113768   2.286   7.227   0.581
  579SOL    HW213769   2.172   7.199   0.695
  580SOL     OW13770   5.294   6.940   1.992
  580SOL    HW113771   5.351   7.022   1.987
  580SOL    HW213772   5.246   6.938   2.080
  581SOL     OW13773   5.224   8.349   5.719
  581SOL    HW113774   5.211   8.405   5.637
  581SOL    HW213775   5.154   8.373   5.787
  582SOL     OW13776   3.734   6.469   6.615
  582SOL    HW113777   3.810   6.405   6.607
  582SOL    HW213778   3.735   6.512   6.706
  583SOL     OW13779   3.188   6.684   6.202
  583SOL    HW113780   3.258   6.720   6.264
  583SOL    HW213781   3.193   6.585   6.200
  584SOL     OW13782   8.032   0.282   6.516
  584SOL    HW113783   8.118   0.333   6.523
  584SOL    HW213784   7.999   0.286   6.422
  585SOL     OW13785   9.221   3.704   0.416
  585SOL    HW113786   9.225   3.643   0.337
  585SOL    HW213787   9.313   3.739   0.436
  586SOL     OW13788   7.468   6.211   5.673
  586SOL    HW113789   7.374   6.246   5.672
  586SOL    HW213790   7.502   6.204   5.580
  587SOL     OW13791   8.876   6.056   6.300
  587SOL    HW113792   8.912   6.144   6.330
  587SOL    HW213793   8.937   6.017   6.230
  588SOL     OW13794   2.414   7.662   1.702
  588SOL    HW113795   2.407   7.566   1.729
  588SOL    HW213796   2.408   7.720   1.783
  589SOL     OW13797   4.549   7.571   6.978
  589SOL    HW113798   4.453   7.573   7.003
  589SOL    HW213799   4.558   7.569   6.878
  590SOL     OW13800   8.621   5.361   0.955
  590SOL    HW113801   8.655   5.268   0.940
  590SOL    HW213802   8.696   5.426   0.940
  591SOL     OW13803   6.274   0.656   5.963
  591SOL    HW113804   6.267   0.756   5.957
  591SOL    HW213805   6.330   0.622   5.888
  592SOL     OW13806   9.032   6.258   5.207
  592SOL    HW113807   9.018   6.227   5.112
  592SOL    HW213808   8.996   6.189   5.270
  593SOL     OW13809   0.655   7.412   5.736
  593SOL    HW113810   0.649   7.327   5.789
  593SOL    HW213811   0.564   7.437   5.703
  594SOL     OW13812   6.156   5.878   6.606
  594SOL    HW113813   6.058   5.890   6.619
  594SOL    HW213814   6.199   5.966   6.586
  595SOL     OW13815   5.877   2.670   6.432
  595SOL    HW113816   5.867   2.618   6.518
  595SOL    HW213817   5.967   2.651   6.393
  596SOL     OW13818   9.362   5.743   6.427
  596SOL    HW113819   9.364   5.816   6.495
  596SOL    HW213820   9.270   5.706   6.419
  597SOL     OW13821   7.207   3.225   6.929
  597SOL    HW113822   7.272   3.153   6.902
  597SOL    HW213823   7.128   3.183   6.974
  598SOL     OW13824   3.426   2.146   6.728
  598SOL    HW113825   3.383   2.110   6.811
  598SOL    HW213826   3.522   2.167   6.746
  599SOL     OW13827   2.051   4.764   5.100
  599SOL    HW113828   2.141   4.733   5.070
  599SOL    HW213829   1.989   4.768   5.022
  600SOL     OW13830   2.746   3.913   6.805
  600SOL    HW113831   2.715   3.906   6.710
  600SOL    HW213832   2.690   3.980   6.853
  601SOL     OW13833   4.942   5.722   6.795
  601SOL    HW113834   4.928   5.630   6.833
  601SOL    HW213835   4.942   5.789   6.870
  602SOL     OW13836   2.601   3.524   6.962
  602SOL    HW113837   2.512   3.517   6.918
  602SOL    HW213838   2.601   3.472   7.047
  603SOL     OW13839   7.041   4.965   0.964
  603SOL    HW113840   6.956   5.014   0.986
  603SOL    HW213841   7.027   4.867   0.976
  604SOL     OW13842   5.096   4.961   0.366
  604SOL    HW113843   5.174   5.011   0.328
  604SOL    HW213844   5.042   4.922   0.292
  605SOL     OW13845   6.454   6.772   6.605
  605SOL    HW113846   6.362   6.807   6.622
  605SOL    HW213847   6.456   6.674   6.624
  606SOL     OW13848   1.069   6.331   6.894
  606SOL    HW113849   1.049   6.274   6.973
  606SOL    HW213850   1.077   6.427   6.923
  607SOL     OW13851   1.482   0.394   1.516
  607SOL    HW113852   1.535   0.477   1.533
  607SOL    HW213853   1.535   0.332   1.458
  608SOL     OW13854   5.941   4.978   6.110
  608SOL    HW113855   5.872   4.906   6.111
  608SOL    HW213856   6.031   4.938   6.096
  609SOL     OW13857   3.558   4.840   1.280
  609SOL    HW113858   3.551   4.902   1.358
  609SOL    HW213859   3.641   4.862   1.228
  610SOL     OW13860   3.444   3.370   1.261
  610SOL    HW113861   3.490   3.309   1.325
  610SOL    HW213862   3.347   3.375   1.284
  611SOL     OW13863   0.376   5.733   6.138
  611SOL    HW113864   0.351   5.769   6.048
  611SOL    HW213865   0.469   5.697   6.134
  612SOL     OW13866   6.226   5.679   6.431
  612SOL    HW113867   6.210   5.724   6.519
  612SOL    HW213868   6.195   5.584   6.435
  613SOL     OW13869   6.831   1.980   1.330
  613SOL    HW113870   6.890   2.055   1.360
  613SOL    HW213871   6.794   2.001   1.240
  614SOL     OW13872   5.868   6.377   1.235
  614SOL    HW113873   5.849   6.314   1.159
  614SOL    HW213874   5.781   6.407   1.275
  615SOL     OW13875   4.042   7.512   5.130
  615SOL    HW113876   4.136   7.488   5.155
  615SOL    HW213877   4.041   7.602   5.087
  616SOL     OW13878   6.042   0.534   5.917
  616SOL    HW113879   6.003   0.606   5.860
  616SOL    HW213880   6.133   0.561   5.948
  617SOL     OW13881   0.468   0.036   4.939
  617SOL    HW113882   0.376   0.010   4.910
  617SOL    HW213883   0.492   0.124   4.899
  618SOL     OW13884   6.367   0.986   1.170
  618SOL    HW113885   6.327   1.024   1.254
  618SOL    HW213886   6.462   1.015   1.163
  619SOL     OW13887   2.975   1.473   1.531
  619SOL    HW113888   2.910   1.480   1.607
  619SOL    HW213889   3.009   1.379   1.525
  620SOL     OW13890   6.637   5.648   5.638
  620SOL    HW113891   6.545   5.660   5.601
  620SOL    HW213892   6.681   5.737   5.646
  621SOL     OW13893   4.931   5.120   1.276
  621SOL    HW113894   4.914   5.163   1.188
  621SOL    HW213895   5.004   5.052   1.267
  622SOL     OW13896   2.559   1.851   6.801
  622SOL    HW113897   2.567   1.946   6.769
  622SOL    HW213898   2.513   1.849   6.889
  623SOL     OW13899   3.650   2.526   1.673
  623SOL    HW113900   3.595   2.453   1.632
  623SOL    HW213901   3.706   2.489   1.747
  624SOL     OW13902   5.345   6.341   0.436
  624SOL    HW113903   5.255   6.313   0.471
  624SOL    HW213904   5.351   6.441   0.435
  625SOL     OW13905   3.655   1.139   1.379
  625SOL    HW113906   3.695   1.128   1.470
  625SOL    HW213907   3.726   1.160   1.313
  626SOL     OW13908   1.713   6.525   4.827
  626SOL    HW113909   1.785   6.457   4.814
  626SOL    HW213910   1.685   6.563   4.739
  627SOL     OW13911   1.926   4.988   5.565
  627SOL    HW113912   1.920   4.940   5.478
  627SOL    HW213913   1.987   5.066   5.557
  628SOL     OW13914   6.664   7.619   1.956
  628SOL    HW113915   6.738   7.552   1.949
  628SOL    HW213916   6.689   7.690   2.023
  629SOL     OW13917   5.675   0.217   6.119
  629SOL    HW113918   5.588   0.219   6.069
  629SOL    HW213919   5.751   0.217   6.054
  630SOL     OW13920   1.972   6.169   1.136
  630SOL    HW113921   1.885   6.137   1.098
  630SOL    HW213922   2.032   6.198   1.061
  631SOL     OW13923   3.988   6.758   0.444
  631SOL    HW113924   3.905   6.743   0.499
  631SOL    HW213925   4.012   6.673   0.397
  632SOL     OW13926   3.853   5.333   0.704
  632SOL    HW113927   3.919   5.404   0.726
  632SOL    HW213928   3.883   5.284   0.621
  633SOL     OW13929   5.200   2.419   1.482
  633SOL    HW113930   5.151   2.392   1.399
  633SOL    HW213931   5.151   2.493   1.527
  634SOL     OW13932   8.071   4.126   1.162
  634SOL    HW113933   8.126   4.044   1.143
  634SOL    HW213934   8.132   4.200   1.189
  635SOL     OW13935   7.151   7.658   6.318
  635SOL    HW113936   7.219   7.615   6.258
  635SOL    HW213937   7.129   7.749   6.282
  636SOL     OW13938   5.722   6.263   0.649
  636SOL    HW113939   5.815   6.233   0.671
  636SOL    HW213940   5.690   6.216   0.567
  637SOL     OW13941   3.530   7.273   1.932
  637SOL    HW113942   3.598   7.255   2.003
  637SOL    HW213943   3.463   7.339   1.967
  638SOL     OW13944   1.980   1.707   6.435
  638SOL    HW113945   1.890   1.693   6.393
  638SOL    HW213946   1.973   1.694   6.534
  639SOL     OW13947   1.577   8.216   6.280
  639SOL    HW113948   1.655   8.178   6.232
  639SOL    HW213949   1.536   8.288   6.223
  640SOL     OW13950   1.824   1.644   5.870
  640SOL    HW113951   1.731   1.672   5.894
  640SOL    HW213952   1.889   1.682   5.935
  641SOL     OW13953   4.838   5.338   1.619
  641SOL    HW113954   4.912   5.287   1.578
  641SOL    HW213955   4.852   5.345   1.718
  642SOL     OW13956   0.737   5.318   6.034
  642SOL    HW113957   0.647   5.276   6.021
  642SOL    HW213958   0.730   5.391   6.102
  643SOL     OW13959   8.344   7.219   1.115
  643SOL    HW113960   8.373   7.216   1.019
  643SOL    HW213961   8.399   7.287   1.164
  644SOL     OW13962   3.663   7.002   1.064
  644SOL    HW113963   3.729   6.987   0.991
  644SOL    HW213964   3.709   7.039   1.145
  645SOL     OW13965   9.312   1.311   6.668
  645SOL    HW113966   9.216   1.305   6.640
  645SOL    HW213967   9.324   1.264   6.755
  646SOL     OW13968   0.916   6.826   5.089
  646SOL    HW113969   0.830   6.832   5.039
  646SOL    HW213970   0.964   6.743   5.063
  647SOL     OW13971   6.685   8.118   6.311
  647SOL    HW113972   6.612   8.076   6.258
  647SOL    HW213973   6.707   8.208   6.273
  648SOL     OW13974   5.948   5.707   1.158
  648SOL    HW113975   5.892   5.750   1.088
  648SOL    HW213976   6.045   5.723   1.138
  649SOL     OW13977   8.366   3.352   1.143
  649SOL    HW113978   8.299   3.331   1.214
  649SOL    HW213979   8.332   3.429   1.088
  650SOL     OW13980   4.103   0.209   0.371
  650SOL    HW113981   4.092   0.113   0.342
  650SOL    HW213982   4.199   0.227   0.390
  651SOL     OW13983   6.998   7.367   1.311
  651SOL    HW113984   7.058   7.395   1.386
  651SOL    HW213985   6.980   7.269   1.318
  652SOL     OW13986   8.593   6.057   6.067
  652SOL    HW113987   8.548   5.989   6.125
  652SOL    HW213988   8.680   6.020   6.034
  653SOL     OW13989   5.875   6.684   6.331
  653SOL    HW113990   5.828   6.622   6.268
  653SOL    HW213991   5.949   6.731   6.283
  654SOL     OW13992   4.207   2.927   1.691
  654SOL    HW113993   4.180   2.902   1.783
  654SOL    HW213994   4.129   2.966   1.642
  655SOL     OW13995   1.845   0.075   6.291
  655SOL    HW113996   1.893   0.041   6.372
  655SOL    HW213997   1.847   0.175   6.290
  656SOL     OW13998   8.096   1.539   6.688
  656SOL    HW113999   8.049   1.456   6.717
  656SOL    HW214000   8.136   1.525   6.597
  657SOL     OW14001   0.250   5.940   0.701
  657SOL    HW114002   0.281   5.924   0.608
  657SOL    HW214003   0.260   5.857   0.755
  658SOL     OW14004   5.013   7.541   1.216
  658SOL    HW114005   4.959   7.605   1.161
  658SOL    HW214006   4.967   7.453   1.218
  659SOL     OW14007   8.758   1.619   6.460
  659SOL    HW114008   8.743   1.521   6.445
  659SOL    HW214009   8.824   1.653   6.392
  660SOL     OW14010   8.130   4.988   0.437
  660SOL    HW114011   8.180   5.046   0.373
  660SOL    HW214012   8.143   5.022   0.530
  661SOL     OW14013   4.690   6.360   1.210
  661SOL    HW114014   4.616   6.305   1.171
  661SOL    HW214015   4.729   6.418   1.138
  662SOL     OW14016   6.973   6.704   0.589
  662SOL    HW114017   6.912   6.706   0.510
  662SOL    HW214018   7.066   6.681   0.558
  663SOL     OW14019   3.738   6.596   6.008
  663SOL    HW114020   3.788   6.585   6.093
  663SOL    HW214021   3.678   6.517   5.994
  664SOL     OW14022   4.493   3.091   1.907
  664SOL    HW114023   4.554   3.159   1.868
  664SOL    HW214024   4.509   3.002   1.864
  665SOL     OW14025   0.144   3.709   1.185
  665SOL    HW114026   0.227   3.678   1.232
  665SOL    HW214027   0.159   3.801   1.149
  666SOL     OW14028   4.348   3.502   6.752
  666SOL    HW114029   4.265   3.448   6.735
  666SOL    HW214030   4.422   3.467   6.696
  667SOL     OW14031   3.087   2.390   0.336
  667SOL    HW114032   3.080   2.293   0.358
  667SOL    HW214033   2.995   2.428   0.325
  668SOL     OW14034   1.908   3.151   5.542
  668SOL    HW114035   1.930   3.101   5.458
  668SOL    HW214036   1.808   3.156   5.552
  669SOL     OW14037   4.093   2.554   0.416
  669SOL    HW114038   3.999   2.520   0.419
  669SOL    HW214039   4.103   2.616   0.338
  670SOL     OW14040   0.173   4.912   6.200
  670SOL    HW114041   0.189   5.001   6.157
  670SOL    HW214042   0.191   4.919   6.299
  671SOL     OW14043   1.772   7.342   5.867
  671SOL    HW114044   1.694   7.376   5.918
  671SOL    HW214045   1.789   7.401   5.788
  672SOL     OW14046   4.695   5.106   6.435
  672SOL    HW114047   4.666   5.189   6.387
  672SOL    HW214048   4.615   5.052   6.459
  673SOL     OW14049   0.869   1.599   6.601
  673SOL    HW114050   0.841   1.647   6.518
  673SOL    HW214051   0.791   1.548   6.638
  674SOL     OW14052   4.646   3.291   1.796
  674SOL    HW114053   4.581   3.363   1.773
  674SOL    HW214054   4.737   3.318   1.766
  675SOL     OW14055   0.193   0.462   0.641
  675SOL    HW114056   0.213   0.365   0.654
  675SOL    HW214057   0.185   0.482   0.544
  676SOL     OW14058   0.744   1.492   5.315
  676SOL    HW114059   0.661   1.543   5.338
  676SOL    HW214060   0.775   1.519   5.224
  677SOL     OW14061   8.861   7.818   0.949
  677SOL    HW114062   8.765   7.847   0.940
  677SOL    HW214063   8.865   7.734   1.003
  678SOL     OW14064   9.131   8.201   5.561
  678SOL    HW114065   9.035   8.204   5.588
  678SOL    HW214066   9.157   8.288   5.518
  679SOL     OW14067   5.666   5.330   6.967
  679SOL    HW114068   5.624   5.409   7.012
  679SOL    HW214069   5.648   5.248   7.022
  680SOL     OW14070   8.719   2.615   6.152
  680SOL    HW114071   8.720   2.689   6.086
  680SOL    HW214072   8.703   2.652   6.244
  681SOL     OW14073   1.571   0.744   0.651
  681SOL    HW114074   1.529   0.795   0.576
  681SOL    HW214075   1.658   0.704   0.620
  682SOL     OW14076   7.111   0.653   0.455
  682SOL    HW114077   7.017   0.669   0.425
  682SOL    HW214078   7.172   0.719   0.410
  683SOL     OW14079   2.671   6.713   1.324
  683SOL    HW114080   2.599   6.741   1.387
  683SOL    HW214081   2.725   6.640   1.365
  684SOL     OW14082   2.327   3.573   6.846
  684SOL    HW114083   2.329   3.516   6.764
  684SOL    HW214084   2.306   3.668   6.821
  685SOL     OW14085   6.280   4.155   5.565
  685SOL    HW114086   6.301   4.198   5.653
  685SOL    HW214087   6.302   4.058   5.569
  686SOL     OW14088   7.782   6.752   6.248
  686SOL    HW114089   7.708   6.772   6.184
  686SOL    HW214090   7.835   6.836   6.265
  687SOL     OW14091   1.843   4.592   5.807
  687SOL    HW114092   1.941   4.598   5.791
  687SOL    HW214093   1.793   4.630   5.729
  688SOL     OW14094   4.698   1.524   5.235
  688SOL    HW114095   4.693   1.440   5.288
  688SOL    HW214096   4.609   1.569   5.233
  689SOL     OW14097   3.661   0.500   0.685
  689SOL    HW114098   3.579   0.470   0.735
  689SOL    HW214099   3.730   0.428   0.687
  690SOL     OW14100   4.192   3.338   5.456
  690SOL    HW114101   4.167   3.242   5.467
  690SOL    HW214102   4.133   3.381   5.388
  691SOL     OW14103   5.308   2.152   1.523
  691SOL    HW114104   5.282   2.109   1.437
  691SOL    HW214105   5.275   2.247   1.525
  692SOL     OW14106   4.208   2.623   0.790
  692SOL    HW114107   4.214   2.640   0.888
  692SOL    HW214108   4.153   2.695   0.747
  693SOL     OW14109   5.445   8.120   2.115
  693SOL    HW114110   5.544   8.130   2.121
  693SOL    HW214111   5.406   8.114   2.206
  694SOL     OW14112   5.769   2.187   1.419
  694SOL    HW114113   5.681   2.214   1.457
  694SOL    HW214114   5.759   2.167   1.321
  695SOL     OW14115   2.710   0.519   6.700
  695SOL    HW114116   2.688   0.489   6.793
  695SOL    HW214117   2.625   0.538   6.650
  696SOL     OW14118   8.305   4.308   6.265
  696SOL    HW114119   8.335   4.394   6.224
  696SOL    HW214120   8.365   4.285   6.342
  697SOL     OW14121   1.949   0.086   5.656
  697SOL    HW114122   1.914   0.000   5.619
  697SOL    HW214123   1.961   0.152   5.582
  698SOL     OW14124   5.701   5.500   1.216
  698SOL    HW114125   5.647   5.580   1.240
  698SOL    HW214126   5.640   5.424   1.190
  699SOL     OW14127   6.441   1.008   1.502
  699SOL    HW114128   6.497   0.935   1.463
  699SOL    HW214129   6.347   0.978   1.511
  700SOL     OW14130   1.544   6.104   5.679
  700SOL    HW114131   1.510   6.042   5.608
  700SOL    HW214132   1.550   6.054   5.766
  701SOL     OW14133   6.890   3.703   1.226
  701SOL    HW114134   6.826   3.627   1.225
  701SOL    HW214135   6.966   3.684   1.164
  702SOL     OW14136   5.912   1.413   1.640
  702SOL    HW114137   5.845   1.454   1.703
  702SOL    HW214138   5.942   1.325   1.676
  703SOL     OW14139   2.428   0.954   0.554
  703SOL    HW114140   2.427   1.006   0.640
  703SOL    HW214141   2.522   0.944   0.523
  704SOL     OW14142   5.876   0.086   5.745
  704SOL    HW114143   5.866   0.023   5.822
  704SOL    HW214144   5.789   0.135   5.730
  705SOL     OW14145   1.010   0.145   5.292
  705SOL    HW114146   1.086   0.207   5.270
  705SOL    HW214147   0.938   0.196   5.338
  706SOL     OW14148   6.460   3.197   1.772
  706SOL    HW114149   6.392   3.269   1.788
  706SOL    HW214150   6.530   3.231   1.709
  707SOL     OW14151   7.188   0.179   1.277
  707SOL    HW114152   7.265   0.182   1.341
  707SOL    HW214153   7.222   0.186   1.184
  708SOL     OW14154   8.997   2.520   6.498
  708SOL    HW114155   9.092   2.492   6.509
  708SOL    HW214156   8.947   2.452   6.445
  709SOL     OW14157   4.667   6.041   1.177
  709SOL    HW114158   4.592   6.060   1.114
  709SOL    HW214159   4.634   6.051   1.272
  710SOL     OW14160   4.800   6.927   0.320
  710SOL    HW114161   4.712   6.920   0.272
  710SOL    HW214162   4.784   6.934   0.418
  711SOL     OW14163   5.061   7.453   6.831
  711SOL    HW114164   5.094   7.395   6.756
  711SOL    HW214165   4.998   7.521   6.794
  712SOL     OW14166   5.230   2.262   6.526
  712SOL    HW114167   5.260   2.338   6.583
  712SOL    HW214168   5.172   2.296   6.452
  713SOL     OW14169   2.723   4.078   6.168
  713SOL    HW114170   2.663   3.998   6.184
  713SOL    HW214171   2.788   4.057   6.095
  714SOL     OW14172   4.452   7.070   2.118
  714SOL    HW114173   4.530   7.111   2.166
  714SOL    HW214174   4.389   7.031   2.185
  715SOL     OW14175   2.908   7.537   6.588
  715SOL    HW114176   2.906   7.560   6.685
  715SOL    HW214177   2.835   7.585   6.540
  716SOL     OW14178   2.522   6.971   1.809
  716SOL    HW114179   2.450   7.038   1.794
  716SOL    HW214180   2.482   6.886   1.843
  717SOL     OW14181   3.189   6.775   1.587
  717SOL    HW114182   3.160   6.713   1.660
  717SOL    HW214183   3.271   6.824   1.616
  718SOL     OW14184   3.220   3.819   6.507
  718SOL    HW114185   3.150   3.854   6.444
  718SOL    HW214186   3.233   3.721   6.492
  719SOL     OW14187   5.181   8.150   0.315
  719SOL    HW114188   5.233   8.122   0.234
  719SOL    HW214189   5.203   8.245   0.337
  720SOL     OW14190   8.373   2.911   1.046
  720SOL    HW114191   8.338   2.835   1.101
  720SOL    HW214192   8.414   2.979   1.107
  721SOL     OW14193   5.116   5.352   6.672
  721SOL    HW114194   5.206   5.392   6.683
  721SOL    HW214195   5.050   5.398   6.732
  722SOL     OW14196   4.026   8.089   2.287
  722SOL    HW114197   3.960   8.092   2.362
  722SOL    HW214198   4.023   7.999   2.244
  723SOL     OW14199   3.975   0.903   6.323
  723SOL    HW114200   3.935   0.887   6.413
  723SOL    HW214201   4.072   0.925   6.333
  724SOL     OW14202   8.234   6.312   6.001
  724SOL    HW114203   8.321   6.285   5.958
  724SOL    HW214204   8.232   6.280   6.095
  725SOL     OW14205   9.043   7.298   0.547
  725SOL    HW114206   9.135   7.289   0.585
  725SOL    HW214207   8.997   7.209   0.550
  726SOL     OW14208   2.307   6.754   1.090
  726SOL    HW114209   2.316   6.801   1.177
  726SOL    HW214210   2.385   6.693   1.076
  727SOL     OW14211   6.352   7.319   6.983
  727SOL    HW114212   6.312   7.284   6.898
  727SOL    HW214213   6.346   7.249   7.054
  728SOL     OW14214   1.715   2.401   1.027
  728SOL    HW114215   1.747   2.496   1.017
  728SOL    HW214216   1.793   2.341   1.044
  729SOL     OW14217   2.838   5.851   1.227
  729SOL    HW114218   2.840   5.763   1.275
  729SOL    HW214219   2.778   5.914   1.276
  730SOL     OW14220   3.237   5.094   0.392
  730SOL    HW114221   3.164   5.140   0.442
  730SOL    HW214222   3.210   5.001   0.369
  731SOL     OW14223   3.514   1.794   1.155
  731SOL    HW114224   3.444   1.787   1.083
  731SOL    HW214225   3.554   1.885   1.154
  732SOL     OW14226   9.530   6.627   6.711
  732SOL    HW114227   9.472   6.706   6.691
  732SOL    HW214228   9.597   6.614   6.637
  733SOL     OW14229   1.710   4.303   0.355
  733SOL    HW114230   1.786   4.261   0.305
  733SOL    HW214231   1.726   4.401   0.365
  734SOL     OW14232   2.760   8.399   6.386
  734SOL    HW114233   2.706   8.337   6.442
  734SOL    HW214234   2.699   8.460   6.335
  735SOL     OW14235   3.893   4.974   6.588
  735SOL    HW114236   3.794   4.967   6.576
  735SOL    HW214237   3.916   5.066   6.621
  736SOL     OW14238   2.788   3.213   6.567
  736SOL    HW114239   2.866   3.266   6.533
  736SOL    HW214240   2.773   3.233   6.664
  737SOL     OW14241   9.182  -0.042   5.500
  737SOL    HW114242   9.084  -0.021   5.494
  737SOL    HW214243   9.233   0.044   5.507
  738SOL     OW14244   7.141   7.575   5.366
  738SOL    HW114245   7.214   7.545   5.303
  738SOL    HW214246   7.061   7.601   5.313
  739SOL     OW14247   6.374   5.728   0.563
  739SOL    HW114248   6.473   5.733   0.577
  739SOL    HW214249   6.351   5.766   0.473
  740SOL     OW14250   8.570   4.074   5.279
  740SOL    HW114251   8.548   4.171   5.280
  740SOL    HW214252   8.624   4.052   5.198
  741SOL     OW14253   4.463   6.502   2.231
  741SOL    HW114254   4.418   6.585   2.199
  741SOL    HW214255   4.562   6.513   2.223
  742SOL     OW14256   4.179   3.419   6.173
  742SOL    HW114257   4.271   3.405   6.137
  742SOL    HW214258   4.122   3.340   6.151
  743SOL     OW14259   3.766   2.127   5.813
  743SOL    HW114260   3.810   2.041   5.789
  743SOL    HW214261   3.687   2.142   5.754
  744SOL     OW14262   0.496   5.188   0.404
  744SOL    HW114263   0.466   5.145   0.489
  744SOL    HW214264   0.557   5.265   0.425
  745SOL     OW14265   2.144   3.416   5.941
  745SOL    HW114266   2.195   3.500   5.926
  745SOL    HW214267   2.077   3.404   5.868
  746SOL     OW14268   0.537   4.780   5.934
  746SOL    HW114269   0.450   4.752   5.976
  746SOL    HW214270   0.534   4.762   5.836
  747SOL     OW14271   4.430   8.126   6.343
  747SOL    HW114272   4.423   8.029   6.318
  747SOL    HW214273   4.525   8.148   6.363
  748SOL     OW14274   1.558   8.272   6.588
  748SOL    HW114275   1.632   8.219   6.545
  748SOL    HW214276   1.470   8.242   6.551
  749SOL     OW14277   6.571   0.263   0.513
  749SOL    HW114278   6.621   0.331   0.567
  749SOL    HW214279   6.635   0.208   0.460
  750SOL     OW14280   5.676   1.045   6.369
  750SOL    HW114281   5.702   1.057   6.273
  750SOL    HW214282   5.734   0.975   6.411
  751SOL     OW14283   7.953   4.742   6.398
  751SOL    HW114284   7.905   4.728   6.311
  751SOL    HW214285   8.051   4.729   6.384
  752SOL     OW14286   4.155   8.185   0.780
  752SOL    HW114287   4.239   8.139   0.809
  752SOL    HW214288   4.129   8.153   0.689
  753SOL     OW14289   3.833   4.238   1.691
  753SOL    HW114290   3.890   4.185   1.754
  753SOL    HW214291   3.764   4.289   1.743
  754SOL     OW14292   0.352   6.724   1.216
  754SOL    HW114293   0.329   6.647   1.276
  754SOL    HW214294   0.393   6.690   1.131
  755SOL     OW14295   6.339   1.668   0.768
  755SOL    HW114296   6.261   1.611   0.743
  755SOL    HW214297   6.386   1.628   0.846
  756SOL     OW14298   7.880   8.426   5.425
  756SOL    HW114299   7.909   8.431   5.330
  756SOL    HW214300   7.792   8.473   5.435
  757SOL     OW14301   3.814   4.207   1.423
  757SOL    HW114302   3.832   4.220   1.521
  757SOL    HW214303   3.760   4.123   1.410
  758SOL     OW14304   4.357   6.782   5.519
  758SOL    HW114305   4.269   6.739   5.538
  758SOL    HW214306   4.347   6.846   5.443
  759SOL     OW14307   9.082   4.515   6.055
  759SOL    HW114308   9.064   4.431   6.107
  759SOL    HW214309   9.130   4.492   5.971
  760SOL     OW14310   4.286   1.429   0.687
  760SOL    HW114311   4.310   1.513   0.736
  760SOL    HW214312   4.207   1.446   0.629
  761SOL     OW14313   3.802   2.075   1.795
  761SOL    HW114314   3.754   2.160   1.773
  761SOL    HW214315   3.896   2.095   1.820
  762SOL     OW14316   6.389   3.886   6.940
  762SOL    HW114317   6.303   3.927   6.972
  762SOL    HW214318   6.428   3.943   6.868
  763SOL     OW14319   5.537   0.798   1.629
  763SOL    HW114320   5.527   0.853   1.546
  763SOL    HW214321   5.613   0.734   1.618
  764SOL     OW14322   4.753   6.940   6.630
  764SOL    HW114323   4.803   7.013   6.677
  764SOL    HW214324   4.719   6.975   6.542
  765SOL     OW14325   4.526   5.088   6.013
  765SOL    HW114326   4.560   5.026   5.942
  765SOL    HW214327   4.602   5.123   6.067
  766SOL     OW14328   7.889   3.730   5.916
  766SOL    HW114329   7.926   3.639   5.936
  766SOL    HW214330   7.817   3.723   5.847
  767SOL     OW14331   1.579   2.302   5.728
  767SOL    HW114332   1.627   2.352   5.656
  767SOL    HW214333   1.486   2.282   5.698
  768SOL     OW14334   7.675   6.015   6.708
  768SOL    HW114335   7.586   6.024   6.662
  768SOL    HW214336   7.714   6.106   6.721
  769SOL     OW14337   7.180   6.487   6.052
  769SOL    HW114338   7.179   6.581   6.017
  769SOL    HW214339   7.235   6.483   6.135
  770SOL     OW14340   2.173   1.095   0.918
  770SOL    HW114341   2.193   1.113   1.014
  770SOL    HW214342   2.074   1.095   0.904
  771SOL     OW14343   8.465   2.296   6.893
  771SOL    HW114344   8.370   2.273   6.914
  771SOL    HW214345   8.505   2.225   6.834
  772SOL     OW14346   1.679   4.837   1.027
  772SOL    HW114347   1.759   4.804   0.977
  772SOL    HW214348   1.619   4.887   0.965
  773SOL     OW14349   3.581   5.942   1.712
  773SOL    HW114350   3.641   5.966   1.788
  773SOL    HW214351   3.636   5.915   1.633
  774SOL     OW14352   3.515   5.194   1.237
  774SOL    HW114353   3.518   5.170   1.139
  774SOL    HW214354   3.475   5.286   1.247
  775SOL     OW14355   4.631   7.637   5.102
  775SOL    HW114356   4.550   7.620   5.047
  775SOL    HW214357   4.713   7.624   5.046
  776SOL     OW14358   6.376   1.096   5.773
  776SOL    HW114359   6.381   1.171   5.707
  776SOL    HW214360   6.439   1.023   5.746
  777SOL     OW14361   7.309   8.297   0.621
  777SOL    HW114362   7.251   8.217   0.609
  777SOL    HW214363   7.253   8.374   0.653
  778SOL     OW14364   3.714   6.194   6.226
  778SOL    HW114365   3.645   6.134   6.186
  778SOL    HW214366   3.777   6.224   6.154
  779SOL     OW14367   5.862   0.379   6.975
  779SOL    HW114368   5.806   0.430   6.910
  779SOL    HW214369   5.810   0.299   7.007
  780SOL     OW14370   8.737   6.775   0.302
  780SOL    HW114371   8.834   6.757   0.317
  780SOL    HW214372   8.688   6.688   0.293
  781SOL     OW14373   6.885   7.417   1.936
  781SOL    HW114374   6.976   7.456   1.924
  781SOL    HW214375   6.893   7.320   1.958
  782SOL     OW14376   8.112   3.314   0.796
  782SOL    HW114377   8.044   3.382   0.823
  782SOL    HW214378   8.140   3.330   0.702
  783SOL     OW14379   1.215   2.994   6.848
  783SOL    HW114380   1.184   3.034   6.934
  783SOL    HW214381   1.136   2.963   6.795
  784SOL     OW14382   7.218   4.945   1.437
  784SOL    HW114383   7.301   4.973   1.486
  784SOL    HW214384   7.237   4.862   1.385
  785SOL     OW14385   2.199   8.372   6.268
  785SOL    HW114386   2.221   8.275   6.271
  785SOL    HW214387   2.265   8.423   6.322
  786SOL     OW14388   0.870   2.435   6.319
  786SOL    HW114389   0.914   2.456   6.407
  786SOL    HW214390   0.774   2.412   6.335
  787SOL     OW14391   8.033   2.400   5.591
  787SOL    HW114392   8.120   2.399   5.640
  787SOL    HW214393   8.050   2.396   5.493
  788SOL     OW14394   7.083   0.713   6.437
  788SOL    HW114395   6.995   0.755   6.456
  788SOL    HW214396   7.141   0.776   6.386
  789SOL     OW14397   4.502   2.655   6.909
  789SOL    HW114398   4.483   2.596   6.830
  789SOL    HW214399   4.597   2.641   6.939
  790SOL     OW14400   2.383   8.389   5.281
  790SOL    HW114401   2.416   8.469   5.231
  790SOL    HW214402   2.429   8.307   5.246
  791SOL     OW14403   0.153   5.564   1.380
  791SOL    HW114404   0.067   5.606   1.350
  791SOL    HW214405   0.223   5.634   1.388
  792SOL     OW14406   4.287   0.127   6.185
  792SOL    HW114407   4.330   0.188   6.118
  792SOL    HW214408   4.212   0.078   6.142
  793SOL     OW14409   3.030   1.857   1.718
  793SOL    HW114410   3.129   1.843   1.710
  793SOL    HW214411   2.994   1.891   1.631
  794SOL     OW14412   6.716   3.127   6.444
  794SOL    HW114413   6.747   3.117   6.349
  794SOL    HW214414   6.729   3.040   6.492
  795SOL     OW14415   8.855   3.835   0.680
  795SOL    HW114416   8.865   3.736   0.675
  795SOL    HW214417   8.777   3.863   0.624
  796SOL     OW14418   1.925  -0.003   6.907
  796SOL    HW114419   1.891  -0.030   6.998
  796SOL    HW214420   2.025   0.002   6.908
  797SOL     OW14421   0.158   2.030   0.716
  797SOL    HW114422   0.128   2.041   0.811
  797SOL    HW214423   0.225   2.101   0.693
  798SOL     OW14424   3.292   1.899   1.724
  798SOL    HW114425   3.290   1.884   1.823
  798SOL    HW214426   3.299   1.996   1.705
  799SOL     OW14427   7.789   6.526   1.099
  799SOL    HW114428   7.780   6.437   1.143
  799SOL    HW214429   7.707   6.581   1.116
  800SOL     OW14430   3.455   1.638   1.353
  800SOL    HW114431   3.465   1.669   1.448
  800SOL    HW214432   3.488   1.709   1.291
  801SOL     OW14433   0.435   7.624   1.655
  801SOL    HW114434   0.396   7.592   1.742
  801SOL    HW214435   0.535   7.618   1.659
  802SOL     OW14436   6.402   4.646   6.727
  802SOL    HW114437   6.359   4.595   6.652
  802SOL    HW214438   6.497   4.665   6.704
  803SOL     OW14439   8.372   1.330   0.816
  803SOL    HW114440   8.470   1.321   0.798
  803SOL    HW214441   8.336   1.408   0.767
  804SOL     OW14442   1.672   1.716   0.775
  804SOL    HW114443   1.667   1.777   0.855
  804SOL    HW214444   1.621   1.632   0.795
  805SOL     OW14445   8.572   1.515   0.555
  805SOL    HW114446   8.625   1.561   0.627
  805SOL    HW214447   8.534   1.584   0.493
  806SOL     OW14448   9.068   3.087   0.979
  806SOL    HW114449   9.088   2.991   1.000
  806SOL    HW214450   9.098   3.107   0.885
  807SOL     OW14451   1.764   3.548   1.363
  807SOL    HW114452   1.757   3.564   1.461
  807SOL    HW214453   1.818   3.466   1.346
  808SOL     OW14454   5.398   0.702   6.982
  808SOL    HW114455   5.408   0.660   7.072
  808SOL    HW214456   5.445   0.645   6.914
  809SOL     OW14457   0.828   6.723   1.865
  809SOL    HW114458   0.875   6.657   1.923
  809SOL    HW214459   0.882   6.808   1.862
  810SOL     OW14460   0.892   7.429   6.952
  810SOL    HW114461   0.951   7.365   6.905
  810SOL    HW214462   0.876   7.398   7.046
  811SOL     OW14463   6.118   8.237   6.636
  811SOL    HW114464   6.092   8.320   6.685
  811SOL    HW214465   6.143   8.166   6.701
  812SOL     OW14466   3.989   2.090   6.510
  812SOL    HW114467   3.954   2.002   6.480
  812SOL    HW214468   4.018   2.084   6.605
  813SOL     OW14469   1.181   1.441   5.882
  813SOL    HW114470   1.224   1.368   5.934
  813SOL    HW214471   1.083   1.420   5.870
  814SOL     OW14472   1.831   1.794   0.291
  814SOL    HW114473   1.875   1.883   0.296
  814SOL    HW214474   1.733   1.806   0.277
  815SOL     OW14475   4.554   1.355   0.996
  815SOL    HW114476   4.575   1.372   1.092
  815SOL    HW214477   4.523   1.261   0.985
  816SOL     OW14478   5.739   7.030   6.353
  816SOL    HW114479   5.700   7.028   6.261
  816SOL    HW214480   5.832   6.992   6.351
  817SOL     OW14481   8.008   1.104   0.898
  817SOL    HW114482   7.947   1.035   0.937
  817SOL    HW214483   8.004   1.100   0.799
  818SOL     OW14484   3.506   0.506   6.604
  818SOL    HW114485   3.550   0.594   6.619
  818SOL    HW214486   3.426   0.497   6.664
  819SOL     OW14487   0.313   5.651   0.726
  819SOL    HW114488   0.222   5.640   0.766
  819SOL    HW214489   0.316   5.603   0.638
  820SOL     OW14490   5.011   1.551   1.164
  820SOL    HW114491   4.949   1.619   1.202
  820SOL    HW214492   5.028   1.571   1.068
  821SOL     OW14493   3.572   2.233   0.667
  821SOL    HW114494   3.478   2.255   0.692
  821SOL    HW214495   3.635   2.291   0.719
  822SOL     OW14496   5.310   1.210   1.902
  822SOL    HW114497   5.341   1.117   1.886
  822SOL    HW214498   5.257   1.215   1.987
  823SOL     OW14499   1.702   2.413   1.342
  823SOL    HW114500   1.619   2.387   1.391
  823SOL    HW214501   1.687   2.403   1.243
  824SOL     OW14502   5.996   6.416   0.943
  824SOL    HW114503   5.943   6.366   1.012
  824SOL    HW214504   5.939   6.485   0.899
  825SOL     OW14505   7.654   6.367   5.827
  825SOL    HW114506   7.622   6.282   5.785
  825SOL    HW214507   7.581   6.434   5.827
  826SOL     OW14508   1.173   0.308   6.882
  826SOL    HW114509   1.238   0.275   6.950
  826SOL    HW214510   1.081   0.307   6.920
  827SOL     OW14511   3.873   3.509   6.027
  827SOL    HW114512   3.937   3.487   6.100
  827SOL    HW214513   3.861   3.430   5.967
  828SOL     OW14514   0.386   8.428   1.472
  828SOL    HW114515   0.338   8.515   1.469
  828SOL    HW214516   0.358   8.377   1.553
  829SOL     OW14517   5.940   6.298   6.200
  829SOL    HW114518   6.006   6.283   6.273
  829SOL    HW214519   5.913   6.211   6.159
  830SOL     OW14520   0.997   7.734   6.662
  830SOL    HW114521   0.975   7.752   6.758
  830SOL    HW214522   0.966   7.642   6.637
  831SOL     OW14523   2.682   1.797   5.747
  831SOL    HW114524   2.749   1.836   5.684
  831SOL    HW214525   2.611   1.749   5.696
  832SOL     OW14526   4.895   3.529   1.550
  832SOL    HW114527   4.831   3.594   1.590
  832SOL    HW214528   4.948   3.574   1.478
  833SOL     OW14529   2.176   0.911   5.952
  833SOL    HW114530   2.151   0.908   6.049
  833SOL    HW214531   2.275   0.901   5.943
  834SOL     OW14532   1.448   1.120   5.772
  834SOL    HW114533   1.481   1.034   5.732
  834SOL    HW214534   1.359   1.143   5.732
  835SOL     OW14535   4.092   3.892   1.151
  835SOL    HW114536   4.087   3.911   1.053
  835SOL    HW214537   4.086   3.978   1.202
  836SOL     OW14538   7.917   8.390   6.720
  836SOL    HW114539   7.879   8.456   6.785
  836SOL    HW214540   7.923   8.300   6.763
  837SOL     OW14541   1.622   0.640   1.291
  837SOL    HW114542   1.716   0.628   1.258
  837SOL    HW214543   1.561   0.576   1.245
  838SOL     OW14544   6.558   6.067   1.055
  838SOL    HW114545   6.486   6.046   1.121
  838SOL    HW214546   6.647   6.054   1.098
  839SOL     OW14547   5.186   1.822   1.823
  839SOL    HW114548   5.149   1.758   1.890
  839SOL    HW214549   5.208   1.908   1.868
  840SOL     OW14550   1.735   5.265   5.621
  840SOL    HW114551   1.738   5.228   5.528
  840SOL    HW214552   1.644   5.252   5.660
  841SOL     OW14553   2.920   2.275   1.074
  841SOL    HW114554   2.987   2.349   1.070
  841SOL    HW214555   2.828   2.313   1.066
  842SOL     OW14556   4.212   0.637   2.323
  842SOL    HW114557   4.129   0.616   2.272
  842SOL    HW214558   4.193   0.633   2.421
  843SOL     OW14559   7.905   0.337   0.470
  843SOL    HW114560   7.965   0.389   0.530
  843SOL    HW214561   7.951   0.253   0.441
  844SOL     OW14562   9.527   6.913   4.967
  844SOL    HW114563   9.617   6.919   4.924
  844SOL    HW214564   9.460   6.959   4.910
  845SOL     OW14565   2.790   3.106   1.595
  845SOL    HW114566   2.733   3.166   1.650
  845SOL    HW214567   2.812   3.024   1.647
  846SOL     OW14568   4.812   0.615   6.165
  846SOL    HW114569   4.909   0.621   6.141
  846SOL    HW214570   4.794   0.671   6.246
  847SOL     OW14571   9.019   4.510   0.590
  847SOL    HW114572   8.944   4.452   0.619
  847SOL    HW214573   9.006   4.603   0.625
  848SOL     OW14574   4.157   4.052   6.057
  848SOL    HW114575   4.062   4.036   6.030
  848SOL    HW214576   4.213   4.063   5.975
  849SOL     OW14577   2.933   5.653   0.783
  849SOL    HW114578   2.868   5.579   0.763
  849SOL    HW214579   3.023   5.614   0.801
  850SOL     OW14580   5.521   4.443   1.691
  850SOL    HW114581   5.491   4.358   1.733
  850SOL    HW214582   5.443   4.504   1.679
  851SOL     OW14583   0.714   6.082   0.528
  851SOL    HW114584   0.801   6.132   0.534
  851SOL    HW214585   0.718   6.020   0.450
  852SOL     OW14586   5.615   5.976   6.332
  852SOL    HW114587   5.561   5.940   6.409
  852SOL    HW214588   5.598   6.074   6.323
  853SOL     OW14589   1.392   7.532   6.473
  853SOL    HW114590   1.370   7.446   6.519
  853SOL    HW214591   1.307   7.578   6.448
  854SOL     OW14592   8.810   5.823   6.877
  854SOL    HW114593   8.753   5.793   6.801
  854SOL    HW214594   8.799   5.921   6.891
  855SOL     OW14595   9.228   4.964   0.928
  855SOL    HW114596   9.253   5.004   1.016
  855SOL    HW214597   9.309   4.924   0.884
  856SOL     OW14598   4.313   0.652   0.300
  856SOL    HW114599   4.236   0.713   0.280
  856SOL    HW214600   4.316   0.578   0.233
  857SOL     OW14601   6.117   5.444   0.931
  857SOL    HW114602   6.164   5.518   0.980
  857SOL    HW214603   6.021   5.442   0.957
  858SOL     OW14604   1.234   1.905   5.191
  858SOL    HW114605   1.330   1.898   5.163
  858SOL    HW214606   1.209   2.001   5.202
  859SOL     OW14607   2.783   0.193   1.415
  859SOL    HW114608   2.687   0.220   1.420
  859SOL    HW214609   2.820   0.215   1.325
  860SOL     OW14610   8.722   6.370   5.857
  860SOL    HW114611   8.772   6.376   5.771
  860SOL    HW214612   8.786   6.376   5.934
  861SOL     OW14613   0.752   6.411   6.459
  861SOL    HW114614   0.678   6.355   6.420
  861SOL    HW214615   0.713   6.487   6.510
  862SOL     OW14616   5.971   6.859   0.713
  862SOL    HW114617   6.049   6.808   0.677
  862SOL    HW214618   5.897   6.858   0.645
  863SOL     OW14619   3.514   5.004   5.526
  863SOL    HW114620   3.566   4.956   5.597
  863SOL    HW214621   3.425   4.959   5.513
  864SOL     OW14622   8.424  -0.001   6.949
  864SOL    HW114623   8.499   0.008   7.014
  864SOL    HW214624   8.373  -0.085   6.969
  865SOL     OW14625   1.227   0.840   1.330
  865SOL    HW114626   1.182   0.784   1.399
  865SOL    HW214627   1.184   0.824   1.241
  866SOL     OW14628   1.140   2.321   1.021
  866SOL    HW114629   1.199   2.354   0.947
  866SOL    HW214630   1.138   2.221   1.021
  867SOL     OW14631   8.395   4.004   1.011
  867SOL    HW114632   8.459   3.930   0.995
  867SOL    HW214633   8.333   3.979   1.086
  868SOL     OW14634   2.250   8.111   6.377
  868SOL    HW114635   2.215   8.142   6.465
  868SOL    HW214636   2.350   8.114   6.378
  869SOL     OW14637   6.514   8.133   1.285
  869SOL    HW114638   6.537   8.154   1.190
  869SOL    HW214639   6.534   8.036   1.304
  870SOL     OW14640   0.415   2.581   6.489
  870SOL    HW114641   0.343   2.511   6.494
  870SOL    HW214642   0.390   2.650   6.421
  871SOL     OW14643   5.216   8.145   1.698
  871SOL    HW114644   5.204   8.085   1.619
  871SOL    HW214645   5.295   8.114   1.752
  872SOL     OW14646   8.392   5.038   6.753
  872SOL    HW114647   8.457   5.056   6.827
  872SOL    HW214648   8.355   5.125   6.720
  873SOL     OW14649   1.993   2.354   1.093
  873SOL    HW114650   1.984   2.261   1.057
  873SOL    HW214651   2.077   2.395   1.059
  874SOL     OW14652   1.940   1.656   1.030
  874SOL    HW114653   1.848   1.646   1.067
  874SOL    HW214654   2.003   1.597   1.081
  875SOL     OW14655   0.901   7.988   1.020
  875SOL    HW114656   0.862   7.907   0.975
  875SOL    HW214657   0.982   7.961   1.073
  876SOL     OW14658   6.301   4.714   0.769
  876SOL    HW114659   6.361   4.635   0.754
  876SOL    HW214660   6.206   4.688   0.753
  877SOL     OW14661   2.316   5.651   0.321
  877SOL    HW114662   2.276   5.637   0.411
  877SOL    HW214663   2.399   5.707   0.329
  878SOL     OW14664   8.832   0.872   6.024
  878SOL    HW114665   8.890   0.953   6.017
  878SOL    HW214666   8.769   0.869   5.946
  879SOL     OW14667   1.252   6.189   5.348
  879SOL    HW114668   1.213   6.228   5.431
  879SOL    HW214669   1.255   6.260   5.277
  880SOL     OW14670   4.273   5.125   6.295
  880SOL    HW114671   4.255   5.105   6.198
  880SOL    HW214672   4.365   5.161   6.305
  881SOL     OW14673   5.220   7.567   0.699
  881SOL    HW114674   5.211   7.470   0.724
  881SOL    HW214675   5.287   7.575   0.625
  882SOL     OW14676   9.455   4.801   6.054
  882SOL    HW114677   9.442   4.870   5.983
  882SOL    HW214678   9.537   4.821   6.107
  883SOL     OW14679   6.951   0.951   0.549
  883SOL    HW114680   6.907   0.870   0.510
  883SOL    HW214681   7.029   0.977   0.492
  884SOL     OW14682   3.640   0.196   6.011
  884SOL    HW114683   3.676   0.212   6.103
  884SOL    HW214684   3.541   0.212   6.010
  885SOL     OW14685   8.306   7.692   6.220
  885SOL    HW114686   8.342   7.622   6.158
  885SOL    HW214687   8.359   7.691   6.305
  886SOL     OW14688   2.449   3.305   5.983
  886SOL    HW114689   2.516   3.257   5.927
  886SOL    HW214690   2.468   3.403   5.982
  887SOL     OW14691   1.017   6.320   6.049
  887SOL    HW114692   0.946   6.363   6.104
  887SOL    HW214693   1.035   6.376   5.968
  888SOL     OW14694   1.955   5.415   1.170
  888SOL    HW114695   2.009   5.344   1.215
  888SOL    HW214696   1.860   5.385   1.161
  889SOL     OW14697   9.392   6.444   0.766
  889SOL    HW114698   9.316   6.499   0.802
  889SOL    HW214699   9.440   6.399   0.841
  890SOL     OW14700   8.742   4.832   5.356
  890SOL    HW114701   8.666   4.873   5.305
  890SOL    HW214702   8.738   4.732   5.347
  891SOL     OW14703   0.398   5.039   0.599
  891SOL    HW114704   0.350   5.037   0.687
  891SOL    HW214705   0.352   4.979   0.535
  892SOL     OW14706   9.274   7.474   6.237
  892SOL    HW114707   9.351   7.417   6.266
  892SOL    HW214708   9.222   7.504   6.317
  893SOL     OW14709   6.928   7.587   1.164
  893SOL    HW114710   6.930   7.498   1.211
  893SOL    HW214711   6.903   7.573   1.068
  894SOL     OW14712   9.387   6.715   4.770
  894SOL    HW114713   9.389   6.812   4.794
  894SOL    HW214714   9.413   6.704   4.674
  895SOL     OW14715   1.782   2.378   0.719
  895SOL    HW114716   1.880   2.394   0.730
  895SOL    HW214717   1.737   2.385   0.808
  896SOL     OW14718   6.093   1.127   1.073
  896SOL    HW114719   6.169   1.102   1.013
  896SOL    HW214720   6.130   1.167   1.157
  897SOL     OW14721   8.821   1.170   6.550
  897SOL    HW114722   8.767   1.108   6.607
  897SOL    HW214723   8.917   1.166   6.578
  898SOL     OW14724   6.195   4.598   6.540
  898SOL    HW114725   6.258   4.609   6.463
  898SOL    HW214726   6.176   4.687   6.580
  899SOL     OW14727   4.421   7.622   5.371
  899SOL    HW114728   4.338   7.677   5.358
  899SOL    HW214729   4.396   7.526   5.379
  900SOL     OW14730   4.297   4.744   1.906
  900SOL    HW114731   4.217   4.801   1.885
  900SOL    HW214732   4.331   4.767   1.997
  901SOL     OW14733   0.631   7.951   5.760
  901SOL    HW114734   0.593   7.880   5.820
  901SOL    HW214735   0.560   7.981   5.696
  902SOL     OW14736   2.922   3.111   1.368
  902SOL    HW114737   2.887   3.125   1.460
  902SOL    HW214738   2.865   3.044   1.320
  903SOL     OW14739   4.875   0.002   6.089
  903SOL    HW114740   4.871  -0.071   6.157
  903SOL    HW214741   4.892   0.089   6.134
  904SOL     OW14742   1.103   1.894   1.831
  904SOL    HW114743   1.091   1.971   1.894
  904SOL    HW214744   1.014   1.869   1.792
  905SOL     OW14745   5.217   7.297   0.762
  905SOL    HW114746   5.154   7.262   0.830
  905SOL    HW214747   5.279   7.224   0.732
  906SOL     OW14748   4.510   7.378   0.564
  906SOL    HW114749   4.561   7.338   0.488
  906SOL    HW214750   4.545   7.469   0.584
  907SOL     OW14751   8.128   5.683   0.325
  907SOL    HW114752   8.197   5.751   0.350
  907SOL    HW214753   8.047   5.730   0.289
  908SOL     OW14754   5.490  -0.026   1.778
  908SOL    HW114755   5.399  -0.006   1.816
  908SOL    HW214756   5.536   0.060   1.757
  909SOL     OW14757   2.585   3.803   5.836
  909SOL    HW114758   2.668   3.851   5.807
  909SOL    HW214759   2.533   3.774   5.755
  910SOL     OW14760   0.410   0.798   1.138
  910SOL    HW114761   0.430   0.749   1.223
  910SOL    HW214762   0.485   0.785   1.073
  911SOL     OW14763   1.668   1.344   6.478
  911SOL    HW114764   1.763   1.317   6.462
  911SOL    HW214765   1.659   1.443   6.468
  912SOL     OW14766   3.884   0.976   5.535
  912SOL    HW114767   3.823   1.026   5.474
  912SOL    HW214768   3.895   1.027   5.621
  913SOL     OW14769   4.781   1.475   6.872
  913SOL    HW114770   4.735   1.390   6.897
  913SOL    HW214771   4.832   1.509   6.951
  914SOL     OW14772   7.246   1.917   1.229
  914SOL    HW114773   7.223   1.960   1.316
  914SOL    HW214774   7.239   1.984   1.155
  915SOL     OW14775   2.156   0.935   6.208
  915SOL    HW114776   2.221   1.011   6.198
  915SOL    HW214777   2.140   0.917   6.305
  916SOL     OW14778   5.787   1.042   5.814
  916SOL    HW114779   5.707   0.982   5.819
  916SOL    HW214780   5.762   1.127   5.768
  917SOL     OW14781   8.513   1.604   0.864
  917SOL    HW114782   8.497   1.671   0.791
  917SOL    HW214783   8.601   1.560   0.848
  918SOL     OW14784   4.448   2.492   6.705
  918SOL    HW114785   4.358   2.483   6.663
  918SOL    HW214786   4.507   2.548   6.646
  919SOL     OW14787   5.605   0.198   0.615
  919SOL    HW114788   5.545   0.278   0.627
  919SOL    HW214789   5.555   0.115   0.641
  920SOL     OW14790   1.506   7.413   5.890
  920SOL    HW114791   1.451   7.414   5.973
  920SOL    HW214792   1.476   7.488   5.829
  921SOL     OW14793   0.177   2.196   1.276
  921SOL    HW114794   0.222   2.118   1.319
  921SOL    HW214795   0.225   2.221   1.192
  922SOL     OW14796   2.167   5.668   5.535
  922SOL    HW114797   2.137   5.599   5.468
  922SOL    HW214798   2.201   5.748   5.486
  923SOL     OW14799   6.802   1.659   0.934
  923SOL    HW114800   6.813   1.641   1.032
  923SOL    HW214801   6.825   1.576   0.883
  924SOL     OW14802   0.252   8.419   4.772
  924SOL    HW114803   0.296   8.330   4.761
  924SOL    HW214804   0.218   8.450   4.684
  925SOL     OW14805   6.689   5.826   6.204
  925SOL    HW114806   6.591   5.836   6.221
  925SOL    HW214807   6.703   5.786   6.113
  926SOL     OW14808   3.024   2.648   0.854
  926SOL    HW114809   3.102   2.638   0.791
  926SOL    HW214810   2.962   2.718   0.818
  927SOL     OW14811   4.303   1.457   1.374
  927SOL    HW114812   4.371   1.427   1.441
  927SOL    HW214813   4.320   1.411   1.287
  928SOL     OW14814   4.622   7.890   1.785
  928SOL    HW114815   4.648   7.972   1.837
  928SOL    HW214816   4.694   7.868   1.720
  929SOL     OW14817   1.456   6.325   6.206
  929SOL    HW114818   1.379   6.389   6.211
  929SOL    HW214819   1.491   6.308   6.298
  930SOL     OW14820   1.049   0.257   5.630
  930SOL    HW114821   1.061   0.262   5.729
  930SOL    HW214822   0.975   0.318   5.602
  931SOL     OW14823   6.531   5.427   5.907
  931SOL    HW114824   6.628   5.409   5.887
  931SOL    HW214825   6.480   5.431   5.821
  932SOL     OW14826   4.447   7.190   1.857
  932SOL    HW114827   4.383   7.137   1.802
  932SOL    HW214828   4.448   7.155   1.951
  933SOL     OW14829   4.760   7.743   5.897
  933SOL    HW114830   4.841   7.801   5.907
  933SOL    HW214831   4.760   7.703   5.805
  934SOL     OW14832   5.612   6.506   1.308
  934SOL    HW114833   5.630   6.581   1.245
  934SOL    HW214834   5.531   6.528   1.364
  935SOL     OW14835   7.116   6.270   1.799
  935SOL    HW114836   7.172   6.236   1.875
  935SOL    HW214837   7.050   6.200   1.772
  936SOL     OW14838   0.834   7.905   5.078
  936SOL    HW114839   0.887   7.989   5.069
  936SOL    HW214840   0.739   7.929   5.099
  937SOL     OW14841   7.336   1.553   1.226
  937SOL    HW114842   7.284   1.538   1.310
  937SOL    HW214843   7.277   1.597   1.158
  938SOL     OW14844   6.017   2.091   1.441
  938SOL    HW114845   5.920   2.110   1.421
  938SOL    HW214846   6.050   2.158   1.508
  939SOL     OW14847   0.435   3.523   5.729
  939SOL    HW114848   0.359   3.492   5.672
  939SOL    HW214849   0.416   3.615   5.764
  940SOL     OW14850   1.073   5.539   5.647
  940SOL    HW114851   1.069   5.547   5.746
  940SOL    HW214852   1.091   5.444   5.622
  941SOL     OW14853   4.036   6.472   1.000
  941SOL    HW114854   3.957   6.416   1.024
  941SOL    HW214855   4.103   6.469   1.073
  942SOL     OW14856   4.426   6.017   1.709
  942SOL    HW114857   4.463   5.941   1.655
  942SOL    HW214858   4.496   6.051   1.771
  943SOL     OW14859   3.753   1.846   5.706
  943SOL    HW114860   3.677   1.818   5.648
  943SOL    HW214861   3.839   1.809   5.671
  944SOL     OW14862   1.479   3.793   0.522
  944SOL    HW114863   1.523   3.821   0.607
  944SOL    HW214864   1.531   3.719   0.480
  945SOL     OW14865   5.240   0.834   1.274
  945SOL    HW114866   5.258   0.788   1.188
  945SOL    HW214867   5.157   0.795   1.316
  946SOL     OW14868   0.496   1.527   6.430
  946SOL    HW114869   0.527   1.540   6.336
  946SOL    HW214870   0.494   1.429   6.451
  947SOL     OW14871   5.415   3.353   1.244
  947SOL    HW114872   5.395   3.288   1.318
  947SOL    HW214873   5.493   3.409   1.270
  948SOL     OW14874   0.950   0.050   0.984
  948SOL    HW114875   0.979   0.005   0.900
  948SOL    HW214876   0.853   0.033   1.000
  949SOL     OW14877   1.344   8.292   6.974
  949SOL    HW114878   1.279   8.272   7.047
  949SOL    HW214879   1.318   8.242   6.891
  950SOL     OW14880   3.432   4.814   0.694
  950SOL    HW114881   3.459   4.907   0.719
  950SOL    HW214882   3.452   4.752   0.769
  951SOL     OW14883   2.656   5.194   0.323
  951SOL    HW114884   2.664   5.287   0.359
  951SOL    HW214885   2.689   5.192   0.229
  952SOL     OW14886   5.729   4.228   6.777
  952SOL    HW114887   5.762   4.311   6.823
  952SOL    HW214888   5.714   4.248   6.680
  953SOL     OW14889   5.985   5.962   5.010
  953SOL    HW114890   6.047   5.888   5.036
  953SOL    HW214891   6.020   6.008   4.929
  954SOL     OW14892   5.083   8.252   1.270
  954SOL    HW114893   5.059   8.219   1.362
  954SOL    HW214894   5.086   8.175   1.207
  955SOL     OW14895   4.109   7.746   1.022
  955SOL    HW114896   4.096   7.837   0.982
  955SOL    HW214897   4.029   7.690   1.005
  956SOL     OW14898   4.397   2.801   1.289
  956SOL    HW114899   4.434   2.731   1.350
  956SOL    HW214900   4.339   2.758   1.220
  957SOL     OW14901   9.094   6.923   6.658
  957SOL    HW114902   9.011   6.947   6.709
  957SOL    HW214903   9.113   6.995   6.591
  958SOL     OW14904   4.013   4.061   0.587
  958SOL    HW114905   3.924   4.074   0.545
  958SOL    HW214906   4.079   4.126   0.548
  959SOL     OW14907   6.368   2.482   5.869
  959SOL    HW114908   6.407   2.422   5.800
  959SOL    HW214909   6.305   2.429   5.926
  960SOL     OW14910   1.122   7.551   1.407
  960SOL    HW114911   1.113   7.603   1.492
  960SOL    HW214912   1.131   7.453   1.428
  961SOL     OW14913   2.770   0.145   0.956
  961SOL    HW114914   2.679   0.154   0.997
  961SOL    HW214915   2.839   0.155   1.028
  962SOL     OW14916   5.382   8.150   1.398
  962SOL    HW114917   5.295   8.104   1.417
  962SOL    HW214918   5.376   8.196   1.310
  963SOL     OW14919   5.826   7.946   1.964
  963SOL    HW114920   5.805   8.013   1.893
  963SOL    HW214921   5.766   7.960   2.042
  964SOL     OW14922   6.576   6.255   0.845
  964SOL    HW114923   6.551   6.186   0.913
  964SOL    HW214924   6.654   6.308   0.879
  965SOL     OW14925   8.166   5.102   0.692
  965SOL    HW114926   8.099   5.062   0.755
  965SOL    HW214927   8.249   5.125   0.742
  966SOL     OW14928   0.284   5.227   1.700
  966SOL    HW114929   0.228   5.306   1.675
  966SOL    HW214930   0.292   5.223   1.800
  967SOL     OW14931   5.738   4.280   1.015
  967SOL    HW114932   5.668   4.276   0.943
  967SOL    HW214933   5.803   4.205   1.002
  968SOL     OW14934   2.651   0.076   0.321
  968SOL    HW114935   2.632   0.158   0.374
  968SOL    HW214936   2.585   0.004   0.344
  969SOL     OW14937   6.105   6.389   0.351
  969SOL    HW114938   6.141   6.375   0.444
  969SOL    HW214939   6.165   6.344   0.285
  970SOL     OW14940   4.263   3.586   1.013
  970SOL    HW114941   4.168   3.615   1.022
  970SOL    HW214942   4.319   3.634   1.081
  971SOL     OW14943   0.360   8.139   1.366
  971SOL    HW114944   0.335   8.090   1.450
  971SOL    HW214945   0.357   8.238   1.384
  972SOL     OW14946   6.256   0.031   6.032
  972SOL    HW114947   6.198  -0.008   5.960
  972SOL    HW214948   6.308  -0.043   6.076
  973SOL     OW14949   9.197   2.808   6.739
  973SOL    HW114950   9.173   2.900   6.771
  973SOL    HW214951   9.117   2.749   6.745
  974SOL     OW14952   4.491   4.236   0.998
  974SOL    HW114953   4.583   4.208   0.970
  974SOL    HW214954   4.425   4.211   0.927
  975SOL     OW14955   1.500   0.187   6.471
  975SOL    HW114956   1.484   0.122   6.397
  975SOL    HW214957   1.559   0.145   6.540
  976SOL     OW14958   7.105   0.124   5.861
  976SOL    HW114959   7.057   0.090   5.779
  976SOL    HW214960   7.086   0.221   5.872
  977SOL     OW14961   1.365   7.749   1.332
  977SOL    HW114962   1.366   7.649   1.322
  977SOL    HW214963   1.458   7.782   1.346
  978SOL     OW14964   7.569   2.358   6.160
  978SOL    HW114965   7.601   2.357   6.065
  978SOL    HW214966   7.648   2.369   6.222
  979SOL     OW14967   0.844   4.742   5.147
  979SOL    HW114968   0.855   4.647   5.176
  979SOL    HW214969   0.926   4.772   5.097
  980SOL     OW14970   3.495   7.489   2.383
  980SOL    HW114971   3.576   7.433   2.404
  980SOL    HW214972   3.514   7.584   2.406
  981SOL     OW14973   6.351   0.943   6.542
  981SOL    HW114974   6.388   1.018   6.487
  981SOL    HW214975   6.290   0.888   6.486
  982SOL     OW14976   5.317   3.781   1.440
  982SOL    HW114977   5.325   3.848   1.514
  982SOL    HW214978   5.287   3.826   1.356
  983SOL     OW14979   8.708   3.103   6.695
  983SOL    HW114980   8.629   3.146   6.652
  983SOL    HW214981   8.686   3.008   6.718
  984SOL     OW14982   4.075   7.952   6.269
  984SOL    HW114983   4.109   7.878   6.327
  984SOL    HW214984   3.976   7.944   6.257
  985SOL     OW14985   0.835   7.505   5.544
  985SOL    HW114986   0.926   7.486   5.582
  985SOL    HW214987   0.765   7.477   5.609
  986SOL     OW14988   3.858   0.365   0.585
  986SOL    HW114989   3.925   0.331   0.651
  986SOL    HW214990   3.895   0.446   0.538
  987SOL     OW14991   0.883   8.166   1.450
  987SOL    HW114992   0.845   8.212   1.370
  987SOL    HW214993   0.933   8.232   1.506
  988SOL     OW14994   0.337   3.470   0.975
  988SOL    HW114995   0.240   3.445   0.975
  988SOL    HW214996   0.382   3.429   1.054
  989SOL     OW14997   1.570   6.078   6.843
  989SOL    HW114998   1.514   6.161   6.842
  989SOL    HW214999   1.620   6.070   6.757
  990SOL     OW15000   6.861   6.550   6.843
  990SOL    HW115001   6.899   6.567   6.752
  990SOL    HW215002   6.764   6.576   6.845
  991SOL     OW15003   7.521   6.733   1.055
  991SOL    HW115004   7.457   6.800   1.092
  991SOL    HW215005   7.558   6.765   0.968
  992SOL     OW15006   5.429   0.105   1.378
  992SOL    HW115007   5.413   0.132   1.472
  992SOL    HW215008   5.502   0.037   1.374
  993SOL     OW15009   4.992   7.282   5.950
  993SOL    HW115010   5.019   7.323   5.863
  993SOL    HW215011   4.912   7.224   5.936
  994SOL     OW15012   6.472   3.016   0.487
  994SOL    HW115013   6.426   3.098   0.521
  994SOL    HW215014   6.511   3.034   0.397
  995SOL     OW15015   3.316   2.361   0.992
  995SOL    HW115016   3.232   2.407   1.021
  995SOL    HW215017   3.301   2.317   0.903
  996SOL     OW15018   3.966   5.616   1.456
  996SOL    HW115019   4.020   5.542   1.496
  996SOL    HW215020   3.972   5.611   1.356
  997SOL     OW15021   4.483   0.783   6.776
  997SOL    HW115022   4.493   0.779   6.875
  997SOL    HW215023   4.431   0.865   6.751
  998SOL     OW15024   1.296   5.956   5.240
  998SOL    HW115025   1.254   5.939   5.151
  998SOL    HW215026   1.282   6.051   5.267
  999SOL     OW15027   6.992   1.751   1.823
  999SOL    HW115028   6.892   1.758   1.819
  999SOL    HW215029   7.031   1.793   1.742
 1000SOL     OW15030   1.187   5.358   6.681
 1000SOL    HW115031   1.187   5.405   6.593
 1000SOL    HW215032   1.275   5.374   6.727
 1001SOL     OW15033   3.750   1.436   0.959
 1001SOL    HW115034   3.817   1.497   0.916
 1001SOL    HW215035   3.692   1.489   1.021
 1002SOL     OW15036   8.662   7.864   1.563
 1002SOL    HW115037   8.565   7.889   1.558
 1002SOL    HW215038   8.674   7.773   1.522
 1003SOL     OW15039   2.952   6.672   6.094
 1003SOL    HW115040   2.918   6.763   6.073
 1003SOL    HW215041   3.049   6.678   6.119
 1004SOL     OW15042   8.273   2.809   1.523
 1004SOL    HW115043   8.178   2.829   1.544
 1004SOL    HW215044   8.300   2.723   1.567
 1005SOL     OW15045   4.404   8.429   5.401
 1005SOL    HW115046   4.308   8.421   5.427
 1005SOL    HW215047   4.414   8.403   5.305
 1006SOL     OW15048   5.092   4.675   1.780
 1006SOL    HW115049   5.085   4.580   1.811
 1006SOL    HW215050   5.041   4.734   1.842
 1007SOL     OW15051   3.769   4.560   1.001
 1007SOL    HW115052   3.729   4.470   1.018
 1007SOL    HW215053   3.829   4.585   1.077
 1008SOL     OW15054   1.962   1.089   6.112
 1008SOL    HW115055   1.915   1.049   6.033
 1008SOL    HW215056   2.027   1.023   6.149
 1009SOL     OW15057   8.911   7.443   0.736
 1009SOL    HW115058   8.949   7.375   0.673
 1009SOL    HW215059   8.843   7.399   0.795
 1010SOL     OW15060   5.720   1.369   1.281
 1010SOL    HW115061   5.758   1.277   1.279
 1010SOL    HW215062   5.642   1.371   1.343
 1011SOL     OW15063   7.183   6.150   6.163
 1011SOL    HW115064   7.251   6.131   6.092
 1011SOL    HW215065   7.193   6.083   6.237
 1012SOL     OW15066   5.083   7.161   6.200
 1012SOL    HW115067   5.083   7.198   6.107
 1012SOL    HW215068   5.146   7.084   6.205
 1013SOL     OW15069   2.613   0.593   5.682
 1013SOL    HW115070   2.519   0.616   5.704
 1013SOL    HW215071   2.619   0.498   5.652
 1014SOL     OW15072   0.894   7.023   1.292
 1014SOL    HW115073   0.952   7.022   1.374
 1014SOL    HW215074   0.861   7.117   1.277
 1015SOL     OW15075   8.607   0.739   1.246
 1015SOL    HW115076   8.661   0.677   1.303
 1015SOL    HW215077   8.666   0.781   1.177
 1016SOL     OW15078   6.377   1.973   6.671
 1016SOL    HW115079   6.427   2.040   6.616
 1016SOL    HW215080   6.361   2.010   6.763
 1017SOL     OW15081   8.048   3.883   5.675
 1017SOL    HW115082   7.968   3.832   5.707
 1017SOL    HW215083   8.069   3.857   5.581
 1018SOL     OW15084   7.896   3.448   1.632
 1018SOL    HW115085   7.937   3.360   1.654
 1018SOL    HW215086   7.963   3.521   1.649
 1019SOL     OW15087   6.161   3.868   6.551
 1019SOL    HW115088   6.127   3.871   6.645
 1019SOL    HW215089   6.225   3.791   6.541
 1020SOL     OW15090   4.506   2.217   1.450
 1020SOL    HW115091   4.574   2.254   1.514
 1020SOL    HW215092   4.543   2.134   1.408
 1021SOL     OW15093   3.699   5.115   2.115
 1021SOL    HW115094   3.649   5.176   2.176
 1021SOL    HW215095   3.761   5.058   2.169
 1022SOL     OW15096   2.056   4.838   5.358
 1022SOL    HW115097   2.065   4.750   5.405
 1022SOL    HW215098   2.053   4.823   5.259
 1023SOL     OW15099   0.625   5.439   5.733
 1023SOL    HW115100   0.573   5.428   5.648
 1023SOL    HW215101   0.705   5.379   5.731
 1024SOL     OW15102   2.600   4.376   0.792
 1024SOL    HW115103   2.672   4.315   0.825
 1024SOL    HW215104   2.612   4.467   0.831
 1025SOL     OW15105   5.030   0.011   6.361
 1025SOL    HW115106   4.960  -0.048   6.402
 1025SOL    HW215107   4.997   0.105   6.359
 1026SOL     OW15108   6.868   5.453   6.273
 1026SOL    HW115109   6.908   5.426   6.185
 1026SOL    HW215110   6.788   5.510   6.257
 1027SOL     OW15111   4.303   4.293   1.183
 1027SOL    HW115112   4.322   4.364   1.251
 1027SOL    HW215113   4.386   4.275   1.131
 1028SOL     OW15114   6.465   4.483   0.720
 1028SOL    HW115115   6.537   4.546   0.693
 1028SOL    HW215116   6.504   4.393   0.737
 1029SOL     OW15117   0.216   5.451   1.090
 1029SOL    HW115118   0.196   5.472   1.186
 1029SOL    HW215119   0.218   5.535   1.037
 1030SOL     OW15120   1.002   3.266   1.158
 1030SOL    HW115121   0.947   3.273   1.075
 1030SOL    HW215122   0.943   3.281   1.238
 1031SOL     OW15123   4.790   2.938   7.001
 1031SOL    HW115124   4.809   2.965   6.906
 1031SOL    HW215125   4.781   3.020   7.058
 1032SOL     OW15126   8.281   8.010   6.351
 1032SOL    HW115127   8.195   8.010   6.403
 1032SOL    HW215128   8.275   7.942   6.277
 1033SOL     OW15129   0.490   7.968   6.948
 1033SOL    HW115130   0.406   7.939   6.994
 1033SOL    HW215131   0.476   7.968   6.849
 1034SOL     OW15132   3.220   0.740   6.959
 1034SOL    HW115133   3.301   0.762   7.013
 1034SOL    HW215134   3.144   0.799   6.987
 1035SOL     OW15135   6.949  -0.026   6.043
 1035SOL    HW115136   7.027   0.035   6.028
 1035SOL    HW215137   6.981  -0.120   6.051
 1036SOL     OW15138   9.531   5.678   0.489
 1036SOL    HW115139   9.477   5.697   0.571
 1036SOL    HW215140   9.539   5.580   0.476
 1037SOL     OW15141   0.759   1.302   0.867
 1037SOL    HW115142   0.734   1.351   0.950
 1037SOL    HW215143   0.738   1.359   0.787
 1038SOL     OW15144   6.760   0.515   0.306
 1038SOL    HW115145   6.799   0.461   0.381
 1038SOL    HW215146   6.784   0.473   0.219
 1039SOL     OW15147   0.185   6.467   5.095
 1039SOL    HW115148   0.098   6.451   5.048
 1039SOL    HW215149   0.260   6.465   5.028
 1040SOL     OW15150   3.696   6.829   5.840
 1040SOL    HW115151   3.666   6.771   5.916
 1040SOL    HW215152   3.617   6.856   5.786
 1041SOL     OW15153   2.010   4.941   5.821
 1041SOL    HW115154   1.995   4.967   5.726
 1041SOL    HW215155   2.044   4.847   5.825
 1042SOL     OW15156   6.009   1.791   1.132
 1042SOL    HW115157   5.974   1.699   1.149
 1042SOL    HW215158   6.055   1.825   1.214
 1043SOL     OW15159   5.192   3.546   1.368
 1043SOL    HW115160   5.217   3.626   1.423
 1043SOL    HW215161   5.242   3.548   1.281
 1044SOL     OW15162   9.241   4.281   0.719
 1044SOL    HW115163   9.270   4.347   0.650
 1044SOL    HW215164   9.262   4.189   0.688
 1045SOL     OW15165   2.106   4.765   0.448
 1045SOL    HW115166   2.097   4.726   0.357
 1045SOL    HW215167   2.191   4.732   0.490
 1046SOL     OW15168   3.341   2.419   2.864
 1046SOL    HW115169   3.364   2.477   2.786
 1046SOL    HW215170   3.394   2.449   2.944
 1047SOL     OW15171   6.412   5.898   6.318
 1047SOL    HW115172   6.373   5.819   6.367
 1047SOL    HW215173   6.350   5.924   6.244
 1048SOL     OW15174   2.366   3.906   6.716
 1048SOL    HW115175   2.315   3.872   6.795
 1048SOL    HW215176   2.394   4.001   6.732
 1049SOL     OW15177   8.800   3.390   6.468
 1049SOL    HW115178   8.771   3.474   6.423
 1049SOL    HW215179   8.772   3.392   6.564
 1050SOL     OW15180   9.220   6.018   6.342
 1050SOL    HW115181   9.210   5.925   6.306
 1050SOL    HW215182   9.284   6.017   6.419
 1051SOL     OW15183   6.187   6.031   6.173
 1051SOL    HW115184   6.114   5.983   6.125
 1051SOL    HW215185   6.165   6.037   6.270
 1052SOL     OW15186   9.484   7.938   1.198
 1052SOL    HW115187   9.447   7.923   1.107
 1052SOL    HW215188   9.483   8.036   1.219
 1053SOL     OW15189   8.694   6.238   1.088
 1053SOL    HW115190   8.661   6.154   1.045
 1053SOL    HW215191   8.754   6.214   1.165
 1054SOL     OW15192   9.495   2.439   0.985
 1054SOL    HW115193   9.595   2.431   0.985
 1054SOL    HW215194   9.469   2.534   0.969
 1055SOL     OW15195   4.778   4.809   5.519
 1055SOL    HW115196   4.861   4.852   5.555
 1055SOL    HW215197   4.728   4.876   5.465
 1056SOL     OW15198   1.298   7.486   6.155
 1056SOL    HW115199   1.217   7.542   6.138
 1056SOL    HW215200   1.306   7.466   6.252
 1057SOL     OW15201   4.333   1.499   6.113
 1057SOL    HW115202   4.279   1.417   6.094
 1057SOL    HW215203   4.396   1.516   6.037
 1058SOL     OW15204   1.655   8.403   5.139
 1058SOL    HW115205   1.745   8.415   5.099
 1058SOL    HW215206   1.603   8.337   5.084
 1059SOL     OW15207   3.066   1.924   1.988
 1059SOL    HW115208   3.044   1.900   1.893
 1059SOL    HW215209   3.135   1.997   1.989
 1060SOL     OW15210   6.942   0.845   0.835
 1060SOL    HW115211   6.912   0.754   0.808
 1060SOL    HW215212   6.955   0.901   0.753
 1061SOL     OW15213   9.423   5.229   6.015
 1061SOL    HW115214   9.431   5.327   6.034
 1061SOL    HW215215   9.410   5.180   6.101
 1062SOL     OW15216   7.824   3.566   6.660
 1062SOL    HW115217   7.784   3.486   6.705
 1062SOL    HW215218   7.888   3.537   6.590
 1063SOL     OW15219   6.727   1.465   0.420
 1063SOL    HW115220   6.668   1.423   0.490
 1063SOL    HW215221   6.769   1.394   0.364
 1064SOL     OW15222   4.513   7.765   6.010
 1064SOL    HW115223   4.598   7.755   5.959
 1064SOL    HW215224   4.464   7.678   6.009
 1065SOL     OW15225   2.592   5.332   6.133
 1065SOL    HW115226   2.562   5.417   6.177
 1065SOL    HW215227   2.688   5.341   6.107
 1066SOL     OW15228   0.864   5.624   6.481
 1066SOL    HW115229   0.962   5.637   6.469
 1066SOL    HW215230   0.848   5.555   6.552
 1067SOL     OW15231   3.147   1.657   2.035
 1067SOL    HW115232   3.121   1.753   2.026
 1067SOL    HW215233   3.234   1.641   1.988
 1068SOL     OW15234   7.182   1.026   0.403
 1068SOL    HW115235   7.237   1.106   0.427
 1068SOL    HW215236   7.241   0.958   0.358
 1069SOL     OW15237   9.524   5.632   0.770
 1069SOL    HW115238   9.511   5.534   0.786
 1069SOL    HW215239   9.450   5.683   0.812
 1070SOL     OW15240   0.751   6.213   5.291
 1070SOL    HW115241   0.808   6.197   5.371
 1070SOL    HW215242   0.803   6.194   5.208
 1071SOL     OW15243   2.521   4.325   1.478
 1071SOL    HW115244   2.605   4.351   1.429
 1071SOL    HW215245   2.542   4.255   1.546
 1072SOL     OW15246   9.026   5.194   6.951
 1072SOL    HW115247   9.003   5.234   6.862
 1072SOL    HW215248   8.957   5.219   7.018
 1073SOL     OW15249   4.848   6.032   6.418
 1073SOL    HW115250   4.882   6.018   6.325
 1073SOL    HW215251   4.821   5.945   6.458
 1074SOL     OW15252   5.750   7.478   0.382
 1074SOL    HW115253   5.697   7.462   0.298
 1074SOL    HW215254   5.688   7.475   0.461
 1075SOL     OW15255   0.630  -0.055   0.676
 1075SOL    HW115256   0.724  -0.065   0.709
 1075SOL    HW215257   0.575  -0.131   0.709
 1076SOL     OW15258   1.297   2.933   6.044
 1076SOL    HW115259   1.356   2.960   5.968
 1076SOL    HW215260   1.232   3.007   6.063
 1077SOL     OW15261   8.853   7.450   6.318
 1077SOL    HW115262   8.843   7.444   6.418
 1077SOL    HW215263   8.906   7.531   6.295
 1078SOL     OW15264   1.640   6.585   5.818
 1078SOL    HW115265   1.603   6.667   5.774
 1078SOL    HW215266   1.633   6.595   5.917
 1079SOL     OW15267   1.054   7.111   6.618
 1079SOL    HW115268   0.964   7.087   6.654
 1079SOL    HW215269   1.063   7.075   6.525
 1080SOL     OW15270   4.671   5.446   0.728
 1080SOL    HW115271   4.690   5.537   0.766
 1080SOL    HW215272   4.734   5.380   0.769
 1081SOL     OW15273   2.107   5.977   6.346
 1081SOL    HW115274   2.022   5.982   6.294
 1081SOL    HW215275   2.128   6.067   6.385
 1082SOL     OW15276   6.147   1.818   6.110
 1082SOL    HW115277   6.148   1.827   6.010
 1082SOL    HW215278   6.228   1.863   6.147
 1083SOL     OW15279   0.472   0.298   6.810
 1083SOL    HW115280   0.540   0.337   6.748
 1083SOL    HW215281   0.515   0.275   6.897
 1084SOL     OW15282   4.479   2.864   6.687
 1084SOL    HW115283   4.461   2.809   6.768
 1084SOL    HW215284   4.509   2.804   6.612
 1085SOL     OW15285   7.400   7.042   6.707
 1085SOL    HW115286   7.415   6.944   6.724
 1085SOL    HW215287   7.301   7.060   6.705
 1086SOL     OW15288   1.550   7.716   6.589
 1086SOL    HW115289   1.497   7.637   6.558
 1086SOL    HW215290   1.596   7.759   6.511
 1087SOL     OW15291   5.523   8.311   6.850
 1087SOL    HW115292   5.548   8.365   6.931
 1087SOL    HW215293   5.522   8.371   6.770
 1088SOL     OW15294   6.668   4.405   6.149
 1088SOL    HW115295   6.753   4.360   6.177
 1088SOL    HW215296   6.681   4.504   6.147
 1089SOL     OW15297   0.618   6.907   5.998
 1089SOL    HW115298   0.627   6.846   5.919
 1089SOL    HW215299   0.679   6.874   6.071
 1090SOL     OW15300   0.640   7.652   0.528
 1090SOL    HW115301   0.739   7.643   0.516
 1090SOL    HW215302   0.613   7.747   0.513
 1091SOL     OW15303   8.733   7.760   0.568
 1091SOL    HW115304   8.695   7.669   0.588
 1091SOL    HW215305   8.832   7.757   0.574
 1092SOL     OW15306   8.427   6.991   1.930
 1092SOL    HW115307   8.339   7.036   1.912
 1092SOL    HW215308   8.459   7.017   2.021
 1093SOL     OW15309   4.731   6.089   1.622
 1093SOL    HW115310   4.695   6.031   1.548
 1093SOL    HW215311   4.716   6.185   1.598
 1094SOL     OW15312   2.581   0.772   6.402
 1094SOL    HW115313   2.579   0.672   6.403
 1094SOL    HW215314   2.649   0.805   6.467
 1095SOL     OW15315   4.056   0.410   6.943
 1095SOL    HW115316   4.072   0.334   7.006
 1095SOL    HW215317   4.138   0.424   6.887
 1096SOL     OW15318   5.354   6.616   1.148
 1096SOL    HW115319   5.323   6.629   1.242
 1096SOL    HW215320   5.318   6.690   1.091
 1097SOL     OW15321   2.309   4.329   1.307
 1097SOL    HW115322   2.233   4.320   1.371
 1097SOL    HW215323   2.395   4.332   1.357
 1098SOL     OW15324   4.003   7.805   0.686
 1098SOL    HW115325   4.038   7.730   0.741
 1098SOL    HW215326   3.922   7.844   0.730
 1099SOL     OW15327   6.203   1.931   0.758
 1099SOL    HW115328   6.145   1.923   0.677
 1099SOL    HW215329   6.270   1.857   0.758
 1100SOL     OW15330   1.229   2.167   6.315
 1100SOL    HW115331   1.287   2.236   6.272
 1100SOL    HW215332   1.134   2.200   6.318
 1101SOL     OW15333   6.432   6.097   6.614
 1101SOL    HW115334   6.475   6.027   6.671
 1101SOL    HW215335   6.462   6.188   6.644
 1102SOL     OW15336   4.286   3.949   2.195
 1102SOL    HW115337   4.293   3.870   2.255
 1102SOL    HW215338   4.375   3.994   2.189
 1103SOL     OW15339   0.146   0.521   0.365
 1103SOL    HW115340   0.125   0.615   0.336
 1103SOL    HW215341   0.177   0.468   0.287
 1104SOL     OW15342   7.859   5.808   5.377
 1104SOL    HW115343   7.929   5.852   5.321
 1104SOL    HW215344   7.788   5.875   5.399
 1105SOL     OW15345   8.766   7.376   1.537
 1105SOL    HW115346   8.819   7.351   1.618
 1105SOL    HW215347   8.673   7.340   1.547
 1106SOL     OW15348   9.173   6.534   0.871
 1106SOL    HW115349   9.084   6.488   0.870
 1106SOL    HW215350   9.160   6.633   0.881
 1107SOL     OW15351   5.150   7.647   1.431
 1107SOL    HW115352   5.091   7.610   1.360
 1107SOL    HW215353   5.211   7.575   1.465
 1108SOL     OW15354   8.618   6.231   5.029
 1108SOL    HW115355   8.555   6.254   4.954
 1108SOL    HW215356   8.702   6.193   4.991
 1109SOL     OW15357   4.740   4.281   0.305
 1109SOL    HW115358   4.838   4.271   0.291
 1109SOL    HW215359   4.714   4.235   0.390
 1110SOL     OW15360   7.642   4.854   1.487
 1110SOL    HW115361   7.697   4.803   1.553
 1110SOL    HW215362   7.703   4.907   1.427
 1111SOL     OW15363   5.836   5.415   0.961
 1111SOL    HW115364   5.750   5.438   1.006
 1111SOL    HW215365   5.871   5.329   0.999
 1112SOL     OW15366   2.693   5.227   5.847
 1112SOL    HW115367   2.789   5.202   5.835
 1112SOL    HW215368   2.661   5.194   5.936
 1113SOL     OW15369   0.187   6.797   4.226
 1113SOL    HW115370   0.148   6.749   4.147
 1113SOL    HW215371   0.117   6.853   4.270
 1114SOL     OW15372   2.433   8.320   1.287
 1114SOL    HW115373   2.394   8.243   1.337
 1114SOL    HW215374   2.512   8.288   1.233
 1115SOL     OW15375   6.813   1.049   1.468
 1115SOL    HW115376   6.836   0.957   1.499
 1115SOL    HW215377   6.887   1.112   1.490
 1116SOL     OW15378   7.819   3.114   1.384
 1116SOL    HW115379   7.893   3.078   1.329
 1116SOL    HW215380   7.822   3.073   1.476
 1117SOL     OW15381   4.634   1.196   6.432
 1117SOL    HW115382   4.656   1.200   6.529
 1117SOL    HW215383   4.718   1.177   6.380
 1118SOL     OW15384   6.880   6.940   6.482
 1118SOL    HW115385   6.864   6.854   6.433
 1118SOL    HW215386   6.921   7.007   6.419
 1119SOL     OW15387   6.926   2.722   6.744
 1119SOL    HW115388   6.992   2.767   6.804
 1119SOL    HW215389   6.919   2.626   6.769
 1120SOL     OW15390   9.108   6.573   0.528
 1120SOL    HW115391   9.061   6.619   0.453
 1120SOL    HW215392   9.205   6.565   0.508
 1121SOL     OW15393   4.281   6.990   1.719
 1121SOL    HW115394   4.337   6.907   1.716
 1121SOL    HW215395   4.225   6.996   1.636
 1122SOL     OW15396   2.959   0.941   1.221
 1122SOL    HW115397   2.920   0.902   1.138
 1122SOL    HW215398   2.894   1.005   1.262
 1123SOL     OW15399   3.859   3.161   6.231
 1123SOL    HW115400   3.776   3.107   6.216
 1123SOL    HW215401   3.934   3.124   6.177
 1124SOL     OW15402   5.524   4.369   6.104
 1124SOL    HW115403   5.484   4.278   6.092
 1124SOL    HW215404   5.540   4.410   6.015
 1125SOL     OW15405   5.700   6.170   1.600
 1125SOL    HW115406   5.637   6.185   1.525
 1125SOL    HW215407   5.786   6.133   1.564
 1126SOL     OW15408   4.899   0.872   1.490
 1126SOL    HW115409   4.817   0.815   1.498
 1126SOL    HW215410   4.976   0.814   1.462
 1127SOL     OW15411   0.197   8.138   6.977
 1127SOL    HW115412   0.119   8.107   7.031
 1127SOL    HW215413   0.270   8.168   7.038
 1128SOL     OW15414   4.616   0.189   6.256
 1128SOL    HW115415   4.630   0.211   6.159
 1128SOL    HW215416   4.572   0.099   6.263
 1129SOL     OW15417   9.290   4.651   5.737
 1129SOL    HW115418   9.295   4.613   5.644
 1129SOL    HW215419   9.382   4.673   5.768
 1130SOL     OW15420   4.776   1.534   2.200
 1130SOL    HW115421   4.816   1.623   2.221
 1130SOL    HW215422   4.848   1.466   2.192
 1131SOL     OW15423   0.691   7.647   5.854
 1131SOL    HW115424   0.701   7.564   5.800
 1131SOL    HW215425   0.606   7.642   5.907
 1132SOL     OW15426   0.222   0.231   0.954
 1132SOL    HW115427   0.283   0.240   1.033
 1132SOL    HW215428   0.277   0.228   0.871
 1133SOL     OW15429   8.596   0.981   5.522
 1133SOL    HW115430   8.648   0.896   5.531
 1133SOL    HW215431   8.553   0.984   5.432
 1134SOL     OW15432   6.878   4.968   5.917
 1134SOL    HW115433   6.900   4.896   5.851
 1134SOL    HW215434   6.918   5.054   5.887
 1135SOL     OW15435   1.269   1.249   6.070
 1135SOL    HW115436   1.201   1.233   6.142
 1135SOL    HW215437   1.355   1.204   6.095
 1136SOL     OW15438   3.026   0.620   1.889
 1136SOL    HW115439   3.016   0.643   1.986
 1136SOL    HW215440   3.116   0.579   1.874
 1137SOL     OW15441   5.264   5.010   6.160
 1137SOL    HW115442   5.238   5.071   6.086
 1137SOL    HW215443   5.364   5.003   6.165
 1138SOL     OW15444   1.336   3.210   0.583
 1138SOL    HW115445   1.369   3.128   0.535
 1138SOL    HW215446   1.412   3.253   0.632
 1139SOL     OW15447   2.489   1.589   6.755
 1139SOL    HW115448   2.415   1.582   6.688
 1139SOL    HW215449   2.526   1.682   6.756
 1140SOL     OW15450   9.013   5.163   5.653
 1140SOL    HW115451   8.949   5.172   5.576
 1140SOL    HW215452   8.962   5.172   5.739
 1141SOL     OW15453   1.865   6.249   0.664
 1141SOL    HW115454   1.936   6.287   0.724
 1141SOL    HW215455   1.908   6.202   0.588
 1142SOL     OW15456   5.710   0.429   5.131
 1142SOL    HW115457   5.772   0.479   5.070
 1142SOL    HW215458   5.644   0.378   5.076
 1143SOL     OW15459   8.757   7.640   1.224
 1143SOL    HW115460   8.735   7.632   1.321
 1143SOL    HW215461   8.674   7.660   1.172
 1144SOL     OW15462   2.985   0.676   6.480
 1144SOL    HW115463   2.940   0.613   6.418
 1144SOL    HW215464   2.917   0.737   6.522
 1145SOL     OW15465   9.303   8.302   5.771
 1145SOL    HW115466   9.272   8.228   5.710
 1145SOL    HW215467   9.231   8.321   5.839
 1146SOL     OW15468   8.456   2.332   6.523
 1146SOL    HW115469   8.495   2.250   6.481
 1146SOL    HW215470   8.377   2.307   6.579
 1147SOL     OW15471   0.731   1.303   1.501
 1147SOL    HW115472   0.668   1.253   1.559
 1147SOL    HW215473   0.680   1.358   1.435
 1148SOL     OW15474   6.186   5.777   1.059
 1148SOL    HW115475   6.273   5.731   1.075
 1148SOL    HW215476   6.204   5.868   1.021
 1149SOL     OW15477   6.356   0.076   0.519
 1149SOL    HW115478   6.279   0.113   0.571
 1149SOL    HW215479   6.438   0.130   0.538
 1150SOL     OW15480   7.687   0.860   6.337
 1150SOL    HW115481   7.703   0.905   6.248
 1150SOL    HW215482   7.600   0.811   6.334
 1151SOL     OW15483   0.124   1.596   1.129
 1151SOL    HW115484   0.216   1.606   1.169
 1151SOL    HW215485   0.120   1.645   1.042
 1152SOL     OW15486   3.954   2.620   1.165
 1152SOL    HW115487   3.927   2.546   1.227
 1152SOL    HW215488   3.889   2.626   1.089
 1153SOL     OW15489   4.818   5.772   6.565
 1153SOL    HW115490   4.885   5.766   6.639
 1153SOL    HW215491   4.733   5.730   6.595
 1154SOL     OW15492   4.164   8.231   1.578
 1154SOL    HW115493   4.195   8.253   1.670
 1154SOL    HW215494   4.093   8.295   1.550
 1155SOL     OW15495   8.550   1.761   5.959
 1155SOL    HW115496   8.560   1.697   5.882
 1155SOL    HW215497   8.459   1.803   5.956
 1156SOL     OW15498   8.405   0.406   5.793
 1156SOL    HW115499   8.478   0.456   5.839
 1156SOL    HW215500   8.413   0.419   5.694
 1157SOL     OW15501   8.178   4.543   6.033
 1157SOL    HW115502   8.193   4.466   5.972
 1157SOL    HW215503   8.253   4.550   6.098
 1158SOL     OW15504   1.928   5.507   5.876
 1158SOL    HW115505   1.895   5.416   5.901
 1158SOL    HW215506   1.919   5.521   5.778
 1159SOL     OW15507   4.472   2.094   1.987
 1159SOL    HW115508   4.516   2.022   2.041
 1159SOL    HW215509   4.541   2.145   1.937
 1160SOL     OW15510   3.710   1.969   2.501
 1160SOL    HW115511   3.671   1.885   2.462
 1160SOL    HW215512   3.748   1.949   2.592
 1161SOL     OW15513   1.406   0.184   5.649
 1161SOL    HW115514   1.361   0.095   5.642
 1161SOL    HW215515   1.345   0.247   5.697
 1162SOL     OW15516   3.399   7.570   1.311
 1162SOL    HW115517   3.491   7.532   1.306
 1162SOL    HW215518   3.349   7.548   1.228
 1163SOL     OW15519   2.092   7.561   0.750
 1163SOL    HW115520   2.123   7.472   0.716
 1163SOL    HW215521   2.101   7.629   0.678
 1164SOL     OW15522   4.881   1.292   1.265
 1164SOL    HW115523   4.957   1.352   1.243
 1164SOL    HW215524   4.885   1.266   1.362
 1165SOL     OW15525   7.882   0.698   6.482
 1165SOL    HW115526   7.808   0.744   6.433
 1165SOL    HW215527   7.910   0.616   6.431
 1166SOL     OW15528   1.875   4.965   1.462
 1166SOL    HW115529   1.857   5.006   1.373
 1166SOL    HW215530   1.863   4.866   1.456
 1167SOL     OW15531   6.075   2.240   1.671
 1167SOL    HW115532   6.138   2.301   1.719
 1167SOL    HW215533   5.986   2.284   1.661
 1168SOL     OW15534   9.231   0.556   0.397
 1168SOL    HW115535   9.280   0.631   0.441
 1168SOL    HW215536   9.295   0.484   0.371
 1169SOL     OW15537   0.709   5.889   6.170
 1169SOL    HW115538   0.655   5.971   6.190
 1169SOL    HW215539   0.649   5.810   6.160
 1170SOL     OW15540   6.331   1.995   1.062
 1170SOL    HW115541   6.231   2.000   1.055
 1170SOL    HW215542   6.371   2.018   0.973
 1171SOL     OW15543   2.546   1.769   0.362
 1171SOL    HW115544   2.623   1.831   0.375
 1171SOL    HW215545   2.577   1.674   0.370
 1172SOL     OW15546   4.503   3.271   6.263
 1172SOL    HW115547   4.511   3.315   6.174
 1172SOL    HW215548   4.438   3.322   6.320
 1173SOL     OW15549   5.983   6.202   6.714
 1173SOL    HW115550   6.033   6.288   6.713
 1173SOL    HW215551   5.961   6.174   6.621
 1174SOL     OW15552   6.303   7.412   1.230
 1174SOL    HW115553   6.211   7.372   1.228
 1174SOL    HW215554   6.343   7.407   1.139
 1175SOL     OW15555   8.417   4.507   6.136
 1175SOL    HW115556   8.462   4.579   6.190
 1175SOL    HW215557   8.487   4.455   6.087
 1176SOL     OW15558   1.628   3.540   6.237
 1176SOL    HW115559   1.585   3.588   6.160
 1176SOL    HW215560   1.726   3.556   6.235
 1177SOL     OW15561   2.583   0.234   1.879
 1177SOL    HW115562   2.636   0.156   1.846
 1177SOL    HW215563   2.519   0.204   1.950
 1178SOL     OW15564   4.166   7.283   6.730
 1178SOL    HW115565   4.109   7.348   6.681
 1178SOL    HW215566   4.193   7.208   6.669
 1179SOL     OW15567   1.400   6.272   6.838
 1179SOL    HW115568   1.331   6.329   6.793
 1179SOL    HW215569   1.396   6.286   6.937
 1180SOL     OW15570   7.088   6.006   5.649
 1180SOL    HW115571   7.152   6.006   5.571
 1180SOL    HW215572   7.007   5.952   5.626
 1181SOL     OW15573   7.476   7.784   6.322
 1181SOL    HW115574   7.518   7.873   6.303
 1181SOL    HW215575   7.434   7.748   6.239
 1182SOL     OW15576   4.662   1.210   5.847
 1182SOL    HW115577   4.642   1.289   5.790
 1182SOL    HW215578   4.580   1.154   5.858
 1183SOL     OW15579   2.317   0.312   2.282
 1183SOL    HW115580   2.249   0.326   2.354
 1183SOL    HW215581   2.320   0.393   2.223
 1184SOL     OW15582   6.464   1.986   1.316
 1184SOL    HW115583   6.408   1.984   1.234
 1184SOL    HW215584   6.497   2.080   1.332
 1185SOL     OW15585   8.408   6.419   1.898
 1185SOL    HW115586   8.325   6.372   1.930
 1185SOL    HW215587   8.473   6.424   1.973
 1186SOL     OW15588   5.994   3.473   6.529
 1186SOL    HW115589   6.085   3.434   6.522
 1186SOL    HW215590   5.938   3.440   6.453
 1187SOL     OW15591   3.010   3.922   6.371
 1187SOL    HW115592   3.089   3.928   6.310
 1187SOL    HW215593   2.964   4.011   6.375
 1188SOL     OW15594   6.400   4.342   1.610
 1188SOL    HW115595   6.316   4.298   1.640
 1188SOL    HW215596   6.458   4.360   1.690
 1189SOL     OW15597   5.465   0.010   6.662
 1189SOL    HW115598   5.481   0.102   6.697
 1189SOL    HW215599   5.417   0.014   6.575
 1190SOL     OW15600   5.845   0.130   1.610
 1190SOL    HW115601   5.878   0.038   1.630
 1190SOL    HW215602   5.912   0.178   1.554
 1191SOL     OW15603   0.389   7.276   0.311
 1191SOL    HW115604   0.436   7.187   0.307
 1191SOL    HW215605   0.375   7.310   0.218
 1192SOL     OW15606   3.953   6.533   6.150
 1192SOL    HW115607   3.931   6.572   6.240
 1192SOL    HW215608   4.046   6.558   6.125
 1193SOL     OW15609   2.578   7.243   6.025
 1193SOL    HW115610   2.506   7.261   6.092
 1193SOL    HW215611   2.588   7.322   5.964
 1194SOL     OW15612   8.183   3.928   6.621
 1194SOL    HW115613   8.235   3.891   6.698
 1194SOL    HW215614   8.088   3.895   6.627
 1195SOL     OW15615   0.850   8.158   5.252
 1195SOL    HW115616   0.805   8.242   5.221
 1195SOL    HW215617   0.782   8.098   5.294
 1196SOL     OW15618   3.432   1.533   6.191
 1196SOL    HW115619   3.489   1.460   6.152
 1196SOL    HW215620   3.412   1.601   6.120
 1197SOL     OW15621   1.986   2.961   1.105
 1197SOL    HW115622   2.015   2.949   1.200
 1197SOL    HW215623   1.913   2.897   1.084
 1198SOL     OW15624   0.301   0.263   1.241
 1198SOL    HW115625   0.260   0.342   1.286
 1198SOL    HW215626   0.251   0.181   1.266
 1199SOL     OW15627   7.307   6.691   6.408
 1199SOL    HW115628   7.239   6.752   6.367
 1199SOL    HW215629   7.289   6.597   6.379
 1200SOL     OW15630   7.656   0.136   1.339
 1200SOL    HW115631   7.661   0.199   1.416
 1200SOL    HW215632   7.740   0.082   1.335
 1201SOL     OW15633   7.284   3.700   1.383
 1201SOL    HW115634   7.187   3.680   1.384
 1201SOL    HW215635   7.311   3.743   1.469
 1202SOL     OW15636   1.128   3.048   6.274
 1202SOL    HW115637   1.059   2.989   6.316
 1202SOL    HW215638   1.144   3.128   6.333
 1203SOL     OW15639   8.697   3.031   5.687
 1203SOL    HW115640   8.628   3.007   5.756
 1203SOL    HW215641   8.674   2.988   5.600
 1204SOL     OW15642   2.394   6.068   5.970
 1204SOL    HW115643   2.329   5.994   5.987
 1204SOL    HW215644   2.443   6.050   5.885
 1205SOL     OW15645   4.189   8.364   1.202
 1205SOL    HW115646   4.120   8.333   1.266
 1205SOL    HW215647   4.145   8.403   1.121
 1206SOL     OW15648   5.252   0.677   1.029
 1206SOL    HW115649   5.190   0.671   0.951
 1206SOL    HW215650   5.342   0.643   1.003
 1207SOL     OW15651   5.029   6.939   6.923
 1207SOL    HW115652   5.095   6.974   6.990
 1207SOL    HW215653   4.938   6.933   6.966
 1208SOL     OW15654   2.869   6.147   6.165
 1208SOL    HW115655   2.790   6.086   6.175
 1208SOL    HW215656   2.841   6.240   6.188
 1209SOL     OW15657   6.439   4.966   6.904
 1209SOL    HW115658   6.355   4.920   6.875
 1209SOL    HW215659   6.451   5.051   6.852
 1210SOL     OW15660   9.307   5.616   6.887
 1210SOL    HW115661   9.218   5.660   6.899
 1210SOL    HW215662   9.380   5.682   6.904
 1211SOL     OW15663   5.133   7.851   6.749
 1211SOL    HW115664   5.189   7.769   6.734
 1211SOL    HW215665   5.188   7.932   6.730
 1212SOL     OW15666   8.015   3.801   0.337
 1212SOL    HW115667   7.955   3.866   0.291
 1212SOL    HW215668   8.064   3.848   0.410
 1213SOL     OW15669   5.196   2.994   0.651
 1213SOL    HW115670   5.114   2.959   0.607
 1213SOL    HW215671   5.269   3.005   0.583
 1214SOL     OW15672   9.260   3.226   1.814
 1214SOL    HW115673   9.322   3.174   1.874
 1214SOL    HW215674   9.217   3.165   1.748
 1215SOL     OW15675   4.960   0.964   6.520
 1215SOL    HW115676   4.976   0.889   6.583
 1215SOL    HW215677   5.034   0.968   6.453
 1216SOL     OW15678   5.858   0.034   2.332
 1216SOL    HW115679   5.908   0.100   2.387
 1216SOL    HW215680   5.863  -0.056   2.375
 1217SOL     OW15681   8.067   4.079   0.678
 1217SOL    HW115682   8.103   4.170   0.661
 1217SOL    HW215683   8.122   4.011   0.630
 1218SOL     OW15684   3.029   5.180   6.524
 1218SOL    HW115685   2.960   5.250   6.510
 1218SOL    HW215686   3.031   5.154   6.621
 1219SOL     OW15687   9.172   1.497   1.524
 1219SOL    HW115688   9.108   1.507   1.447
 1219SOL    HW215689   9.126   1.520   1.609
 1220SOL     OW15690   6.703   2.759   5.975
 1220SOL    HW115691   6.762   2.690   6.018
 1220SOL    HW215692   6.756   2.842   5.960
 1221SOL     OW15693   4.768   6.854   2.143
 1221SOL    HW115694   4.755   6.758   2.166
 1221SOL    HW215695   4.749   6.911   2.223
 1222SOL     OW15696   1.515   3.591   6.851
 1222SOL    HW115697   1.472   3.552   6.932
 1222SOL    HW215698   1.535   3.519   6.785
 1223SOL     OW15699   8.059   1.105   6.984
 1223SOL    HW115700   8.150   1.063   6.974
 1223SOL    HW215701   8.038   1.117   7.081
 1224SOL     OW15702   9.235   1.924   6.263
 1224SOL    HW115703   9.289   1.937   6.346
 1224SOL    HW215704   9.141   1.956   6.279
 1225SOL     OW15705   4.221   6.428   6.485
 1225SOL    HW115706   4.205   6.523   6.509
 1225SOL    HW215707   4.157   6.400   6.413
 1226SOL     OW15708   5.035   4.891   5.688
 1226SOL    HW115709   5.070   4.797   5.685
 1226SOL    HW215710   5.061   4.940   5.605
 1227SOL     OW15711   5.398   7.423   5.998
 1227SOL    HW115712   5.403   7.393   5.903
 1227SOL    HW215713   5.426   7.348   6.058
 1228SOL     OW15714   3.889   1.513   0.321
 1228SOL    HW115715   3.979   1.532   0.282
 1228SOL    HW215716   3.880   1.414   0.336
 1229SOL     OW15717   7.397   6.535   1.776
 1229SOL    HW115718   7.394   6.551   1.875
 1229SOL    HW215719   7.416   6.621   1.729
 1230SOL     OW15720   6.089   3.864   6.814
 1230SOL    HW115721   5.998   3.845   6.776
 1230SOL    HW215722   6.119   3.786   6.868
 1231SOL     OW15723   1.297   6.022   6.740
 1231SOL    HW115724   1.338   6.108   6.770
 1231SOL    HW215725   1.199   6.024   6.758
 1232SOL     OW15726   7.303   5.391   6.468
 1232SOL    HW115727   7.381   5.447   6.440
 1232SOL    HW215728   7.219   5.446   6.463
 1233SOL     OW15729   3.626   3.293   1.757
 1233SOL    HW115730   3.627   3.367   1.823
 1233SOL    HW215731   3.634   3.205   1.805
 1234SOL     OW15732   5.505   0.389   1.482
 1234SOL    HW115733   5.412   0.352   1.490
 1234SOL    HW215734   5.502   0.473   1.427
 1235SOL     OW15735   2.224   1.616   0.860
 1235SOL    HW115736   2.237   1.539   0.922
 1235SOL    HW215737   2.127   1.629   0.841
 1236SOL     OW15738   6.112   5.339   5.563
 1236SOL    HW115739   6.131   5.284   5.645
 1236SOL    HW215740   6.070   5.281   5.494
 1237SOL     OW15741   3.858   3.815   0.891
 1237SOL    HW115742   3.899   3.792   0.802
 1237SOL    HW215743   3.785   3.881   0.877
 1238SOL     OW15744   4.091   7.575   0.452
 1238SOL    HW115745   4.108   7.512   0.528
 1238SOL    HW215746   4.153   7.653   0.460
 1239SOL     OW15747   9.460   2.042   6.073
 1239SOL    HW115748   9.392   1.977   6.107
 1239SOL    HW215749   9.450   2.053   5.974
 1240SOL     OW15750   2.389   6.565   0.671
 1240SOL    HW115751   2.331   6.628   0.619
 1240SOL    HW215752   2.434   6.615   0.745
 1241SOL     OW15753   5.954   6.174   6.967
 1241SOL    HW115754   5.964   6.178   6.868
 1241SOL    HW215755   5.933   6.265   7.002
 1242SOL     OW15756   2.270   4.223   0.452
 1242SOL    HW115757   2.358   4.212   0.406
 1242SOL    HW215758   2.269   4.164   0.533
 1243SOL     OW15759   9.376   1.567   6.698
 1243SOL    HW115760   9.413   1.576   6.790
 1243SOL    HW215761   9.343   1.473   6.684
 1244SOL     OW15762   3.364   4.758   0.308
 1244SOL    HW115763   3.317   4.738   0.394
 1244SOL    HW215764   3.437   4.824   0.325
 1245SOL     OW15765   5.781   6.918   0.471
 1245SOL    HW115766   5.727   6.857   0.530
 1245SOL    HW215767   5.748   6.911   0.377
 1246SOL     OW15768   3.027   5.455   1.016
 1246SOL    HW115769   3.093   5.504   1.071
 1246SOL    HW215770   2.939   5.453   1.064
 1247SOL     OW15771   8.626   1.854   6.408
 1247SOL    HW115772   8.659   1.776   6.461
 1247SOL    HW215773   8.606   1.825   6.314
 1248SOL     OW15774   6.731   2.384   0.594
 1248SOL    HW115775   6.708   2.454   0.661
 1248SOL    HW215776   6.723   2.293   0.636
 1249SOL     OW15777   1.681   3.931   6.928
 1249SOL    HW115778   1.730   3.846   6.908
 1249SOL    HW215779   1.617   3.916   7.003
 1250SOL     OW15780   5.485   0.748   0.917
 1250SOL    HW115781   5.413   0.803   0.874
 1250SOL    HW215782   5.526   0.799   0.992
 1251SOL     OW15783   4.710   6.230   6.924
 1251SOL    HW115784   4.762   6.259   7.004
 1251SOL    HW215785   4.746   6.275   6.843
 1252SOL     OW15786   2.235   1.619   1.420
 1252SOL    HW115787   2.220   1.642   1.516
 1252SOL    HW215788   2.257   1.702   1.369
 1253SOL     OW15789   8.218   5.628   6.549
 1253SOL    HW115790   8.241   5.613   6.453
 1253SOL    HW215791   8.134   5.682   6.556
 1254SOL     OW15792   1.155   5.425   5.954
 1254SOL    HW115793   1.056   5.435   5.942
 1254SOL    HW215794   1.194   5.514   5.979
 1255SOL     OW15795   6.616   4.683   0.634
 1255SOL    HW115796   6.595   4.775   0.669
 1255SOL    HW215797   6.663   4.690   0.546
 1256SOL     OW15798   0.232   2.771   0.539
 1256SOL    HW115799   0.266   2.734   0.452
 1256SOL    HW215800   0.260   2.712   0.614
 1257SOL     OW15801   3.792   1.161   1.104
 1257SOL    HW115802   3.764   1.240   1.050
 1257SOL    HW215803   3.840   1.095   1.045
 1258SOL     OW15804   6.366   6.116   5.993
 1258SOL    HW115805   6.445   6.165   6.029
 1258SOL    HW215806   6.309   6.084   6.068
 1259SOL     OW15807   3.748   2.564   2.264
 1259SOL    HW115808   3.676   2.608   2.317
 1259SOL    HW215809   3.833   2.563   2.317
 1260SOL     OW15810   5.706   6.284   5.405
 1260SOL    HW115811   5.682   6.194   5.442
 1260SOL    HW215812   5.755   6.271   5.318
 1261SOL     OW15813   4.145   1.155   0.537
 1261SOL    HW115814   4.067   1.123   0.483
 1261SOL    HW215815   4.147   1.105   0.624
 1262SOL     OW15816   8.783   1.553   6.733
 1262SOL    HW115817   8.767   1.579   6.638
 1262SOL    HW215818   8.714   1.487   6.762
 1263SOL     OW15819   0.572   7.856   6.109
 1263SOL    HW115820   0.651   7.917   6.102
 1263SOL    HW215821   0.499   7.902   6.161
 1264SOL     OW15822   8.545   1.749   0.383
 1264SOL    HW115823   8.456   1.762   0.341
 1264SOL    HW215824   8.584   1.838   0.407
 1265SOL     OW15825   1.853   3.303   0.846
 1265SOL    HW115826   1.911   3.221   0.852
 1265SOL    HW215827   1.860   3.342   0.754
 1266SOL     OW15828   4.458   0.674   5.980
 1266SOL    HW115829   4.362   0.659   5.958
 1266SOL    HW215830   4.466   0.707   6.075
 1267SOL     OW15831   9.439   2.554   0.432
 1267SOL    HW115832   9.357   2.550   0.489
 1267SOL    HW215833   9.436   2.479   0.365
 1268SOL     OW15834   1.699   3.914   6.451
 1268SOL    HW115835   1.745   3.933   6.364
 1268SOL    HW215836   1.739   3.832   6.493
 1269SOL     OW15837   6.075   0.355   0.596
 1269SOL    HW115838   6.062   0.371   0.498
 1269SOL    HW215839   6.135   0.425   0.634
 1270SOL     OW15840   2.335   5.066   1.749
 1270SOL    HW115841   2.262   4.999   1.763
 1270SOL    HW215842   2.408   5.050   1.815
 1271SOL     OW15843   3.189   6.503   5.392
 1271SOL    HW115844   3.143   6.492   5.304
 1271SOL    HW215845   3.270   6.560   5.381
 1272SOL     OW15846   0.181   0.873   0.943
 1272SOL    HW115847   0.258   0.874   1.006
 1272SOL    HW215848   0.098   0.845   0.992
 1273SOL     OW15849   0.608   7.737   5.213
 1273SOL    HW115850   0.600   7.822   5.162
 1273SOL    HW215851   0.544   7.669   5.176
 1274SOL     OW15852   4.442   5.195   0.493
 1274SOL    HW115853   4.379   5.256   0.446
 1274SOL    HW215854   4.392   5.116   0.529
 1275SOL     OW15855   1.905   5.289   5.354
 1275SOL    HW115856   1.960   5.266   5.434
 1275SOL    HW215857   1.825   5.229   5.349
 1276SOL     OW15858   2.697   6.724   6.783
 1276SOL    HW115859   2.708   6.820   6.807
 1276SOL    HW215860   2.744   6.667   6.850
 1277SOL     OW15861   9.554   8.315   1.493
 1277SOL    HW115862   9.593   8.401   1.459
 1277SOL    HW215863   9.514   8.331   1.583
 1278SOL     OW15864   6.795   5.384   5.884
 1278SOL    HW115865   6.798   5.298   5.833
 1278SOL    HW215866   6.886   5.405   5.919
 1279SOL     OW15867   4.770   5.295   5.683
 1279SOL    HW115868   4.730   5.205   5.702
 1279SOL    HW215869   4.709   5.347   5.623
 1280SOL     OW15870   1.203   5.678   6.262
 1280SOL    HW115871   1.242   5.647   6.175
 1280SOL    HW215872   1.123   5.735   6.244
 1281SOL     OW15873   8.955   5.635   1.254
 1281SOL    HW115874   9.042   5.678   1.279
 1281SOL    HW215875   8.879   5.690   1.289
 1282SOL     OW15876   9.384   1.230   0.368
 1282SOL    HW115877   9.301   1.264   0.411
 1282SOL    HW215878   9.360   1.168   0.294
 1283SOL     OW15879   6.940   3.598   6.177
 1283SOL    HW115880   6.972   3.641   6.092
 1283SOL    HW215881   6.916   3.503   6.158
 1284SOL     OW15882   0.857   3.691   0.582
 1284SOL    HW115883   0.934   3.627   0.583
 1284SOL    HW215884   0.877   3.766   0.520
 1285SOL     OW15885   4.003   1.642   2.557
 1285SOL    HW115886   3.919   1.669   2.605
 1285SOL    HW215887   4.013   1.542   2.561
 1286SOL     OW15888   8.714   4.304   1.886
 1286SOL    HW115889   8.717   4.382   1.823
 1286SOL    HW215890   8.806   4.279   1.912
 1287SOL     OW15891   1.932   0.005   1.908
 1287SOL    HW115892   1.964  -0.089   1.899
 1287SOL    HW215893   2.010   0.066   1.923
 1288SOL     OW15894   2.487   1.690   6.454
 1288SOL    HW115895   2.397   1.669   6.416
 1288SOL    HW215896   2.543   1.734   6.383
 1289SOL     OW15897   1.218   1.006   0.937
 1289SOL    HW115898   1.291   1.067   0.968
 1289SOL    HW215899   1.235   0.978   0.842
 1290SOL     OW15900   5.346   4.021   6.692
 1290SOL    HW115901   5.386   4.048   6.779
 1290SOL    HW215902   5.315   4.102   6.642
 1291SOL     OW15903   4.211   1.170   5.672
 1291SOL    HW115904   4.299   1.125   5.691
 1291SOL    HW215905   4.211   1.261   5.712
 1292SOL     OW15906   1.989   0.355   6.182
 1292SOL    HW115907   1.901   0.350   6.135
 1292SOL    HW215908   2.063   0.351   6.116
 1293SOL     OW15909   8.018   7.048   6.559
 1293SOL    HW115910   8.073   6.965   6.545
 1293SOL    HW215911   8.057   7.101   6.634
 1294SOL     OW15912   8.831   2.904   0.322
 1294SOL    HW115913   8.747   2.942   0.282
 1294SOL    HW215914   8.910   2.936   0.269
 1295SOL     OW15915   6.099   0.403   5.040
 1295SOL    HW115916   6.122   0.495   5.072
 1295SOL    HW215917   6.004   0.401   5.010
 1296SOL     OW15918   7.603   3.354   1.236
 1296SOL    HW115919   7.675   3.394   1.294
 1296SOL    HW215920   7.604   3.254   1.246
 1297SOL     OW15921   3.750   6.710   1.119
 1297SOL    HW115922   3.667   6.688   1.169
 1297SOL    HW215923   3.828   6.665   1.162
 1298SOL     OW15924   7.889   8.049   6.063
 1298SOL    HW115925   7.919   8.000   6.145
 1298SOL    HW215926   7.942   8.133   6.052
 1299SOL     OW15927   2.502   0.516   1.030
 1299SOL    HW115928   2.409   0.483   1.014
 1299SOL    HW215929   2.502   0.616   1.032
 1300SOL     OW15930   3.524   7.657   0.814
 1300SOL    HW115931   3.553   7.742   0.856
 1300SOL    HW215932   3.571   7.580   0.857
 1301SOL     OW15933   5.459   3.091   1.076
 1301SOL    HW115934   5.446   3.176   1.127
 1301SOL    HW215935   5.551   3.055   1.094
 1302SOL     OW15936   7.678   7.314   5.855
 1302SOL    HW115937   7.740   7.331   5.931
 1302SOL    HW215938   7.713   7.238   5.800
 1303SOL     OW15939   1.605   5.566   6.788
 1303SOL    HW115940   1.681   5.536   6.730
 1303SOL    HW215941   1.622   5.660   6.818
 1304SOL     OW15942   6.872   3.886   1.446
 1304SOL    HW115943   6.823   3.973   1.440
 1304SOL    HW215944   6.859   3.835   1.361
 1305SOL     OW15945   6.005   1.494   0.463
 1305SOL    HW115946   5.980   1.413   0.410
 1305SOL    HW215947   5.951   1.572   0.431
 1306SOL     OW15948   8.467   3.677   1.263
 1306SOL    HW115949   8.515   3.740   1.202
 1306SOL    HW215950   8.382   3.647   1.219
 1307SOL     OW15951   0.582   6.591   5.237
 1307SOL    HW115952   0.623   6.556   5.321
 1307SOL    HW215953   0.588   6.521   5.165
 1308SOL     OW15954   8.602   7.811   0.883
 1308SOL    HW115955   8.626   7.782   0.790
 1308SOL    HW215956   8.526   7.875   0.878
 1309SOL     OW15957   4.500   7.379   6.637
 1309SOL    HW115958   4.429   7.345   6.575
 1309SOL    HW215959   4.486   7.477   6.653
 1310SOL     OW15960   7.578   2.721   1.709
 1310SOL    HW115961   7.628   2.797   1.749
 1310SOL    HW215962   7.482   2.726   1.737
 1311SOL     OW15963   5.143   7.424   6.267
 1311SOL    HW115964   5.241   7.435   6.283
 1311SOL    HW215965   5.126   7.334   6.226
 1312SOL     OW15966   0.330   2.586   0.729
 1312SOL    HW115967   0.270   2.510   0.757
 1312SOL    HW215968   0.425   2.555   0.728
 1313SOL     OW15969   4.499   5.464   1.824
 1313SOL    HW115970   4.570   5.499   1.762
 1313SOL    HW215971   4.528   5.477   1.918
 1314SOL     OW15972   6.705   8.097   0.968
 1314SOL    HW115973   6.683   8.102   0.870
 1314SOL    HW215974   6.754   8.012   0.987
 1315SOL     OW15975   8.512   0.850   6.907
 1315SOL    HW115976   8.589   0.859   6.970
 1315SOL    HW215977   8.495   0.753   6.890
 1316SOL     OW15978   0.157   7.065   6.214
 1316SOL    HW115979   0.181   6.995   6.282
 1316SOL    HW215980   0.231   7.075   6.148
 1317SOL     OW15981   1.630   1.233   5.955
 1317SOL    HW115982   1.565   1.219   5.880
 1317SOL    HW215983   1.680   1.148   5.971
 1318SOL     OW15984   4.174   1.695   6.180
 1318SOL    HW115985   4.122   1.716   6.097
 1318SOL    HW215986   4.244   1.627   6.159
 1319SOL     OW15987   3.233   1.788   6.826
 1319SOL    HW115988   3.176   1.750   6.753
 1319SOL    HW215989   3.174   1.825   6.898
 1320SOL     OW15990   3.855   1.231   0.797
 1320SOL    HW115991   3.816   1.308   0.848
 1320SOL    HW215992   3.952   1.221   0.820
 1321SOL     OW15993   9.445   2.169   5.813
 1321SOL    HW115994   9.471   2.178   5.717
 1321SOL    HW215995   9.520   2.201   5.871
 1322SOL     OW15996   5.556   1.635   0.924
 1322SOL    HW115997   5.475   1.587   0.891
 1322SOL    HW215998   5.634   1.612   0.865
 1323SOL     OW15999   0.864   7.781   6.407
 1323SOL    HW116000   0.842   7.753   6.501
 1323SOL    HW216001   0.926   7.859   6.409
 1324SOL     OW16002   2.965   6.554   1.129
 1324SOL    HW116003   3.048   6.610   1.134
 1324SOL    HW216004   2.911   6.583   1.050
 1325SOL     OW16005   5.855   1.346   1.948
 1325SOL    HW116006   5.848   1.278   2.022
 1325SOL    HW216007   5.771   1.347   1.895
 1326SOL     OW16008   0.538   6.244   6.403
 1326SOL    HW116009   0.483   6.260   6.485
 1326SOL    HW216010   0.518   6.153   6.366
 1327SOL     OW16011   3.418   8.112   6.431
 1327SOL    HW116012   3.454   8.077   6.345
 1327SOL    HW216013   3.361   8.042   6.474
 1328SOL     OW16014   5.200   3.457   6.094
 1328SOL    HW116015   5.218   3.518   6.016
 1328SOL    HW216016   5.284   3.409   6.119
 1329SOL     OW16017   1.382   0.790   4.764
 1329SOL    HW116018   1.308   0.852   4.793
 1329SOL    HW216019   1.469   0.839   4.765
 1330SOL     OW16020   4.009   2.788   1.360
 1330SOL    HW116021   4.084   2.852   1.347
 1330SOL    HW216022   3.985   2.746   1.273
 1331SOL     OW16023   7.446   5.400   5.707
 1331SOL    HW116024   7.433   5.333   5.634
 1331SOL    HW216025   7.514   5.468   5.680
 1332SOL     OW16026   5.131   5.752   5.406
 1332SOL    HW116027   5.100   5.709   5.321
 1332SOL    HW216028   5.133   5.851   5.394
 1333SOL     OW16029   6.577   4.870   1.776
 1333SOL    HW116030   6.483   4.848   1.751
 1333SOL    HW216031   6.582   4.893   1.873
 1334SOL     OW16032   2.741   5.104   1.603
 1334SOL    HW116033   2.769   5.076   1.511
 1334SOL    HW216034   2.676   5.038   1.640
 1335SOL     OW16035   2.677   3.863   6.542
 1335SOL    HW116036   2.579   3.859   6.521
 1335SOL    HW216037   2.707   3.958   6.541
 1336SOL     OW16038   4.085   2.654   1.625
 1336SOL    HW116039   4.127   2.710   1.697
 1336SOL    HW216040   4.032   2.713   1.564
 1337SOL     OW16041   4.625   7.348   0.999
 1337SOL    HW116042   4.720   7.337   1.028
 1337SOL    HW216043   4.595   7.265   0.952
 1338SOL     OW16044   4.702   1.818   0.586
 1338SOL    HW116045   4.644   1.890   0.624
 1338SOL    HW216046   4.766   1.786   0.657
 1339SOL     OW16047   3.925   4.422   0.532
 1339SOL    HW116048   3.998   4.407   0.465
 1339SOL    HW216049   3.963   4.467   0.613
 1340SOL     OW16050   4.351   5.780   1.183
 1340SOL    HW116051   4.344   5.861   1.124
 1340SOL    HW216052   4.355   5.698   1.126
 1341SOL     OW16053   5.459   6.639   6.780
 1341SOL    HW116054   5.553   6.626   6.747
 1341SOL    HW216055   5.456   6.623   6.879
 1342SOL     OW16056   4.215   8.327   1.855
 1342SOL    HW116057   4.147   8.373   1.912
 1342SOL    HW216058   4.297   8.308   1.909
 1343SOL     OW16059   3.477   2.619   6.899
 1343SOL    HW116060   3.420   2.537   6.910
 1343SOL    HW216061   3.532   2.632   6.981
 1344SOL     OW16062   3.973   6.433   5.806
 1344SOL    HW116063   4.055   6.439   5.749
 1344SOL    HW216064   3.914   6.359   5.773
 1345SOL     OW16065   5.084   0.598   6.435
 1345SOL    HW116066   5.177   0.631   6.454
 1345SOL    HW216067   5.080   0.561   6.342
 1346SOL     OW16068   1.693   0.331   6.814
 1346SOL    HW116069   1.655   0.419   6.844
 1346SOL    HW216070   1.785   0.321   6.853
 1347SOL     OW16071   5.270   7.664   6.058
 1347SOL    HW116072   5.267   7.660   6.158
 1347SOL    HW216073   5.328   7.590   6.023
 1348SOL     OW16074   6.790   4.504   1.209
 1348SOL    HW116075   6.739   4.419   1.220
 1348SOL    HW216076   6.887   4.488   1.225
 1349SOL     OW16077   6.765   0.721   6.444
 1349SOL    HW116078   6.704   0.675   6.508
 1349SOL    HW216079   6.711   0.769   6.375
 1350SOL     OW16080   1.483   6.828   4.376
 1350SOL    HW116081   1.450   6.761   4.309
 1350SOL    HW216082   1.560   6.879   4.337
 1351SOL     OW16083   0.345   0.807   5.950
 1351SOL    HW116084   0.260   0.755   5.954
 1351SOL    HW216085   0.395   0.795   6.036
 1352SOL     OW16086   8.450   5.039   5.442
 1352SOL    HW116087   8.359   5.072   5.419
 1352SOL    HW216088   8.505   5.033   5.358
 1353SOL     OW16089   0.363   5.721   1.431
 1353SOL    HW116090   0.457   5.722   1.466
 1353SOL    HW216091   0.313   5.799   1.467
 1354SOL     OW16092   5.526   4.556   6.338
 1354SOL    HW116093   5.600   4.593   6.394
 1354SOL    HW216094   5.565   4.501   6.264
 1355SOL     OW16095   3.885   0.255   6.673
 1355SOL    HW116096   3.885   0.155   6.670
 1355SOL    HW216097   3.851   0.286   6.762
 1356SOL     OW16098   4.164   7.033   6.199
 1356SOL    HW116099   4.185   7.018   6.102
 1356SOL    HW216100   4.232   7.095   6.238
 1357SOL     OW16101   5.207   5.716   6.943
 1357SOL    HW116102   5.300   5.706   6.905
 1357SOL    HW216103   5.162   5.627   6.943
 1358SOL     OW16104   2.733   5.362   6.437
 1358SOL    HW116105   2.683   5.398   6.516
 1358SOL    HW216106   2.770   5.437   6.384
 1359SOL     OW16107   4.679   8.355   6.770
 1359SOL    HW116108   4.777   8.365   6.755
 1359SOL    HW216109   4.631   8.431   6.725
 1360SOL     OW16110   2.020   6.949   6.132
 1360SOL    HW116111   1.999   7.035   6.179
 1360SOL    HW216112   2.074   6.967   6.050
 1361SOL     OW16113   3.784   8.039   6.315
 1361SOL    HW116114   3.825   8.129   6.300
 1361SOL    HW216115   3.761   8.028   6.411
 1362SOL     OW16116   6.790   7.104   6.038
 1362SOL    HW116117   6.785   7.014   5.996
 1362SOL    HW216118   6.833   7.168   5.975
 1363SOL     OW16119   6.838   5.329   0.808
 1363SOL    HW116120   6.877   5.239   0.830
 1363SOL    HW216121   6.778   5.321   0.729
 1364SOL     OW16122   4.131   2.400   1.660
 1364SOL    HW116123   4.206   2.395   1.594
 1364SOL    HW216124   4.097   2.494   1.664
 1365SOL     OW16125   0.591   6.548   0.535
 1365SOL    HW116126   0.592   6.478   0.464
 1365SOL    HW216127   0.669   6.609   0.523
 1366SOL     OW16128   7.081   5.461   1.671
 1366SOL    HW116129   7.095   5.514   1.754
 1366SOL    HW216130   7.162   5.406   1.652
 1367SOL     OW16131   1.957   4.259   6.959
 1367SOL    HW116132   2.040   4.215   6.926
 1367SOL    HW216133   1.953   4.353   6.926
 1368SOL     OW16134   0.562   0.616   0.798
 1368SOL    HW116135   0.524   0.602   0.707
 1368SOL    HW216136   0.509   0.566   0.866
 1369SOL     OW16137   4.587   4.559   0.933
 1369SOL    HW116138   4.615   4.466   0.910
 1369SOL    HW216139   4.508   4.585   0.879
 1370SOL     OW16140   5.609   3.830   6.091
 1370SOL    HW116141   5.671   3.773   6.144
 1370SOL    HW216142   5.517   3.827   6.132
 1371SOL     OW16143   4.318   1.129   0.321
 1371SOL    HW116144   4.289   1.165   0.233
 1371SOL    HW216145   4.255   1.160   0.392
 1372SOL     OW16146   3.291   1.499   1.784
 1372SOL    HW116147   3.388   1.474   1.786
 1372SOL    HW216148   3.256   1.489   1.690
 1373SOL     OW16149   8.740   0.586   1.406
 1373SOL    HW116150   8.675   0.530   1.458
 1373SOL    HW216151   8.803   0.631   1.470
 1374SOL     OW16152   6.624   0.210   1.463
 1374SOL    HW116153   6.625   0.273   1.385
 1374SOL    HW216154   6.712   0.213   1.510
 1375SOL     OW16155   8.688   6.502   1.025
 1375SOL    HW116156   8.676   6.545   1.114
 1375SOL    HW216157   8.689   6.403   1.036
 1376SOL     OW16158   1.934   7.746   5.485
 1376SOL    HW116159   1.941   7.823   5.421
 1376SOL    HW216160   1.950   7.661   5.436
 1377SOL     OW16161   8.834   2.320   0.868
 1377SOL    HW116162   8.775   2.319   0.948
 1377SOL    HW216163   8.782   2.292   0.787
 1378SOL     OW16164   8.411   4.726   6.752
 1378SOL    HW116165   8.338   4.666   6.719
 1378SOL    HW216166   8.386   4.821   6.737
 1379SOL     OW16167   2.055   5.308   6.424
 1379SOL    HW116168   2.055   5.347   6.332
 1379SOL    HW216169   2.094   5.373   6.488
 1380SOL     OW16170   5.046   3.273   6.602
 1380SOL    HW116171   5.084   3.328   6.528
 1380SOL    HW216172   5.057   3.323   6.688
 1381SOL     OW16173   6.039   2.322   5.579
 1381SOL    HW116174   5.960   2.378   5.556
 1381SOL    HW216175   6.116   2.381   5.603
 1382SOL     OW16176   3.619   7.406   1.186
 1382SOL    HW116177   3.638   7.400   1.088
 1382SOL    HW216178   3.555   7.333   1.212
 1383SOL     OW16179   6.187   7.338   6.559
 1383SOL    HW116180   6.204   7.415   6.496
 1383SOL    HW216181   6.097   7.348   6.600
 1384SOL     OW16182   7.884   7.610   5.329
 1384SOL    HW116183   7.809   7.662   5.290
 1384SOL    HW216184   7.966   7.668   5.335
 1385SOL     OW16185   2.565   1.214   6.810
 1385SOL    HW116186   2.593   1.238   6.716
 1385SOL    HW216187   2.541   1.297   6.859
 1386SOL     OW16188   1.256   4.094   6.601
 1386SOL    HW116189   1.222   4.183   6.630
 1386SOL    HW216190   1.350   4.102   6.569
 1387SOL     OW16191   7.640   3.256   0.770
 1387SOL    HW116192   7.557   3.310   0.758
 1387SOL    HW216193   7.643   3.219   0.863
 1388SOL     OW16194   4.668   4.140   0.515
 1388SOL    HW116195   4.695   4.120   0.609
 1388SOL    HW216196   4.587   4.087   0.492
 1389SOL     OW16197   2.088   5.199   5.515
 1389SOL    HW116198   2.169   5.150   5.484
 1389SOL    HW216199   2.115   5.277   5.571
 1390SOL     OW16200   2.863   3.774   5.821
 1390SOL    HW116201   2.927   3.847   5.798
 1390SOL    HW216202   2.897   3.687   5.785
 1391SOL     OW16203   2.962   0.347   5.196
 1391SOL    HW116204   2.959   0.281   5.120
 1391SOL    HW216205   2.873   0.392   5.204
 1392SOL     OW16206   6.716   0.092   0.325
 1392SOL    HW116207   6.695  -0.006   0.327
 1392SOL    HW216208   6.726   0.122   0.230
 1393SOL     OW16209   1.151   6.235   1.281
 1393SOL    HW116210   1.197   6.165   1.226
 1393SOL    HW216211   1.094   6.292   1.222
 1394SOL     OW16212   7.477   8.001   0.844
 1394SOL    HW116213   7.568   8.042   0.832
 1394SOL    HW216214   7.459   7.937   0.769
 1395SOL     OW16215   0.167   2.795   0.829
 1395SOL    HW116216   0.236   2.728   0.803
 1395SOL    HW216217   0.209   2.885   0.840
 1396SOL     OW16218   1.240   0.666   0.920
 1396SOL    HW116219   1.173   0.695   0.988
 1396SOL    HW216220   1.223   0.713   0.833
 1397SOL     OW16221   9.034   7.633   5.847
 1397SOL    HW116222   8.973   7.556   5.830
 1397SOL    HW216223   9.071   7.628   5.939
 1398SOL     OW16224   0.666   6.521   5.492
 1398SOL    HW116225   0.573   6.527   5.529
 1398SOL    HW216226   0.720   6.456   5.546
 1399SOL     OW16227   1.126   5.313   6.962
 1399SOL    HW116228   1.150   5.231   6.910
 1399SOL    HW216229   1.111   5.389   6.899
 1400SOL     OW16230   4.557   7.139   6.100
 1400SOL    HW116231   4.530   7.234   6.082
 1400SOL    HW216232   4.588   7.131   6.195
 1401SOL     OW16233   4.537   4.000   1.944
 1401SOL    HW116234   4.560   3.951   1.860
 1401SOL    HW216235   4.618   4.006   2.003
 1402SOL     OW16236   1.434   6.014   6.157
 1402SOL    HW116237   1.464   6.108   6.174
 1402SOL    HW216238   1.349   5.996   6.207
 1403SOL     OW16239   0.804   5.588   0.314
 1403SOL    HW116240   0.865   5.645   0.368
 1403SOL    HW216241   0.710   5.600   0.346
 1404SOL     OW16242   1.235   4.714   5.402
 1404SOL    HW116243   1.276   4.624   5.413
 1404SOL    HW216244   1.216   4.731   5.305
 1405SOL     OW16245   0.654   8.416   5.096
 1405SOL    HW116246   0.586   8.460   5.037
 1405SOL    HW216247   0.612   8.338   5.142
 1406SOL     OW16248   1.005   3.810   5.409
 1406SOL    HW116249   0.926   3.787   5.352
 1406SOL    HW216250   1.089   3.782   5.362
 1407SOL     OW16251   6.173   5.250   1.936
 1407SOL    HW116252   6.265   5.226   1.906
 1407SOL    HW216253   6.177   5.327   1.999
 1408SOL     OW16254   2.068   3.504   0.866
 1408SOL    HW116255   2.086   3.495   0.768
 1408SOL    HW216256   2.026   3.419   0.899
 1409SOL     OW16257   2.541   6.712   6.407
 1409SOL    HW116258   2.509   6.675   6.494
 1409SOL    HW216259   2.638   6.691   6.396
 1410SOL     OW16260   1.480   0.183   6.863
 1410SOL    HW116261   1.546   0.258   6.867
 1410SOL    HW216262   1.501   0.123   6.787
 1411SOL     OW16263   8.348   7.720   1.313
 1411SOL    HW116264   8.249   7.723   1.304
 1411SOL    HW216265   8.374   7.661   1.389
 1412SOL     OW16266   7.464   5.086   4.908
 1412SOL    HW116267   7.527   5.042   4.972
 1412SOL    HW216268   7.457   5.031   4.825
 1413SOL     OW16269   8.707   7.397   0.959
 1413SOL    HW116270   8.652   7.473   0.995
 1413SOL    HW216271   8.791   7.388   1.012
 1414SOL     OW16272   7.487   5.548   5.363
 1414SOL    HW116273   7.543   5.539   5.281
 1414SOL    HW216274   7.423   5.472   5.368
 1415SOL     OW16275   4.567   0.140   0.477
 1415SOL    HW116276   4.521   0.063   0.431
 1415SOL    HW216277   4.524   0.226   0.450
 1416SOL     OW16278   1.487   5.794   4.650
 1416SOL    HW116279   1.418   5.750   4.592
 1416SOL    HW216280   1.484   5.893   4.635
 1417SOL     OW16281   5.429   2.069   1.752
 1417SOL    HW116282   5.375   2.071   1.668
 1417SOL    HW216283   5.368   2.067   1.831
 1418SOL     OW16284   8.986   4.881   5.404
 1418SOL    HW116285   9.024   4.958   5.353
 1418SOL    HW216286   8.887   4.878   5.390
 1419SOL     OW16287   5.765   8.107   1.752
 1419SOL    HW116288   5.701   8.109   1.676
 1419SOL    HW216289   5.804   8.198   1.765
 1420SOL     OW16290   7.229   0.646   6.681
 1420SOL    HW116291   7.162   0.616   6.749
 1420SOL    HW216292   7.183   0.666   6.595
 1421SOL     OW16293   2.183   2.035   6.546
 1421SOL    HW116294   2.099   2.065   6.591
 1421SOL    HW216295   2.223   1.958   6.595
 1422SOL     OW16296   7.716   1.792   0.403
 1422SOL    HW116297   7.719   1.849   0.321
 1422SOL    HW216298   7.792   1.816   0.463
 1423SOL     OW16299   3.342   4.909   6.352
 1423SOL    HW116300   3.298   4.912   6.441
 1423SOL    HW216301   3.273   4.892   6.281
 1424SOL     OW16302   0.565   6.338   6.166
 1424SOL    HW116303   0.565   6.308   6.261
 1424SOL    HW216304   0.484   6.393   6.147
 1425SOL     OW16305   0.635   6.346   0.368
 1425SOL    HW116306   0.688   6.358   0.284
 1425SOL    HW216307   0.657   6.258   0.409
 1426SOL     OW16308   6.616   0.587   1.857
 1426SOL    HW116309   6.634   0.496   1.894
 1426SOL    HW216310   6.692   0.647   1.877
 1427SOL     OW16311   6.016   1.159   1.728
 1427SOL    HW116312   5.921   1.159   1.695
 1427SOL    HW216313   6.019   1.122   1.821
 1428SOL     OW16314   8.615   0.047   0.429
 1428SOL    HW116315   8.679   0.120   0.407
 1428SOL    HW216316   8.666  -0.036   0.451
 1429SOL     OW16317   6.366   8.420   0.950
 1429SOL    HW116318   6.276   8.379   0.941
 1429SOL    HW216319   6.367   8.509   0.905
 1430SOL     OW16320   6.206   1.597   2.255
 1430SOL    HW116321   6.207   1.656   2.174
 1430SOL    HW216322   6.300   1.571   2.278
 1431SOL     OW16323   4.771   3.634   6.983
 1431SOL    HW116324   4.855   3.686   7.000
 1431SOL    HW216325   4.721   3.675   6.907
 1432SOL     OW16326   2.040   1.279   5.173
 1432SOL    HW116327   2.062   1.375   5.186
 1432SOL    HW216328   2.125   1.226   5.169
 1433SOL     OW16329   5.256   1.137   5.949
 1433SOL    HW116330   5.191   1.207   5.917
 1433SOL    HW216331   5.347   1.158   5.914
 1434SOL     OW16332   8.049   7.885   1.137
 1434SOL    HW116333   8.043   7.809   1.202
 1434SOL    HW216334   7.987   7.868   1.060
 1435SOL     OW16335   6.317   7.182   6.735
 1435SOL    HW116336   6.268   7.227   6.660
 1435SOL    HW216337   6.306   7.083   6.727
 1436SOL     OW16338   0.594   2.484   0.705
 1436SOL    HW116339   0.684   2.514   0.674
 1436SOL    HW216340   0.604   2.423   0.783
 1437SOL     OW16341   5.821   1.237   2.330
 1437SOL    HW116342   5.840   1.193   2.242
 1437SOL    HW216343   5.906   1.276   2.366
 1438SOL     OW16344   8.047   0.795   6.182
 1438SOL    HW116345   7.968   0.821   6.127
 1438SOL    HW216346   8.029   0.710   6.230
 1439SOL     OW16347   0.867   7.228   4.961
 1439SOL    HW116348   0.849   7.157   5.028
 1439SOL    HW216349   0.966   7.240   4.950
 1440SOL     OW16350   1.255   3.526   5.347
 1440SOL    HW116351   1.215   3.435   5.335
 1440SOL    HW216352   1.219   3.587   5.276
 1441SOL     OW16353   7.960   3.912   6.086
 1441SOL    HW116354   7.913   3.863   6.013
 1441SOL    HW216355   7.919   3.888   6.174
 1442SOL     OW16356   3.328   7.174   1.463
 1442SOL    HW116357   3.385   7.115   1.406
 1442SOL    HW216358   3.373   7.190   1.551
 1443SOL     OW16359   6.692   5.130   6.523
 1443SOL    HW116360   6.780   5.142   6.477
 1443SOL    HW216361   6.685   5.196   6.598
 1444SOL     OW16362   4.035   6.528   0.302
 1444SOL    HW116363   4.007   6.450   0.357
 1444SOL    HW216364   4.113   6.502   0.245
 1445SOL     OW16365   3.811   7.780   5.056
 1445SOL    HW116366   3.803   7.683   5.077
 1445SOL    HW216367   3.907   7.803   5.039
 1446SOL     OW16368   8.837   0.121   6.428
 1446SOL    HW116369   8.746   0.150   6.397
 1446SOL    HW216370   8.872   0.050   6.368
 1447SOL     OW16371   1.676   5.281   0.369
 1447SOL    HW116372   1.643   5.350   0.434
 1447SOL    HW216373   1.645   5.191   0.397
 1448SOL     OW16374   9.587   6.081   6.660
 1448SOL    HW116375   9.600   6.144   6.583
 1448SOL    HW216376   9.666   6.020   6.667
 1449SOL     OW16377   8.045   1.936   1.216
 1449SOL    HW116378   8.104   1.861   1.187
 1449SOL    HW216379   8.094   2.023   1.203
 1450SOL     OW16380   1.215   6.761   5.024
 1450SOL    HW116381   1.239   6.666   5.001
 1450SOL    HW216382   1.210   6.771   5.123
 1451SOL     OW16383   9.165   0.407   6.012
 1451SOL    HW116384   9.109   0.475   6.061
 1451SOL    HW216385   9.260   0.438   6.010
 1452SOL     OW16386   5.283   0.759   0.669
 1452SOL    HW116387   5.301   0.842   0.721
 1452SOL    HW216388   5.222   0.699   0.721
 1453SOL     OW16389   4.103   2.013   5.628
 1453SOL    HW116390   4.027   2.074   5.605
 1453SOL    HW216391   4.188   2.052   5.596
 1454SOL     OW16392   5.740   6.542   0.664
 1454SOL    HW116393   5.706   6.450   0.687
 1454SOL    HW216394   5.783   6.582   0.745
 1455SOL     OW16395   9.193   7.690   6.065
 1455SOL    HW116396   9.153   7.764   6.120
 1455SOL    HW216397   9.233   7.622   6.126
 1456SOL     OW16398   7.248   5.753   2.007
 1456SOL    HW116399   7.309   5.775   1.931
 1456SOL    HW216400   7.266   5.814   2.084
 1457SOL     OW16401   2.139   1.018   6.484
 1457SOL    HW116402   2.068   1.070   6.531
 1457SOL    HW216403   2.183   0.955   6.548
 1458SOL     OW16404   2.410   4.912   0.997
 1458SOL    HW116405   2.393   4.948   1.088
 1458SOL    HW216406   2.412   4.812   1.000
 1459SOL     OW16407   1.996   1.773   6.042
 1459SOL    HW116408   2.038   1.684   6.062
 1459SOL    HW216409   2.064   1.833   6.001
 1460SOL     OW16410   1.948   0.404   1.428
 1460SOL    HW116411   1.864   0.395   1.482
 1460SOL    HW216412   1.930   0.457   1.345
 1461SOL     OW16413   0.360   7.013   6.633
 1461SOL    HW116414   0.347   7.036   6.730
 1461SOL    HW216415   0.391   7.094   6.584
 1462SOL     OW16416   4.257   6.581   0.835
 1462SOL    HW116417   4.256   6.543   0.742
 1462SOL    HW216418   4.188   6.533   0.890
 1463SOL     OW16419   0.155   6.841   0.885
 1463SOL    HW116420   0.213   6.876   0.811
 1463SOL    HW216421   0.194   6.757   0.921
 1464SOL     OW16422   6.638   5.579   6.975
 1464SOL    HW116423   6.709   5.511   6.993
 1464SOL    HW216424   6.624   5.589   6.877
 1465SOL     OW16425   3.495   8.300   5.619
 1465SOL    HW116426   3.479   8.399   5.620
 1465SOL    HW216427   3.407   8.252   5.616
 1466SOL     OW16428   1.295   0.075   1.299
 1466SOL    HW116429   1.330   0.157   1.254
 1466SOL    HW216430   1.195   0.074   1.294
 1467SOL     OW16431   6.391   5.533   0.352
 1467SOL    HW116432   6.405   5.485   0.439
 1467SOL    HW216433   6.462   5.603   0.342
 1468SOL     OW16434   5.999   2.143   6.612
 1468SOL    HW116435   6.080   2.155   6.554
 1468SOL    HW216436   6.028   2.123   6.706
 1469SOL     OW16437   7.143   4.038   0.347
 1469SOL    HW116438   7.125   3.989   0.261
 1469SOL    HW216439   7.056   4.055   0.394
 1470SOL     OW16440   4.066   2.859   0.439
 1470SOL    HW116441   4.119   2.914   0.503
 1470SOL    HW216442   4.124   2.827   0.365
 1471SOL     OW16443   3.914   2.597   6.198
 1471SOL    HW116444   3.855   2.523   6.229
 1471SOL    HW216445   3.871   2.685   6.217
 1472SOL     OW16446   3.520   0.801   5.404
 1472SOL    HW116447   3.478   0.721   5.362
 1472SOL    HW216448   3.593   0.836   5.345
 1473SOL     OW16449   5.482   2.150   6.936
 1473SOL    HW116450   5.568   2.104   6.958
 1473SOL    HW216451   5.492   2.248   6.949
 1474SOL     OW16452   8.109   5.194   5.991
 1474SOL    HW116453   8.166   5.276   5.998
 1474SOL    HW216454   8.114   5.142   6.076
 1475SOL     OW16455   0.417   2.950   0.807
 1475SOL    HW116456   0.448   3.033   0.854
 1475SOL    HW216457   0.463   2.943   0.719
 1476SOL     OW16458   4.397   2.615   6.312
 1476SOL    HW116459   4.453   2.555   6.254
 1476SOL    HW216460   4.300   2.604   6.288
 1477SOL     OW16461   6.059   7.239   1.822
 1477SOL    HW116462   6.120   7.159   1.819
 1477SOL    HW216463   6.111   7.319   1.850
 1478SOL     OW16464   1.072   1.214   0.398
 1478SOL    HW116465   1.051   1.290   0.459
 1478SOL    HW216466   1.000   1.206   0.329
 1479SOL     OW16467   3.207   5.424   1.453
 1479SOL    HW116468   3.175   5.351   1.512
 1479SOL    HW216469   3.304   5.411   1.432
 1480SOL     OW16470   3.657   3.985   1.412
 1480SOL    HW116471   3.558   3.983   1.399
 1480SOL    HW216472   3.700   3.917   1.352
 1481SOL     OW16473   1.544   2.010   0.529
 1481SOL    HW116474   1.590   2.099   0.531
 1481SOL    HW216475   1.570   1.961   0.445
 1482SOL     OW16476   4.199   8.123   6.081
 1482SOL    HW116477   4.290   8.142   6.118
 1482SOL    HW216478   4.157   8.047   6.132
 1483SOL     OW16479   6.309   7.070   5.867
 1483SOL    HW116480   6.349   6.997   5.812
 1483SOL    HW216481   6.364   7.083   5.950
 1484SOL     OW16482   1.805   2.669   1.055
 1484SOL    HW116483   1.853   2.647   1.140
 1484SOL    HW216484   1.731   2.733   1.075
 1485SOL     OW16485   6.054   6.308   1.473
 1485SOL    HW116486   6.074   6.393   1.522
 1485SOL    HW216487   5.997   6.328   1.393
 1486SOL     OW16488   5.885   7.844   0.474
 1486SOL    HW116489   5.953   7.770   0.471
 1486SOL    HW216490   5.928   7.926   0.512
 1487SOL     OW16491   6.196  -0.018   5.780
 1487SOL    HW116492   6.213   0.054   5.713
 1487SOL    HW216493   6.196  -0.107   5.734
 1488SOL     OW16494   4.308   5.188   1.375
 1488SOL    HW116495   4.295   5.116   1.306
 1488SOL    HW216496   4.228   5.191   1.435
 1489SOL     OW16497   6.897   1.696   5.708
 1489SOL    HW116498   6.952   1.772   5.673
 1489SOL    HW216499   6.944   1.610   5.690
 1490SOL     OW16500   9.437   6.354   4.937
 1490SOL    HW116501   9.346   6.380   4.904
 1490SOL    HW216502   9.495   6.329   4.859
 1491SOL     OW16503   3.539   2.993   5.960
 1491SOL    HW116504   3.592   3.047   5.893
 1491SOL    HW216505   3.444   2.986   5.929
 1492SOL     OW16506   0.987   4.785   1.190
 1492SOL    HW116507   0.918   4.716   1.168
 1492SOL    HW216508   1.006   4.782   1.288
 1493SOL     OW16509   9.251   5.851   5.972
 1493SOL    HW116510   9.329   5.799   6.004
 1493SOL    HW216511   9.271   5.949   5.976
 1494SOL     OW16512   6.807   7.093   6.701
 1494SOL    HW116513   6.830   7.019   6.638
 1494SOL    HW216514   6.885   7.154   6.710
 1495SOL     OW16515   3.346   7.310   6.584
 1495SOL    HW116516   3.265   7.277   6.536
 1495SOL    HW216517   3.419   7.329   6.519
 1496SOL     OW16518   5.167   5.920   0.393
 1496SOL    HW116519   5.146   5.850   0.324
 1496SOL    HW216520   5.242   5.978   0.360
 1497SOL     OW16521   0.518   1.246   0.652
 1497SOL    HW116522   0.548   1.157   0.615
 1497SOL    HW216523   0.558   1.320   0.597
 1498SOL     OW16524   7.675   0.964   6.591
 1498SOL    HW116525   7.602   1.018   6.634
 1498SOL    HW216526   7.647   0.938   6.499
 1499SOL     OW16527   9.142   5.690   0.560
 1499SOL    HW116528   9.164   5.669   0.655
 1499SOL    HW216529   9.133   5.605   0.508
 1500SOL     OW16530   7.341   0.802   0.375
 1500SOL    HW116531   7.372   0.832   0.465
 1500SOL    HW216532   7.387   0.717   0.351
 1501SOL     OW16533   3.083  -0.057   1.202
 1501SOL    HW116534   3.125  -0.142   1.234
 1501SOL    HW216535   3.005  -0.034   1.261
 1502SOL     OW16536   3.959   5.876   1.441
 1502SOL    HW116537   3.998   5.784   1.446
 1502SOL    HW216538   3.860   5.869   1.428
 1503SOL     OW16539   0.356   2.004   1.402
 1503SOL    HW116540   0.427   2.071   1.382
 1503SOL    HW216541   0.392   1.934   1.463
 1504SOL     OW16542   6.947   6.009   5.889
 1504SOL    HW116543   6.892   6.088   5.916
 1504SOL    HW216544   6.993   6.027   5.802
 1505SOL     OW16545   4.317   1.076   1.626
 1505SOL    HW116546   4.400   1.079   1.681
 1505SOL    HW216547   4.328   1.133   1.545
 1506SOL     OW16548   8.195   3.768   6.158
 1506SOL    HW116549   8.105   3.811   6.158
 1506SOL    HW216550   8.266   3.838   6.147
 1507SOL     OW16551   7.078   2.301   6.372
 1507SOL    HW116552   7.042   2.217   6.412
 1507SOL    HW216553   7.028   2.322   6.288
 1508SOL     OW16554   4.583   1.077   0.402
 1508SOL    HW116555   4.486   1.083   0.383
 1508SOL    HW216556   4.609   1.149   0.468
 1509SOL     OW16557   1.327   4.946   5.647
 1509SOL    HW116558   1.366   4.871   5.701
 1509SOL    HW216559   1.374   4.951   5.558
 1510SOL     OW16560   5.277   0.084   0.551
 1510SOL    HW116561   5.260   0.026   0.472
 1510SOL    HW216562   5.227   0.049   0.630
 1511SOL     OW16563   6.535   1.779   1.084
 1511SOL    HW116564   6.458   1.841   1.099
 1511SOL    HW216565   6.620   1.832   1.092
 1512SOL     OW16566   6.717   6.922   0.499
 1512SOL    HW116567   6.746   6.944   0.592
 1512SOL    HW216568   6.790   6.942   0.435
 1513SOL     OW16569   8.752   7.514   5.485
 1513SOL    HW116570   8.784   7.515   5.579
 1513SOL    HW216571   8.750   7.420   5.451
 1514SOL     OW16572   3.773   2.431   1.885
 1514SOL    HW116573   3.861   2.425   1.934
 1514SOL    HW216574   3.701   2.390   1.941
 1515SOL     OW16575   8.723   6.072   0.432
 1515SOL    HW116576   8.646   6.066   0.496
 1515SOL    HW216577   8.805   6.099   0.481
 1516SOL     OW16578   9.098   8.006   0.770
 1516SOL    HW116579   9.091   7.925   0.827
 1516SOL    HW216580   9.173   7.996   0.705
 1517SOL     OW16581   4.276   2.295   6.905
 1517SOL    HW116582   4.281   2.340   6.994
 1517SOL    HW216583   4.281   2.364   6.833
 1518SOL     OW16584   2.680   3.435   0.841
 1518SOL    HW116585   2.748   3.435   0.915
 1518SOL    HW216586   2.666   3.528   0.808
 1519SOL     OW16587   4.080   6.312   6.288
 1519SOL    HW116588   4.082   6.214   6.271
 1519SOL    HW216589   4.002   6.353   6.240
 1520SOL     OW16590   3.336   0.203   6.550
 1520SOL    HW116591   3.411   0.182   6.487
 1520SOL    HW216592   3.368   0.192   6.644
 1521SOL     OW16593   7.909   5.830   0.274
 1521SOL    HW116594   7.826   5.775   0.262
 1521SOL    HW216595   7.883   5.921   0.307
 1522SOL     OW16596   5.904   7.460   1.001
 1522SOL    HW116597   5.836   7.532   1.019
 1522SOL    HW216598   5.987   7.502   0.965
 1523SOL     OW16599   9.382   2.619   6.642
 1523SOL    HW116600   9.415   2.679   6.570
 1523SOL    HW216601   9.306   2.662   6.690
 1524SOL     OW16602   1.106   7.688   1.624
 1524SOL    HW116603   1.063   7.633   1.697
 1524SOL    HW216604   1.107   7.784   1.652
 1525SOL     OW16605   4.363   0.003   0.297
 1525SOL    HW116606   4.365   0.067   0.220
 1525SOL    HW216607   4.425  -0.074   0.278
 1526SOL     OW16608   2.632   5.170   1.117
 1526SOL    HW116609   2.550   5.225   1.138
 1526SOL    HW216610   2.619   5.124   1.030
 1527SOL     OW16611   7.134   7.516   1.767
 1527SOL    HW116612   7.162   7.474   1.853
 1527SOL    HW216613   7.055   7.575   1.782
 1528SOL     OW16614   3.494   6.990   1.321
 1528SOL    HW116615   3.473   7.053   1.246
 1528SOL    HW216616   3.593   6.979   1.329
 1529SOL     OW16617   1.708   0.135   1.569
 1529SOL    HW116618   1.734   0.039   1.575
 1529SOL    HW216619   1.739   0.184   1.650
 1530SOL     OW16620   6.473   0.207   0.878
 1530SOL    HW116621   6.440   0.283   0.822
 1530SOL    HW216622   6.571   0.220   0.895
 1531SOL     OW16623   2.316   0.160   6.415
 1531SOL    HW116624   2.270   0.194   6.334
 1531SOL    HW216625   2.322   0.234   6.483
 1532SOL     OW16626   4.057   1.279   6.964
 1532SOL    HW116627   4.091   1.355   7.018
 1532SOL    HW216628   4.018   1.209   7.024
 1533SOL     OW16629   8.473   2.193   6.134
 1533SOL    HW116630   8.387   2.146   6.156
 1533SOL    HW216631   8.455   2.291   6.125
 1534SOL     OW16632   7.333   1.837   6.869
 1534SOL    HW116633   7.358   1.875   6.780
 1534SOL    HW216634   7.285   1.750   6.855
 1535SOL     OW16635   5.425   4.614   0.507
 1535SOL    HW116636   5.453   4.604   0.412
 1535SOL    HW216637   5.490   4.565   0.566
 1536SOL     OW16638   7.586   1.055   6.026
 1536SOL    HW116639   7.558   1.128   5.963
 1536SOL    HW216640   7.534   1.063   6.111
 1537SOL     OW16641   8.275   4.443   0.446
 1537SOL    HW116642   8.240   4.511   0.383
 1537SOL    HW216643   8.325   4.372   0.396
 1538SOL     OW16644   0.350   1.416   0.830
 1538SOL    HW116645   0.364   1.508   0.794
 1538SOL    HW216646   0.412   1.352   0.784
 1539SOL     OW16647   2.947   5.427   1.341
 1539SOL    HW116648   3.046   5.430   1.349
 1539SOL    HW216649   2.908   5.507   1.386
 1540SOL     OW16650   6.305   3.333   1.171
 1540SOL    HW116651   6.352   3.414   1.203
 1540SOL    HW216652   6.206   3.349   1.171
 1541SOL     OW16653   4.025   1.382   1.254
 1541SOL    HW116654   4.059   1.390   1.348
 1541SOL    HW216655   3.926   1.369   1.256
 1542SOL     OW16656   8.083   2.881   6.860
 1542SOL    HW116657   8.118   2.960   6.910
 1542SOL    HW216658   8.082   2.901   6.762
 1543SOL     OW16659   5.650   7.642   0.799
 1543SOL    HW116660   5.592   7.686   0.868
 1543SOL    HW216661   5.633   7.544   0.800
 1544SOL     OW16662   8.321   2.506   0.847
 1544SOL    HW116663   8.393   2.570   0.875
 1544SOL    HW216664   8.335   2.481   0.751
 1545SOL     OW16665   4.028   5.015   0.854
 1545SOL    HW116666   4.048   5.059   0.766
 1545SOL    HW216667   4.043   5.080   0.928
 1546SOL     OW16668   2.432   3.962   6.456
 1546SOL    HW116669   2.414   3.957   6.555
 1546SOL    HW216670   2.358   4.014   6.412
 1547SOL     OW16671   5.834   6.039   5.213
 1547SOL    HW116672   5.779   6.116   5.183
 1547SOL    HW216673   5.889   6.005   5.136
 1548SOL     OW16674   7.185   7.728   1.236
 1548SOL    HW116675   7.195   7.777   1.323
 1548SOL    HW216676   7.110   7.662   1.244
 1549SOL     OW16677   4.887   7.735   1.075
 1549SOL    HW116678   4.887   7.819   1.021
 1549SOL    HW216679   4.798   7.690   1.067
 1550SOL     OW16680   5.666   7.920   1.144
 1550SOL    HW116681   5.721   8.000   1.119
 1550SOL    HW216682   5.647   7.921   1.242
 1551SOL     OW16683   7.593   6.152   0.691
 1551SOL    HW116684   7.562   6.075   0.745
 1551SOL    HW216685   7.592   6.127   0.594
 1552SOL     OW16686   6.774   6.153   6.658
 1552SOL    HW116687   6.739   6.069   6.616
 1552SOL    HW216688   6.717   6.231   6.630
 1553SOL     OW16689   7.351   1.090   0.796
 1553SOL    HW116690   7.298   1.175   0.797
 1553SOL    HW216691   7.449   1.113   0.794
 1554SOL     OW16692   1.122   7.282   6.085
 1554SOL    HW116693   1.156   7.221   6.156
 1554SOL    HW216694   1.185   7.360   6.075
 1555SOL     OW16695   0.816   7.636   1.027
 1555SOL    HW116696   0.899   7.644   1.082
 1555SOL    HW216697   0.778   7.544   1.037
 1556SOL     OW16698   1.561   2.378   5.989
 1556SOL    HW116699   1.589   2.318   5.915
 1556SOL    HW216700   1.518   2.460   5.952
 1557SOL     OW16701   4.250   6.192   1.332
 1557SOL    HW116702   4.239   6.171   1.430
 1557SOL    HW216703   4.184   6.139   1.279
 1558SOL     OW16704   8.021   2.069   6.984
 1558SOL    HW116705   8.085   2.146   6.983
 1558SOL    HW216706   8.066   1.989   6.943
 1559SOL     OW16707   3.245   6.034   6.313
 1559SOL    HW116708   3.206   6.054   6.223
 1559SOL    HW216709   3.197   6.086   6.383
 1560SOL     OW16710   9.328   1.520   5.600
 1560SOL    HW116711   9.333   1.421   5.611
 1560SOL    HW216712   9.264   1.542   5.526
 1561SOL     OW16713   0.256   7.064   5.383
 1561SOL    HW116714   0.249   6.989   5.449
 1561SOL    HW216715   0.294   7.029   5.298
 1562SOL     OW16716   1.206   0.324   6.363
 1562SOL    HW116717   1.148   0.315   6.443
 1562SOL    HW216718   1.203   0.240   6.308
 1563SOL     OW16719   4.711   0.434   1.985
 1563SOL    HW116720   4.811   0.441   1.975
 1563SOL    HW216721   4.688   0.437   2.082
 1564SOL     OW16722   1.930   0.544   5.548
 1564SOL    HW116723   1.868   0.502   5.615
 1564SOL    HW216724   2.003   0.592   5.595
 1565SOL     OW16725   1.014   0.419   4.978
 1565SOL    HW116726   0.924   0.405   4.938
 1565SOL    HW216727   1.083   0.424   4.905
 1566SOL     OW16728   0.715   0.837   6.787
 1566SOL    HW116729   0.738   0.813   6.693
 1566SOL    HW216730   0.799   0.857   6.838
 1567SOL     OW16731   8.198   1.124   5.915
 1567SOL    HW116732   8.121   1.067   5.885
 1567SOL    HW216733   8.251   1.153   5.835
 1568SOL     OW16734   5.773   2.940   0.604
 1568SOL    HW116735   5.749   2.859   0.657
 1568SOL    HW216736   5.869   2.934   0.575
 1569SOL     OW16737   5.568   0.374   5.390
 1569SOL    HW116738   5.604   0.401   5.301
 1569SOL    HW216739   5.618   0.423   5.462
 1570SOL     OW16740   2.300   1.812   1.257
 1570SOL    HW116741   2.215   1.802   1.204
 1570SOL    HW216742   2.344   1.898   1.232
 1571SOL     OW16743   5.096   2.202   1.269
 1571SOL    HW116744   4.998   2.202   1.289
 1571SOL    HW216745   5.134   2.112   1.290
 1572SOL     OW16746   9.416   4.319   6.748
 1572SOL    HW116747   9.487   4.328   6.678
 1572SOL    HW216748   9.436   4.239   6.805
 1573SOL     OW16749   6.117   1.967   1.694
 1573SOL    HW116750   6.214   1.951   1.709
 1573SOL    HW216751   6.101   2.064   1.677
 1574SOL     OW16752   7.347   1.197   6.225
 1574SOL    HW116753   7.326   1.256   6.303
 1574SOL    HW216754   7.282   1.216   6.151
 1575SOL     OW16755   1.590   1.413   6.739
 1575SOL    HW116756   1.628   1.360   6.815
 1575SOL    HW216757   1.632   1.383   6.654
 1576SOL     OW16758   3.589   1.222   6.602
 1576SOL    HW116759   3.578   1.320   6.585
 1576SOL    HW216760   3.528   1.171   6.541
 1577SOL     OW16761   7.044   1.522   6.001
 1577SOL    HW116762   6.966   1.518   6.063
 1577SOL    HW216763   7.012   1.534   5.907
 1578SOL     OW16764   6.636   3.421   1.893
 1578SOL    HW116765   6.673   3.477   1.966
 1578SOL    HW216766   6.633   3.325   1.922
 1579SOL     OW16767   1.082   4.279   0.972
 1579SOL    HW116768   1.052   4.365   1.012
 1579SOL    HW216769   1.145   4.233   1.035
 1580SOL     OW16770   6.189   6.351   0.616
 1580SOL    HW116771   6.227   6.440   0.639
 1580SOL    HW216772   6.255   6.279   0.638
 1581SOL     OW16773   1.815   0.238   5.874
 1581SOL    HW116774   1.796   0.205   5.782
 1581SOL    HW216775   1.912   0.228   5.894
 1582SOL     OW16776   4.645   3.287   0.990
 1582SOL    HW116777   4.629   3.374   0.944
 1582SOL    HW216778   4.560   3.234   0.990
 1583SOL     OW16779   8.490   4.208   6.431
 1583SOL    HW116780   8.517   4.113   6.446
 1583SOL    HW216781   8.564   4.257   6.384
 1584SOL     OW16782   8.989   2.327   1.853
 1584SOL    HW116783   8.906   2.286   1.816
 1584SOL    HW216784   9.069   2.292   1.803
 1585SOL     OW16785   7.767   2.697   6.105
 1585SOL    HW116786   7.746   2.600   6.113
 1585SOL    HW216787   7.837   2.710   6.035
 1586SOL     OW16788   4.051   5.139   1.487
 1586SOL    HW116789   4.017   5.231   1.501
 1586SOL    HW216790   3.974   5.075   1.482
 1587SOL     OW16791   4.184   5.099   6.965
 1587SOL    HW116792   4.207   5.103   6.868
 1587SOL    HW216793   4.260   5.057   7.016
 1588SOL     OW16794   7.184   7.300   6.118
 1588SOL    HW116795   7.276   7.332   6.097
 1588SOL    HW216796   7.139   7.364   6.180
 1589SOL     OW16797   7.190   2.034   0.952
 1589SOL    HW116798   7.123   1.963   0.929
 1589SOL    HW216799   7.262   2.035   0.883
 1590SOL     OW16800   7.741   8.075   6.539
 1590SOL    HW116801   7.702   8.061   6.630
 1590SOL    HW216802   7.725   7.993   6.483
 1591SOL     OW16803   3.535   5.172   5.229
 1591SOL    HW116804   3.455   5.154   5.172
 1591SOL    HW216805   3.596   5.236   5.181
 1592SOL     OW16806   0.285   5.444   5.634
 1592SOL    HW116807   0.335   5.387   5.569
 1592SOL    HW216808   0.327   5.437   5.725
 1593SOL     OW16809   6.855   3.082   0.664
 1593SOL    HW116810   6.871   3.079   0.763
 1593SOL    HW216811   6.868   3.175   0.631
 1594SOL     OW16812   5.741   5.737   6.877
 1594SOL    HW116813   5.772   5.736   6.972
 1594SOL    HW216814   5.676   5.662   6.862
 1595SOL     OW16815   6.578   4.478   6.944
 1595SOL    HW116816   6.508   4.486   6.874
 1595SOL    HW216817   6.561   4.544   7.017
 1596SOL     OW16818   3.274   5.239   6.901
 1596SOL    HW116819   3.249   5.190   6.984
 1596SOL    HW216820   3.281   5.175   6.825
 1597SOL     OW16821   4.075   4.076   5.712
 1597SOL    HW116822   4.148   4.046   5.774
 1597SOL    HW216823   4.080   4.022   5.627
 1598SOL     OW16824   5.212   1.952   1.343
 1598SOL    HW116825   5.266   1.876   1.308
 1598SOL    HW216826   5.168   1.926   1.428
 1599SOL     OW16827   0.563   7.046   0.579
 1599SOL    HW116828   0.662   7.035   0.593
 1599SOL    HW216829   0.545   7.061   0.482
 1600SOL     OW16830   6.101   0.202   6.967
 1600SOL    HW116831   6.081   0.105   6.982
 1600SOL    HW216832   6.018   0.248   6.935
 1601SOL     OW16833   6.911   8.371   0.810
 1601SOL    HW116834   6.906   8.272   0.829
 1601SOL    HW216835   6.821   8.403   0.780
 1602SOL     OW16836   3.244   1.046   2.585
 1602SOL    HW116837   3.202   1.041   2.494
 1602SOL    HW216838   3.310   1.121   2.587
 1603SOL     OW16839   2.214   2.379   6.731
 1603SOL    HW116840   2.280   2.454   6.734
 1603SOL    HW216841   2.209   2.342   6.639
 1604SOL     OW16842   2.681   4.584   0.973
 1604SOL    HW116843   2.701   4.667   0.920
 1604SOL    HW216844   2.766   4.535   0.990
 1605SOL     OW16845   9.167   4.385   5.822
 1605SOL    HW116846   9.209   4.434   5.745
 1605SOL    HW216847   9.068   4.379   5.807
 1606SOL     OW16848   0.776   0.813   0.511
 1606SOL    HW116849   0.728   0.725   0.513
 1606SOL    HW216850   0.844   0.815   0.584
 1607SOL     OW16851   4.280   0.675   6.271
 1607SOL    HW116852   4.237   0.683   6.361
 1607SOL    HW216853   4.211   0.682   6.199
 1608SOL     OW16854   0.678   1.731   1.291
 1608SOL    HW116855   0.672   1.785   1.375
 1608SOL    HW216856   0.662   1.634   1.313
 1609SOL     OW16857   3.852   4.954   1.423
 1609SOL    HW116858   3.838   4.913   1.333
 1609SOL    HW216859   3.781   4.923   1.486
 1610SOL     OW16860   1.182   0.622   4.708
 1610SOL    HW116861   1.096   0.673   4.712
 1610SOL    HW216862   1.259   0.687   4.705
 1611SOL     OW16863   1.890   6.934   1.403
 1611SOL    HW116864   1.910   7.023   1.363
 1611SOL    HW216865   1.861   6.946   1.498
 1612SOL     OW16866   3.152   5.630   6.986
 1612SOL    HW116867   3.090   5.689   6.934
 1612SOL    HW216868   3.203   5.571   6.923
 1613SOL     OW16869   3.949   4.565   1.409
 1613SOL    HW116870   3.863   4.518   1.387
 1613SOL    HW216871   3.936   4.622   1.489
 1614SOL     OW16872   3.051   7.635   0.911
 1614SOL    HW116873   3.129   7.691   0.880
 1614SOL    HW216874   3.064   7.541   0.880
 1615SOL     OW16875   0.565   1.144   1.632
 1615SOL    HW116876   0.603   1.068   1.580
 1615SOL    HW216877   0.487   1.111   1.686
 1616SOL     OW16878   3.516   3.477   6.826
 1616SOL    HW116879   3.425   3.511   6.848
 1616SOL    HW216880   3.583   3.549   6.843
 1617SOL     OW16881   5.579   2.311   1.048
 1617SOL    HW116882   5.576   2.376   0.972
 1617SOL    HW216883   5.486   2.285   1.074
 1618SOL     OW16884   3.780   7.809   6.170
 1618SOL    HW116885   3.698   7.752   6.165
 1618SOL    HW216886   3.765   7.882   6.237
 1619SOL     OW16887   6.605   7.256   6.819
 1619SOL    HW116888   6.526   7.204   6.789
 1619SOL    HW216889   6.689   7.213   6.785
 1620SOL     OW16890   3.353   4.912   6.060
 1620SOL    HW116891   3.427   4.848   6.041
 1620SOL    HW216892   3.275   4.864   6.100
 1621SOL     OW16893   0.443   2.823   5.738
 1621SOL    HW116894   0.450   2.831   5.639
 1621SOL    HW216895   0.497   2.895   5.781
 1622SOL     OW16896   5.342   8.211   6.303
 1622SOL    HW116897   5.358   8.127   6.354
 1622SOL    HW216898   5.422   8.233   6.248
 1623SOL     OW16899   4.156   3.959   0.880
 1623SOL    HW116900   4.202   3.872   0.859
 1623SOL    HW216901   4.094   3.982   0.806
 1624SOL     OW16902   9.566   6.697   5.240
 1624SOL    HW116903   9.556   6.634   5.317
 1624SOL    HW216904   9.611   6.649   5.164
 1625SOL     OW16905   0.829   8.265   6.705
 1625SOL    HW116906   0.780   8.179   6.687
 1625SOL    HW216907   0.879   8.256   6.791
 1626SOL     OW16908   3.675  -0.033   0.943
 1626SOL    HW116909   3.744   0.034   0.970
 1626SOL    HW216910   3.719  -0.110   0.898
 1627SOL     OW16911   2.040   0.170   0.579
 1627SOL    HW116912   2.023   0.258   0.534
 1627SOL    HW216913   2.117   0.124   0.535
 1628SOL     OW16914   5.670   2.815   1.305
 1628SOL    HW116915   5.642   2.823   1.400
 1628SOL    HW216916   5.738   2.885   1.284
 1629SOL     OW16917   5.851   0.764   1.723
 1629SOL    HW116918   5.943   0.801   1.711
 1629SOL    HW216919   5.854   0.664   1.724
 1630SOL     OW16920   6.843   2.276   6.628
 1630SOL    HW116921   6.834   2.360   6.681
 1630SOL    HW216922   6.870   2.299   6.534
 1631SOL     OW16923   8.937   3.217   6.325
 1631SOL    HW116924   8.879   3.142   6.294
 1631SOL    HW216925   8.887   3.275   6.390
 1632SOL     OW16926   2.272   3.110   6.790
 1632SOL    HW116927   2.274   3.010   6.780
 1632SOL    HW216928   2.349   3.150   6.742
 1633SOL     OW16929   4.228   0.004   6.588
 1633SOL    HW116930   4.137   0.006   6.629
 1633SOL    HW216931   4.236  -0.076   6.529
 1634SOL     OW16932   4.347   6.745   1.541
 1634SOL    HW116933   4.429   6.736   1.484
 1634SOL    HW216934   4.290   6.818   1.505
 1635SOL     OW16935   1.953   2.574   6.688
 1635SOL    HW116936   2.015   2.527   6.750
 1635SOL    HW216937   1.897   2.640   6.739
 1636SOL     OW16938   0.606   7.662   6.303
 1636SOL    HW116939   0.675   7.725   6.340
 1636SOL    HW216940   0.590   7.682   6.207
 1637SOL     OW16941   3.234   7.940   6.526
 1637SOL    HW116942   3.274   7.853   6.554
 1637SOL    HW216943   3.152   7.923   6.472
 1638SOL     OW16944   6.269   8.285   5.594
 1638SOL    HW116945   6.366   8.308   5.609
 1638SOL    HW216946   6.254   8.270   5.496
 1639SOL     OW16947   2.596   2.599   0.680
 1639SOL    HW116948   2.646   2.684   0.663
 1639SOL    HW216949   2.660   2.527   0.705
 1640SOL     OW16950   3.763   0.871   5.867
 1640SOL    HW116951   3.682   0.886   5.811
 1640SOL    HW216952   3.735   0.841   5.958
 1641SOL     OW16953   1.575   5.034   6.139
 1641SOL    HW116954   1.490   5.023   6.087
 1641SOL    HW216955   1.653   5.006   6.083
 1642SOL     OW16956   6.727   2.052   1.074
 1642SOL    HW116957   6.782   2.134   1.062
 1642SOL    HW216958   6.670   2.037   0.993
 1643SOL     OW16959   2.725   1.822   6.004
 1643SOL    HW116960   2.794   1.760   6.040
 1643SOL    HW216961   2.722   1.814   5.905
 1644SOL     OW16962   7.099   6.982   6.643
 1644SOL    HW116963   7.095   7.072   6.688
 1644SOL    HW216964   7.023   6.974   6.579
 1645SOL     OW16965   7.616   0.365   6.004
 1645SOL    HW116966   7.686   0.437   6.012
 1645SOL    HW216967   7.534   0.393   6.054
 1646SOL     OW16968   9.455   7.921   6.871
 1646SOL    HW116969   9.460   7.955   6.965
 1646SOL    HW216970   9.455   7.999   6.808
 1647SOL     OW16971   0.341   0.695   6.262
 1647SOL    HW116972   0.292   0.723   6.344
 1647SOL    HW216973   0.425   0.749   6.253
 1648SOL     OW16974   1.615   2.958   6.243
 1648SOL    HW116975   1.651   3.040   6.199
 1648SOL    HW216976   1.685   2.886   6.240
 1649SOL     OW16977   4.023   8.018   0.955
 1649SOL    HW116978   4.080   8.064   0.886
 1649SOL    HW216979   3.927   8.020   0.925
 1650SOL     OW16980   0.482   5.974   6.354
 1650SOL    HW116981   0.417   5.900   6.339
 1650SOL    HW216982   0.561   5.939   6.405
 1651SOL     OW16983   3.406   5.374   6.223
 1651SOL    HW116984   3.482   5.435   6.204
 1651SOL    HW216985   3.407   5.297   6.159
 1652SOL     OW16986   5.626   4.815   1.914
 1652SOL    HW116987   5.643   4.827   2.012
 1652SOL    HW216988   5.529   4.830   1.894
 1653SOL     OW16989   5.806   8.426   0.789
 1653SOL    HW116990   5.718   8.459   0.754
 1653SOL    HW216991   5.863   8.398   0.712
 1654SOL     OW16992   0.798   6.766   6.442
 1654SOL    HW116993   0.813   6.747   6.345
 1654SOL    HW216994   0.701   6.777   6.460
 1655SOL     OW16995   6.516   5.058   4.985
 1655SOL    HW116996   6.608   5.020   4.988
 1655SOL    HW216997   6.449   4.984   4.981
 1656SOL     OW16998   4.076   1.459   2.243
 1656SOL    HW116999   4.061   1.375   2.191
 1656SOL    HW217000   4.066   1.440   2.340
 1657SOL     OW17001   5.680   8.117   0.811
 1657SOL    HW117002   5.583   8.100   0.829
 1657SOL    HW217003   5.713   8.188   0.874
 1658SOL     OW17004   4.328   6.929   5.274
 1658SOL    HW117005   4.333   7.025   5.247
 1658SOL    HW217006   4.236   6.894   5.256
 1659SOL     OW17007   0.964   7.760   5.916
 1659SOL    HW117008   0.962   7.757   6.016
 1659SOL    HW217009   0.871   7.759   5.880
 1660SOL     OW17010   0.592   3.240   6.907
 1660SOL    HW117011   0.536   3.323   6.916
 1660SOL    HW217012   0.582   3.185   6.990
 1661SOL     OW17013   8.106   7.434   6.432
 1661SOL    HW117014   8.076   7.467   6.342
 1661SOL    HW217015   8.052   7.354   6.457
 1662SOL     OW17016   4.974   2.684   1.105
 1662SOL    HW117017   5.000   2.731   1.021
 1662SOL    HW217018   4.880   2.649   1.096
 1663SOL     OW17019   3.723   6.989   0.297
 1663SOL    HW117020   3.700   6.986   0.394
 1663SOL    HW217021   3.817   7.020   0.285
 1664SOL     OW17022   9.594   4.016   1.144
 1664SOL    HW117023   9.580   4.029   1.242
 1664SOL    HW217024   9.505   4.002   1.100
 1665SOL     OW17025   5.979   1.041   6.547
 1665SOL    HW117026   6.018   1.008   6.633
 1665SOL    HW217027   5.952   1.137   6.557
 1666SOL     OW17028   3.481   0.762   0.316
 1666SOL    HW117029   3.528   0.677   0.336
 1666SOL    HW217030   3.513   0.798   0.228
 1667SOL     OW17031   4.763   8.355   0.873
 1667SOL    HW117032   4.801   8.313   0.956
 1667SOL    HW217033   4.812   8.320   0.793
 1668SOL     OW17034   7.229   8.050   5.486
 1668SOL    HW117035   7.314   8.096   5.460
 1668SOL    HW217036   7.167   8.115   5.528
 1669SOL     OW17037   6.346   6.372   5.698
 1669SOL    HW117038   6.289   6.290   5.703
 1669SOL    HW217039   6.346   6.408   5.605
 1670SOL     OW17040   5.949   1.627   1.880
 1670SOL    HW117041   5.944   1.530   1.903
 1670SOL    HW217042   5.882   1.677   1.935
 1671SOL     OW17043   5.912   0.150   0.522
 1671SOL    HW117044   5.820   0.164   0.559
 1671SOL    HW217045   5.968   0.230   0.544
 1672SOL     OW17046   2.461   3.743   1.256
 1672SOL    HW117047   2.488   3.813   1.321
 1672SOL    HW217048   2.411   3.785   1.180
 1673SOL     OW17049   7.560   6.088   0.425
 1673SOL    HW117050   7.635   6.023   0.429
 1673SOL    HW217051   7.571   6.147   0.345
 1674SOL     OW17052   6.613   1.050   2.236
 1674SOL    HW117053   6.613   0.982   2.310
 1674SOL    HW217054   6.627   1.004   2.148
 1675SOL     OW17055   7.815   6.319   0.521
 1675SOL    HW117056   7.768   6.352   0.603
 1675SOL    HW217057   7.859   6.396   0.474
 1676SOL     OW17058   9.217   0.891   0.386
 1676SOL    HW117059   9.288   0.835   0.428
 1676SOL    HW217060   9.204   0.864   0.291
 1677SOL     OW17061   6.104   0.142   5.111
 1677SOL    HW117062   6.147   0.123   5.199
 1677SOL    HW217063   6.152   0.218   5.067
 1678SOL     OW17064   5.448   3.779   6.636
 1678SOL    HW117065   5.423   3.863   6.686
 1678SOL    HW217066   5.509   3.724   6.693
 1679SOL     OW17067   9.195   4.527   6.706
 1679SOL    HW117068   9.263   4.458   6.729
 1679SOL    HW217069   9.228   4.617   6.734
 1680SOL     OW17070   9.295   4.748   6.842
 1680SOL    HW117071   9.226   4.814   6.816
 1680SOL    HW217072   9.378   4.795   6.871
 1681SOL     OW17073   5.412   2.655   0.728
 1681SOL    HW117074   5.355   2.664   0.647
 1681SOL    HW217075   5.431   2.746   0.766
 1682SOL     OW17076   6.049   1.346   2.279
 1682SOL    HW117077   6.087   1.277   2.217
 1682SOL    HW217078   6.088   1.435   2.255
 1683SOL     OW17079   0.228   6.977   1.552
 1683SOL    HW117080   0.177   6.908   1.604
 1683SOL    HW217081   0.211   6.964   1.455
 1684SOL     OW17082   5.468   2.998   0.508
 1684SOL    HW117083   5.503   3.092   0.506
 1684SOL    HW217084   5.545   2.935   0.511
 1685SOL     OW17085   9.199   4.402   6.408
 1685SOL    HW117086   9.225   4.352   6.326
 1685SOL    HW217087   9.251   4.487   6.413
 1686SOL     OW17088   3.954   6.302   2.566
 1686SOL    HW117089   3.938   6.400   2.578
 1686SOL    HW217090   3.874   6.251   2.597
 1687SOL     OW17091   8.628   2.825   6.740
 1687SOL    HW117092   8.589   2.846   6.829
 1687SOL    HW217093   8.619   2.728   6.721
 1688SOL     OW17094   5.827   2.831   6.182
 1688SOL    HW117095   5.846   2.768   6.257
 1688SOL    HW217096   5.777   2.910   6.218
 1689SOL     OW17097   8.654   1.033   6.743
 1689SOL    HW117098   8.618   0.969   6.810
 1689SOL    HW217099   8.627   1.004   6.651
 1690SOL     OW17100   0.358   0.085   6.048
 1690SOL    HW117101   0.422   0.069   6.124
 1690SOL    HW217102   0.398   0.151   5.985
 1691SOL     OW17103   6.169   2.662   6.321
 1691SOL    HW117104   6.143   2.602   6.245
 1691SOL    HW217105   6.232   2.613   6.382
 1692SOL     OW17106   4.943   5.249   1.041
 1692SOL    HW117107   4.925   5.188   0.964
 1692SOL    HW217108   4.938   5.344   1.009
 1693SOL     OW17109   0.498   5.749   5.638
 1693SOL    HW117110   0.525   5.674   5.578
 1693SOL    HW217111   0.549   5.832   5.614
 1694SOL     OW17112   6.274   1.047   0.816
 1694SOL    HW117113   6.216   1.018   0.740
 1694SOL    HW217114   6.296   1.145   0.806
 1695SOL     OW17115   1.137   5.598   6.501
 1695SOL    HW117116   1.205   5.633   6.566
 1695SOL    HW217117   1.160   5.629   6.409
 1696SOL     OW17118   7.668   1.242   1.116
 1696SOL    HW117119   7.608   1.252   1.196
 1696SOL    HW217120   7.755   1.202   1.144
 1697SOL     OW17121   6.639   4.853   6.693
 1697SOL    HW117122   6.618   4.946   6.663
 1697SOL    HW217123   6.594   4.835   6.780
 1698SOL     OW17124   5.433   1.439   0.545
 1698SOL    HW117125   5.437   1.502   0.468
 1698SOL    HW217126   5.491   1.360   0.527
 1699SOL     OW17127   3.825   7.121   6.419
 1699SOL    HW117128   3.747   7.071   6.383
 1699SOL    HW217129   3.794   7.187   6.488
 1700SOL     OW17130   8.135   6.556   6.658
 1700SOL    HW117131   8.186   6.514   6.583
 1700SOL    HW217132   8.054   6.602   6.621
 1701SOL     OW17133   3.760   7.808   1.195
 1701SOL    HW117134   3.699   7.865   1.249
 1701SOL    HW217135   3.847   7.797   1.243
 1702SOL     OW17136   1.072   6.514   5.870
 1702SOL    HW117137   1.035   6.606   5.885
 1702SOL    HW217138   1.165   6.521   5.833
 1703SOL     OW17139   3.102   6.081   1.354
 1703SOL    HW117140   3.044   6.106   1.432
 1703SOL    HW217141   3.063   6.117   1.270
 1704SOL     OW17142   0.765   2.779   6.683
 1704SOL    HW117143   0.693   2.784   6.753
 1704SOL    HW217144   0.807   2.689   6.685
 1705SOL     OW17145   2.640   6.761   0.758
 1705SOL    HW117146   2.719   6.729   0.812
 1705SOL    HW217147   2.615   6.853   0.787
 1706SOL     OW17148   2.784   0.311   6.052
 1706SOL    HW117149   2.822   0.291   6.142
 1706SOL    HW217150   2.753   0.406   6.048
 1707SOL     OW17151   5.543   1.808   6.763
 1707SOL    HW117152   5.637   1.814   6.729
 1707SOL    HW217153   5.484   1.771   6.691
 1708SOL     OW17154   0.558   5.862   0.480
 1708SOL    HW117155   0.559   5.767   0.447
 1708SOL    HW217156   0.576   5.863   0.578
 1709SOL     OW17157   3.890   1.588   1.612
 1709SOL    HW117158   3.972   1.620   1.565
 1709SOL    HW217159   3.915   1.523   1.684
 1710SOL     OW17160   9.190   8.357   6.878
 1710SOL    HW117161   9.192   8.351   6.977
 1710SOL    HW217162   9.204   8.452   6.849
 1711SOL     OW17163   0.234   7.849   0.278
 1711SOL    HW117164   0.180   7.900   0.211
 1711SOL    HW217165   0.247   7.755   0.247
 1712SOL     OW17166   4.910   1.178   1.519
 1712SOL    HW117167   4.899   1.080   1.501
 1712SOL    HW217168   4.980   1.191   1.589
 1713SOL     OW17169   2.770   3.187   0.739
 1713SOL    HW117170   2.861   3.204   0.702
 1713SOL    HW217171   2.730   3.273   0.771
 1714SOL     OW17172   2.070   1.465   1.188
 1714SOL    HW117173   2.057   1.374   1.150
 1714SOL    HW217174   2.167   1.483   1.201
 1715SOL     OW17175   3.518   3.537   6.561
 1715SOL    HW117176   3.514   3.519   6.659
 1715SOL    HW217177   3.611   3.524   6.529
 1716SOL     OW17178   8.005   5.024   5.552
 1716SOL    HW117179   7.994   5.087   5.629
 1716SOL    HW217180   7.975   4.932   5.579
 1717SOL     OW17181   0.120   6.733   0.478
 1717SOL    HW117182   0.138   6.821   0.523
 1717SOL    HW217183   0.109   6.747   0.380
 1718SOL     OW17184   3.165   0.881   6.515
 1718SOL    HW117185   3.141   0.922   6.603
 1718SOL    HW217186   3.107   0.801   6.498
 1719SOL     OW17187   3.763   1.335   0.545
 1719SOL    HW117188   3.780   1.318   0.642
 1719SOL    HW217189   3.682   1.392   0.534
 1720SOL     OW17190   3.943   7.422   6.995
 1720SOL    HW117191   4.006   7.482   7.045
 1720SOL    HW217192   3.977   7.328   6.999
 1721SOL     OW17193   2.083   0.775   1.270
 1721SOL    HW117194   2.045   0.767   1.178
 1721SOL    HW217195   2.082   0.871   1.298
 1722SOL     OW17196   0.386   6.080   5.857
 1722SOL    HW117197   0.301   6.041   5.893
 1722SOL    HW217198   0.450   6.095   5.932
 1723SOL     OW17199   0.957   6.101   0.290
 1723SOL    HW117200   1.005   6.080   0.205
 1723SOL    HW217201   0.859   6.102   0.273
 1724SOL     OW17202   7.326  -0.045   5.810
 1724SOL    HW117203   7.298  -0.044   5.714
 1724SOL    HW217204   7.272   0.023   5.861
 1725SOL     OW17205   2.693   2.119   1.287
 1725SOL    HW117206   2.766   2.176   1.323
 1725SOL    HW217207   2.722   2.023   1.289
 1726SOL     OW17208   3.550   1.609   0.295
 1726SOL    HW117209   3.549   1.518   0.252
 1726SOL    HW217210   3.585   1.676   0.229
 1727SOL     OW17211   0.872   5.983   0.920
 1727SOL    HW117212   0.929   6.049   0.870
 1727SOL    HW217213   0.909   5.891   0.906
 1728SOL     OW17214   3.688   5.872   1.388
 1728SOL    HW117215   3.606   5.902   1.339
 1728SOL    HW217216   3.700   5.774   1.375
 1729SOL     OW17217   5.441   2.002   6.030
 1729SOL    HW117218   5.529   2.034   6.065
 1729SOL    HW217219   5.409   2.065   5.959
 1730SOL     OW17220   4.265   7.558   6.581
 1730SOL    HW117221   4.278   7.583   6.676
 1730SOL    HW217222   4.186   7.497   6.573
 1731SOL     OW17223   4.290   5.515   5.498
 1731SOL    HW117224   4.222   5.582   5.469
 1731SOL    HW217225   4.335   5.477   5.417
 1732SOL     OW17226   6.514   1.541   0.941
 1732SOL    HW117227   6.533   1.625   0.992
 1732SOL    HW217228   6.530   1.462   1.000
 1733SOL     OW17229   7.530   6.236   1.392
 1733SOL    HW117230   7.554   6.230   1.489
 1733SOL    HW217231   7.439   6.276   1.382
 1734SOL     OW17232   1.484   7.012   6.611
 1734SOL    HW117233   1.584   7.006   6.605
 1734SOL    HW217234   1.459   7.073   6.686
 1735SOL     OW17235   9.540   8.357   0.367
 1735SOL    HW117236   9.466   8.400   0.315
 1735SOL    HW217237   9.626   8.370   0.318
 1736SOL     OW17238   8.003   7.371   5.519
 1736SOL    HW117239   8.077   7.430   5.487
 1736SOL    HW217240   7.929   7.428   5.555
 1737SOL     OW17241   2.617   2.969   0.759
 1737SOL    HW117242   2.647   2.916   0.680
 1737SOL    HW217243   2.680   3.046   0.773
 1738SOL     OW17244   3.566   1.090   0.903
 1738SOL    HW117245   3.637   1.107   0.834
 1738SOL    HW217246   3.609   1.072   0.991
 1739SOL     OW17247   7.873   0.547   5.124
 1739SOL    HW117248   7.808   0.606   5.076
 1739SOL    HW217249   7.966   0.575   5.103
 1740SOL     OW17250   7.137   0.665   5.885
 1740SOL    HW117251   7.136   0.765   5.874
 1740SOL    HW217252   7.231   0.633   5.889
 1741SOL     OW17253   0.276   2.196   6.189
 1741SOL    HW117254   0.246   2.152   6.274
 1741SOL    HW217255   0.273   2.295   6.200
 1742SOL     OW17256   4.235   5.844   6.542
 1742SOL    HW117257   4.266   5.771   6.481
 1742SOL    HW217258   4.302   5.855   6.616
 1743SOL     OW17259   1.039   1.266   0.954
 1743SOL    HW117260   0.951   1.284   0.909
 1743SOL    HW217261   1.045   1.169   0.978
 1744SOL     OW17262   4.204   7.909   2.441
 1744SOL    HW117263   4.162   7.901   2.531
 1744SOL    HW217264   4.153   7.974   2.385
 1745SOL     OW17265   5.542   6.226   1.816
 1745SOL    HW117266   5.573   6.296   1.881
 1745SOL    HW217267   5.603   6.226   1.736
 1746SOL     OW17268   7.088   8.296   5.429
 1746SOL    HW117269   7.012   8.358   5.412
 1746SOL    HW217270   7.110   8.247   5.344
 1747SOL     OW17271   4.661   0.516   0.814
 1747SOL    HW117272   4.628   0.443   0.874
 1747SOL    HW217273   4.668   0.601   0.867
 1748SOL     OW17274   0.705   7.355   1.042
 1748SOL    HW117275   0.740   7.279   0.988
 1748SOL    HW217276   0.606   7.345   1.053
 1749SOL     OW17277   4.698   4.097   6.178
 1749SOL    HW117278   4.695   4.026   6.248
 1749SOL    HW217279   4.613   4.094   6.124
 1750SOL     OW17280   6.070   5.441   1.248
 1750SOL    HW117281   6.001   5.483   1.188
 1750SOL    HW217282   6.042   5.452   1.343
 1751SOL     OW17283   9.420   7.816   5.250
 1751SOL    HW117284   9.370   7.808   5.164
 1751SOL    HW217285   9.480   7.896   5.246
 1752SOL     OW17286   1.230   6.128   5.806
 1752SOL    HW117287   1.190   6.107   5.895
 1752SOL    HW217288   1.303   6.196   5.817
 1753SOL     OW17289   5.907   8.368   0.525
 1753SOL    HW117290   5.908   8.467   0.509
 1753SOL    HW217291   5.932   8.320   0.441
 1754SOL     OW17292   4.934   4.269   6.387
 1754SOL    HW117293   4.980   4.186   6.420
 1754SOL    HW217294   4.844   4.245   6.352
 1755SOL     OW17295   7.174   7.686   0.501
 1755SOL    HW117296   7.082   7.660   0.471
 1755SOL    HW217297   7.240   7.662   0.430
 1756SOL     OW17298   0.564   8.186   0.699
 1756SOL    HW117299   0.609   8.140   0.622
 1756SOL    HW217300   0.607   8.156   0.784
 1757SOL     OW17301   7.947   4.363   6.562
 1757SOL    HW117302   8.002   4.421   6.503
 1757SOL    HW217303   7.851   4.391   6.556
 1758SOL     OW17304   3.821   6.239   1.013
 1758SOL    HW117305   3.741   6.260   1.069
 1758SOL    HW217306   3.878   6.172   1.060
 1759SOL     OW17307   2.315   4.680   0.572
 1759SOL    HW117308   2.270   4.621   0.639
 1759SOL    HW217309   2.407   4.645   0.553
 1760SOL     OW17310   5.344   8.227   1.128
 1760SOL    HW117311   5.277   8.223   1.054
 1760SOL    HW217312   5.427   8.177   1.102
 1761SOL     OW17313   6.815   3.094   6.824
 1761SOL    HW117314   6.735   3.081   6.882
 1761SOL    HW217315   6.898   3.082   6.880
 1762SOL     OW17316   0.653   6.694   4.730
 1762SOL    HW117317   0.734   6.636   4.743
 1762SOL    HW217318   0.575   6.637   4.706
 1763SOL     OW17319   0.945   6.483   0.667
 1763SOL    HW117320   0.887   6.557   0.632
 1763SOL    HW217321   1.025   6.522   0.712
 1764SOL     OW17322   1.361   2.393   6.159
 1764SOL    HW117323   1.340   2.476   6.210
 1764SOL    HW217324   1.446   2.406   6.107
 1765SOL     OW17325   5.672   5.520   6.603
 1765SOL    HW117326   5.683   5.513   6.504
 1765SOL    HW217327   5.658   5.429   6.642
 1766SOL     OW17328   3.390   3.145   0.528
 1766SOL    HW117329   3.487   3.133   0.504
 1766SOL    HW217330   3.335   3.135   0.445
 1767SOL     OW17331   4.899   6.042   6.152
 1767SOL    HW117332   4.886   6.064   6.055
 1767SOL    HW217333   4.972   6.100   6.189
 1768SOL     OW17334   1.475   6.162   1.604
 1768SOL    HW117335   1.399   6.220   1.573
 1768SOL    HW217336   1.473   6.075   1.554
 1769SOL     OW17337   2.778   4.197   0.888
 1769SOL    HW117338   2.772   4.186   0.987
 1769SOL    HW217339   2.790   4.108   0.845
 1770SOL     OW17340   9.124   2.189   5.597
 1770SOL    HW117341   9.119   2.289   5.593
 1770SOL    HW217342   9.146   2.160   5.690
 1771SOL     OW17343   9.435   3.476   1.201
 1771SOL    HW117344   9.363   3.426   1.250
 1771SOL    HW217345   9.413   3.573   1.200
 1772SOL     OW17346   3.750   2.415   6.609
 1772SOL    HW117347   3.768   2.508   6.642
 1772SOL    HW217348   3.826   2.384   6.552
 1773SOL     OW17349   3.267   4.996   0.935
 1773SOL    HW117350   3.287   4.898   0.941
 1773SOL    HW217351   3.184   5.016   0.987
 1774SOL     OW17352   2.885   7.927   6.536
 1774SOL    HW117353   2.810   7.863   6.522
 1774SOL    HW217354   2.880   7.963   6.629
 1775SOL     OW17355   0.391   0.686   6.603
 1775SOL    HW117356   0.432   0.650   6.687
 1775SOL    HW217357   0.459   0.684   6.530
 1776SOL     OW17358   3.608   1.374   6.904
 1776SOL    HW117359   3.694   1.402   6.861
 1776SOL    HW217360   3.616   1.279   6.934
 1777SOL     OW17361   2.657   0.584   0.403
 1777SOL    HW117362   2.703   0.640   0.473
 1777SOL    HW217363   2.725   0.543   0.343
 1778SOL     OW17364   5.246   5.811   6.635
 1778SOL    HW117365   5.212   5.891   6.684
 1778SOL    HW217366   5.192   5.731   6.660
 1779SOL     OW17367   8.670   6.466   5.177
 1779SOL    HW117368   8.665   6.378   5.130
 1779SOL    HW217369   8.614   6.533   5.128
 1780SOL     OW17370   9.432   0.517   5.829
 1780SOL    HW117371   9.504   0.517   5.761
 1780SOL    HW217372   9.343   0.531   5.785
 1781SOL     OW17373   8.621   0.894   0.899
 1781SOL    HW117374   8.691   0.890   0.971
 1781SOL    HW217375   8.540   0.941   0.934
 1782SOL     OW17376   8.490   6.581   0.816
 1782SOL    HW117377   8.560   6.614   0.880
 1782SOL    HW217378   8.422   6.653   0.802
 1783SOL     OW17379   6.010   7.117   0.758
 1783SOL    HW117380   5.991   7.019   0.755
 1783SOL    HW217381   5.955   7.164   0.690
 1784SOL     OW17382   8.013   3.340   1.343
 1784SOL    HW117383   8.028   3.244   1.319
 1784SOL    HW217384   7.917   3.354   1.368
 1785SOL     OW17385   6.966   5.874   6.169
 1785SOL    HW117386   6.985   5.923   6.084
 1785SOL    HW217387   6.867   5.868   6.184
 1786SOL     OW17388   6.596   6.379   1.400
 1786SOL    HW117389   6.539   6.458   1.378
 1786SOL    HW217390   6.581   6.352   1.495
 1787SOL     OW17391   2.677   8.231   6.575
 1787SOL    HW117392   2.616   8.198   6.646
 1787SOL    HW217393   2.768   8.249   6.614
 1788SOL     OW17394   7.762   1.926   6.858
 1788SOL    HW117395   7.803   1.842   6.822
 1788SOL    HW217396   7.819   2.004   6.832
 1789SOL     OW17397   0.805   7.426   5.191
 1789SOL    HW117398   0.743   7.363   5.236
 1789SOL    HW217399   0.849   7.485   5.259
 1790SOL     OW17400   4.662   5.187   0.367
 1790SOL    HW117401   4.579   5.163   0.418
 1790SOL    HW217402   4.682   5.115   0.300
 1791SOL     OW17403   0.430   2.079   6.578
 1791SOL    HW117404   0.408   2.020   6.501
 1791SOL    HW217405   0.519   2.122   6.562
 1792SOL     OW17406   1.128   6.786   0.715
 1792SOL    HW117407   1.133   6.696   0.757
 1792SOL    HW217408   1.204   6.842   0.748
 1793SOL     OW17409   1.603   0.080   0.979
 1793SOL    HW117410   1.635   0.054   1.070
 1793SOL    HW217411   1.682   0.092   0.918
 1794SOL     OW17412   2.582   5.427   0.876
 1794SOL    HW117413   2.669   5.381   0.858
 1794SOL    HW217414   2.533   5.440   0.790
 1795SOL     OW17415   1.371   3.057   5.687
 1795SOL    HW117416   1.392   3.077   5.591
 1795SOL    HW217417   1.431   3.112   5.745
 1796SOL     OW17418   0.378   6.808   6.943
 1796SOL    HW117419   0.392   6.749   7.023
 1796SOL    HW217420   0.280   6.814   6.923
 1797SOL     OW17421   2.759   5.096   6.406
 1797SOL    HW117422   2.674   5.066   6.449
 1797SOL    HW217423   2.761   5.195   6.399
 1798SOL     OW17424   7.714   6.041   5.434
 1798SOL    HW117425   7.649   6.114   5.451
 1798SOL    HW217426   7.773   6.065   5.357
 1799SOL     OW17427   4.282   0.069   1.731
 1799SOL    HW117428   4.249  -0.023   1.712
 1799SOL    HW217429   4.334   0.069   1.816
 1800SOL     OW17430   4.273   5.087   1.062
 1800SOL    HW117431   4.331   5.056   0.987
 1800SOL    HW217432   4.221   5.167   1.032
 1801SOL     OW17433   1.173   3.728   5.180
 1801SOL    HW117434   1.201   3.813   5.134
 1801SOL    HW217435   1.158   3.657   5.111
 1802SOL     OW17436   1.416   5.591   5.546
 1802SOL    HW117437   1.369   5.669   5.586
 1802SOL    HW217438   1.402   5.592   5.446
 1803SOL     OW17439   8.448   1.113   5.728
 1803SOL    HW117440   8.500   1.069   5.655
 1803SOL    HW217441   8.450   1.212   5.716
 1804SOL     OW17442   4.638   4.855   5.902
 1804SOL    HW117443   4.719   4.799   5.883
 1804SOL    HW217444   4.559   4.815   5.855
 1805SOL     OW17445   6.646   6.115   6.123
 1805SOL    HW117446   6.656   6.020   6.093
 1805SOL    HW217447   6.700   6.175   6.064
 1806SOL     OW17448   0.697   8.105   0.906
 1806SOL    HW117449   0.636   8.132   0.981
 1806SOL    HW217450   0.782   8.069   0.944
 1807SOL     OW17451   4.493   8.186   6.654
 1807SOL    HW117452   4.532   8.136   6.576
 1807SOL    HW217453   4.561   8.250   6.690
 1808SOL     OW17454   2.288   0.491   1.644
 1808SOL    HW117455   2.287   0.580   1.689
 1808SOL    HW217456   2.200   0.446   1.656
 1809SOL     OW17457   4.586   4.743   6.778
 1809SOL    HW117458   4.525   4.787   6.712
 1809SOL    HW217459   4.677   4.733   6.738
 1810SOL     OW17460   1.714   4.154   5.767
 1810SOL    HW117461   1.680   4.246   5.788
 1810SOL    HW217462   1.779   4.159   5.691
 1811SOL     OW17463   9.026   3.371   1.817
 1811SOL    HW117464   9.113   3.323   1.829
 1811SOL    HW217465   9.002   3.419   1.902
 1812SOL     OW17466   4.484  -0.060   6.312
 1812SOL    HW117467   4.399  -0.073   6.363
 1812SOL    HW217468   4.485  -0.120   6.232
 1813SOL     OW17469   7.636   5.223   5.247
 1813SOL    HW117470   7.597   5.286   5.180
 1813SOL    HW217471   7.707   5.269   5.300
 1814SOL     OW17472   7.096   3.102   5.735
 1814SOL    HW117473   7.080   3.011   5.696
 1814SOL    HW217474   7.148   3.157   5.670
 1815SOL     OW17475   0.170   3.894   1.614
 1815SOL    HW117476   0.260   3.849   1.620
 1815SOL    HW217477   0.137   3.915   1.705
 1816SOL     OW17478   2.410   5.489   6.298
 1816SOL    HW117479   2.393   5.402   6.344
 1816SOL    HW217480   2.441   5.557   6.365
 1817SOL     OW17481   4.984   8.100   5.931
 1817SOL    HW117482   4.982   8.028   5.861
 1817SOL    HW217483   5.062   8.084   5.992
 1818SOL     OW17484   2.356   2.193   0.461
 1818SOL    HW117485   2.387   2.279   0.421
 1818SOL    HW217486   2.428   2.124   0.452
 1819SOL     OW17487   9.303   3.241   6.322
 1819SOL    HW117488   9.374   3.181   6.359
 1819SOL    HW217489   9.280   3.211   6.229
 1820SOL     OW17490   2.847   4.570   6.925
 1820SOL    HW117491   2.890   4.568   6.835
 1820SOL    HW217492   2.799   4.484   6.941
 1821SOL     OW17493   3.685   4.374   2.083
 1821SOL    HW117494   3.593   4.404   2.107
 1821SOL    HW217495   3.725   4.325   2.160
 1822SOL     OW17496   8.701   3.624   6.354
 1822SOL    HW117497   8.627   3.648   6.291
 1822SOL    HW217498   8.691   3.678   6.438
 1823SOL     OW17499   4.937   1.909   6.427
 1823SOL    HW117500   5.037   1.912   6.418
 1823SOL    HW217501   4.913   1.918   6.524
 1824SOL     OW17502   2.468   4.655   1.149
 1824SOL    HW117503   2.541   4.670   1.083
 1824SOL    HW217504   2.398   4.596   1.109
 1825SOL     OW17505   7.541   1.220   1.403
 1825SOL    HW117506   7.549   1.128   1.363
 1825SOL    HW217507   7.522   1.212   1.501
 1826SOL     OW17508   1.932   2.058   0.344
 1826SOL    HW117509   1.930   2.062   0.444
 1826SOL    HW217510   1.852   2.105   0.307
 1827SOL     OW17511   6.251   7.345   5.585
 1827SOL    HW117512   6.164   7.305   5.612
 1827SOL    HW217513   6.257   7.347   5.485
 1828SOL     OW17514   0.620   1.864   5.452
 1828SOL    HW117515   0.699   1.847   5.394
 1828SOL    HW217516   0.549   1.911   5.400
 1829SOL     OW17517   3.710   7.073   1.578
 1829SOL    HW117518   3.619   7.107   1.601
 1829SOL    HW217519   3.772   7.150   1.565
 1830SOL     OW17520   3.787   6.207   1.960
 1830SOL    HW117521   3.701   6.257   1.960
 1830SOL    HW217522   3.769   6.110   1.943
 1831SOL     OW17523   1.493   6.562   5.136
 1831SOL    HW117524   1.586   6.564   5.173
 1831SOL    HW217525   1.487   6.623   5.057
 1832SOL     OW17526   4.136   1.539   1.038
 1832SOL    HW117527   4.086   1.486   1.106
 1832SOL    HW217528   4.102   1.633   1.037
 1833SOL     OW17529   6.051   4.750   6.268
 1833SOL    HW117530   6.023   4.818   6.335
 1833SOL    HW217531   6.148   4.728   6.280
 1834SOL     OW17532   1.502   8.382   1.349
 1834SOL    HW117533   1.456   8.294   1.337
 1834SOL    HW217534   1.434   8.455   1.357
 1835SOL     OW17535   0.753   0.377   0.761
 1835SOL    HW117536   0.765   0.411   0.854
 1835SOL    HW217537   0.667   0.326   0.755
 1836SOL     OW17538   9.527   1.704   0.894
 1836SOL    HW117539   9.432   1.729   0.874
 1836SOL    HW217540   9.567   1.659   0.814
 1837SOL     OW17541   9.238   2.395   6.587
 1837SOL    HW117542   9.288   2.477   6.616
 1837SOL    HW217543   9.199   2.350   6.668
 1838SOL     OW17544   6.251   7.703   1.122
 1838SOL    HW117545   6.317   7.647   1.173
 1838SOL    HW217546   6.184   7.742   1.185
 1839SOL     OW17547   0.141   1.100   6.741
 1839SOL    HW117548   0.192   1.186   6.732
 1839SOL    HW217549   0.201   1.029   6.777
 1840SOL     OW17550   1.032   5.597   5.361
 1840SOL    HW117551   1.054   5.685   5.320
 1840SOL    HW217552   1.038   5.604   5.461
 1841SOL     OW17553   3.658   3.289   6.959
 1841SOL    HW117554   3.677   3.339   7.044
 1841SOL    HW217555   3.586   3.337   6.908
 1842SOL     OW17556   2.637   6.955   5.238
 1842SOL    HW117557   2.597   6.870   5.205
 1842SOL    HW217558   2.636   7.023   5.164
 1843SOL     OW17559   6.814   5.084   1.047
 1843SOL    HW117560   6.862   5.094   1.134
 1843SOL    HW217561   6.718   5.113   1.058
 1844SOL     OW17562   9.465   3.166   0.397
 1844SOL    HW117563   9.430   3.137   0.486
 1844SOL    HW217564   9.478   3.087   0.338
 1845SOL     OW17565   8.092   6.947   0.484
 1845SOL    HW117566   8.006   6.910   0.449
 1845SOL    HW217567   8.075   7.034   0.530
 1846SOL     OW17568   9.495   2.430   1.344
 1846SOL    HW117569   9.536   2.360   1.285
 1846SOL    HW217570   9.440   2.385   1.414
 1847SOL     OW17571   5.931   4.987   1.148
 1847SOL    HW117572   6.002   5.004   1.080
 1847SOL    HW217573   5.870   4.915   1.115
 1848SOL     OW17574   5.152   0.322   6.257
 1848SOL    HW117575   5.143   0.354   6.352
 1848SOL    HW217576   5.063   0.287   6.226
 1849SOL     OW17577   6.452   5.015   6.195
 1849SOL    HW117578   6.524   5.022   6.126
 1849SOL    HW217579   6.487   4.968   6.275
 1850SOL     OW17580   4.385   6.289   2.378
 1850SOL    HW117581   4.436   6.373   2.361
 1850SOL    HW217582   4.401   6.258   2.471
 1851SOL     OW17583   1.112   5.829   6.734
 1851SOL    HW117584   1.205   5.796   6.720
 1851SOL    HW217585   1.089   5.826   6.831
 1852SOL     OW17586   8.391   6.273   6.695
 1852SOL    HW117587   8.344   6.198   6.649
 1852SOL    HW217588   8.489   6.253   6.701
 1853SOL     OW17589   9.139   3.088   1.290
 1853SOL    HW117590   9.231   3.049   1.290
 1853SOL    HW217591   9.121   3.131   1.201
 1854SOL     OW17592   3.144   1.114   0.487
 1854SOL    HW117593   3.076   1.043   0.506
 1854SOL    HW217594   3.099   1.203   0.483
 1855SOL     OW17595   7.398   8.131   5.976
 1855SOL    HW117596   7.340   8.211   5.994
 1855SOL    HW217597   7.348   8.048   5.999
 1856SOL     OW17598   1.240   2.773   1.006
 1856SOL    HW117599   1.299   2.853   1.015
 1856SOL    HW217600   1.231   2.727   1.094
 1857SOL     OW17601   5.726   2.051   6.516
 1857SOL    HW117602   5.813   2.095   6.536
 1857SOL    HW217603   5.652   2.098   6.564
 1858SOL     OW17604   4.795   0.071   1.294
 1858SOL    HW117605   4.886   0.030   1.283
 1858SOL    HW217606   4.794   0.159   1.246
 1859SOL     OW17607   1.819   8.356   5.559
 1859SOL    HW117608   1.725   8.386   5.539
 1859SOL    HW217609   1.847   8.287   5.493
 1860SOL     OW17610   7.140   4.001   1.437
 1860SOL    HW117611   7.074   3.935   1.474
 1860SOL    HW217612   7.097   4.051   1.361
 1861SOL     OW17613   0.212   5.019   0.407
 1861SOL    HW117614   0.287   5.082   0.385
 1861SOL    HW217615   0.131   5.072   0.431
 1862SOL     OW17616   4.100   4.906   1.195
 1862SOL    HW117617   4.119   4.920   1.292
 1862SOL    HW217618   4.165   4.959   1.140
 1863SOL     OW17619   8.219   3.742   5.858
 1863SOL    HW117620   8.177   3.766   5.771
 1863SOL    HW217621   8.149   3.710   5.921
 1864SOL     OW17622   4.577   1.066   2.045
 1864SOL    HW117623   4.544   1.090   2.137
 1864SOL    HW217624   4.577   0.966   2.035
 1865SOL     OW17625   2.587   2.090   6.678
 1865SOL    HW117626   2.497   2.122   6.707
 1865SOL    HW217627   2.585   2.073   6.579
 1866SOL     OW17628   4.545   7.638   1.394
 1866SOL    HW117629   4.516   7.558   1.446
 1866SOL    HW217630   4.512   7.629   1.299
 1867SOL     OW17631   7.051   2.200   0.766
 1867SOL    HW117632   7.105   2.280   0.739
 1867SOL    HW217633   7.106   2.140   0.823
 1868SOL     OW17634   6.769   6.182   6.963
 1868SOL    HW117635   6.745   6.100   7.017
 1868SOL    HW217636   6.763   6.161   6.866
 1869SOL     OW17637   3.471   1.920   6.891
 1869SOL    HW117638   3.391   1.865   6.867
 1869SOL    HW217639   3.545   1.901   6.827
 1870SOL     OW17640   8.211   0.111   6.057
 1870SOL    HW117641   8.193   0.015   6.080
 1870SOL    HW217642   8.221   0.164   6.141
 1871SOL     OW17643   8.449   4.524   5.813
 1871SOL    HW117644   8.392   4.452   5.852
 1871SOL    HW217645   8.399   4.568   5.738
 1872SOL     OW17646   8.334   4.038   6.212
 1872SOL    HW117647   8.383   4.032   6.125
 1872SOL    HW217648   8.294   4.130   6.221
 1873SOL     OW17649   7.060   5.307   6.865
 1873SOL    HW117650   6.968   5.347   6.868
 1873SOL    HW217651   7.057   5.214   6.900
 1874SOL     OW17652   3.447   4.431   0.456
 1874SOL    HW117653   3.419   4.488   0.379
 1874SOL    HW217654   3.529   4.469   0.498
 1875SOL     OW17655   8.817   6.169   4.634
 1875SOL    HW117656   8.908   6.208   4.647
 1875SOL    HW217657   8.760   6.233   4.583
 1876SOL     OW17658   8.907   3.249   0.486
 1876SOL    HW117659   8.962   3.284   0.410
 1876SOL    HW217660   8.824   3.305   0.496
 1877SOL     OW17661   4.061   8.059   0.555
 1877SOL    HW117662   4.096   8.041   0.463
 1877SOL    HW217663   4.055   7.973   0.605
 1878SOL     OW17664   3.922   6.044   0.434
 1878SOL    HW117665   3.957   6.016   0.345
 1878SOL    HW217666   3.928   5.968   0.499
 1879SOL     OW17667   3.929   1.825   6.589
 1879SOL    HW117668   3.862   1.793   6.522
 1879SOL    HW217669   4.009   1.764   6.588
 1880SOL     OW17670   3.368   3.188   5.692
 1880SOL    HW117671   3.348   3.188   5.594
 1880SOL    HW217672   3.446   3.249   5.710
 1881SOL     OW17673   2.976   3.932   0.449
 1881SOL    HW117674   2.932   3.862   0.393
 1881SOL    HW217675   2.970   4.020   0.403
 1882SOL     OW17676   1.515   7.927   1.645
 1882SOL    HW117677   1.478   8.018   1.626
 1882SOL    HW217678   1.593   7.934   1.707
 1883SOL     OW17679   3.471   7.201   0.778
 1883SOL    HW117680   3.441   7.137   0.848
 1883SOL    HW217681   3.393   7.226   0.720
 1884SOL     OW17682   3.689   5.560   1.493
 1884SOL    HW117683   3.636   5.605   1.566
 1884SOL    HW217684   3.780   5.601   1.487
 1885SOL     OW17685   6.342   5.306   6.052
 1885SOL    HW117686   6.354   5.212   6.020
 1885SOL    HW217687   6.403   5.366   5.999
 1886SOL     OW17688   1.470   2.164   5.333
 1886SOL    HW117689   1.381   2.128   5.304
 1886SOL    HW217690   1.531   2.169   5.254
 1887SOL     OW17691   3.004   5.305   6.844
 1887SOL    HW117692   3.033   5.389   6.798
 1887SOL    HW217693   3.071   5.282   6.915
 1888SOL     OW17694   7.099   7.621   6.594
 1888SOL    HW117695   7.109   7.631   6.495
 1888SOL    HW217696   7.014   7.664   6.624
 1889SOL     OW17697   8.995   4.414   6.972
 1889SOL    HW117698   9.093   4.419   6.952
 1889SOL    HW217699   8.944   4.410   6.887
 1890SOL     OW17700   5.783   0.907   6.066
 1890SOL    HW117701   5.772   0.825   6.010
 1890SOL    HW217702   5.789   0.987   6.007
 1891SOL     OW17703   8.172   1.636   0.744
 1891SOL    HW117704   8.179   1.536   0.735
 1891SOL    HW217705   8.264   1.674   0.756
 1892SOL     OW17706   5.083   3.060   1.582
 1892SOL    HW117707   5.040   2.976   1.617
 1892SOL    HW217708   5.159   3.086   1.642
 1893SOL     OW17709   1.637   3.024   5.469
 1893SOL    HW117710   1.542   3.051   5.455
 1893SOL    HW217711   1.687   3.030   5.382
 1894SOL     OW17712   9.545   6.104   4.538
 1894SOL    HW117713   9.545   6.188   4.592
 1894SOL    HW217714   9.508   6.122   4.447
 1895SOL     OW17715   6.497   7.802   0.697
 1895SOL    HW117716   6.401   7.779   0.680
 1895SOL    HW217717   6.508   7.901   0.694
 1896SOL     OW17718   7.997   4.317   0.361
 1896SOL    HW117719   8.038   4.240   0.312
 1896SOL    HW217720   8.069   4.371   0.405
 1897SOL     OW17721   2.320   7.602   5.080
 1897SOL    HW117722   2.374   7.594   4.996
 1897SOL    HW217723   2.229   7.564   5.065
 1898SOL     OW17724   1.272   2.187   0.308
 1898SOL    HW117725   1.322   2.126   0.246
 1898SOL    HW217726   1.219   2.133   0.373
 1899SOL     OW17727   4.528   1.890   1.722
 1899SOL    HW117728   4.586   1.971   1.732
 1899SOL    HW217729   4.500   1.858   1.812
 1900SOL     OW17730   5.067   2.865   0.841
 1900SOL    HW117731   5.119   2.916   0.773
 1900SOL    HW217732   5.121   2.856   0.925
 1901SOL     OW17733   4.531   2.451   6.146
 1901SOL    HW117734   4.627   2.480   6.137
 1901SOL    HW217735   4.501   2.408   6.061
 1902SOL     OW17736   9.346   7.135   0.593
 1902SOL    HW117737   9.350   7.185   0.507
 1902SOL    HW217738   9.438   7.129   0.632
 1903SOL     OW17739   3.995   7.593   5.764
 1903SOL    HW117740   4.051   7.605   5.683
 1903SOL    HW217741   4.031   7.649   5.839
 1904SOL     OW17742   1.043   5.065   6.574
 1904SOL    HW117743   1.097   5.145   6.599
 1904SOL    HW217744   1.097   5.005   6.515
 1905SOL     OW17745   3.779   0.881   1.300
 1905SOL    HW117746   3.693   0.849   1.339
 1905SOL    HW217747   3.761   0.958   1.239
 1906SOL     OW17748   5.778   0.546   0.772
 1906SOL    HW117749   5.707   0.503   0.828
 1906SOL    HW217750   5.770   0.646   0.780
 1907SOL     OW17751   0.256   6.532   6.524
 1907SOL    HW117752   0.351   6.541   6.493
 1907SOL    HW217753   0.233   6.435   6.531
 1908SOL     OW17754   2.140   1.589   6.998
 1908SOL    HW117755   2.174   1.681   6.978
 1908SOL    HW217756   2.145   1.572   7.097
 1909SOL     OW17757   0.972   4.020   0.819
 1909SOL    HW117758   1.045   4.086   0.839
 1909SOL    HW217759   0.891   4.069   0.788
 1910SOL     OW17760   5.594   0.634   1.373
 1910SOL    HW117761   5.675   0.601   1.325
 1910SOL    HW217762   5.551   0.706   1.320
 1911SOL     OW17763   7.373   6.074   5.226
 1911SOL    HW117764   7.303   6.099   5.158
 1911SOL    HW217765   7.458   6.050   5.178
 1912SOL     OW17766   7.950   4.536   0.908
 1912SOL    HW117767   7.907   4.608   0.963
 1912SOL    HW217768   8.024   4.493   0.960
 1913SOL     OW17769   1.189   3.038   0.745
 1913SOL    HW117770   1.207   3.117   0.686
 1913SOL    HW217771   1.158   2.962   0.689
 1914SOL     OW17772   3.690   2.180   2.354
 1914SOL    HW117773   3.725   2.103   2.407
 1914SOL    HW217774   3.654   2.249   2.416
 1915SOL     OW17775   5.381   1.138   1.572
 1915SOL    HW117776   5.427   1.224   1.594
 1915SOL    HW217777   5.322   1.111   1.649
 1916SOL     OW17778   2.449   2.652   1.589
 1916SOL    HW117779   2.535   2.703   1.583
 1916SOL    HW217780   2.379   2.698   1.535
 1917SOL     OW17781   4.158   0.169   5.749
 1917SOL    HW117782   4.220   0.233   5.795
 1917SOL    HW217783   4.064   0.200   5.759
 1918SOL     OW17784   4.194   6.158   2.217
 1918SOL    HW117785   4.156   6.081   2.270
 1918SOL    HW217786   4.265   6.203   2.271
 1919SOL     OW17787   8.177   2.543   6.228
 1919SOL    HW117788   8.207   2.516   6.136
 1919SOL    HW217789   8.138   2.465   6.275
 1920SOL     OW17790   3.610   6.409   6.876
 1920SOL    HW117791   3.661   6.346   6.934
 1920SOL    HW217792   3.562   6.358   6.804
 1921SOL     OW17793   1.782   3.947   0.487
 1921SOL    HW117794   1.838   3.871   0.522
 1921SOL    HW217795   1.831   4.033   0.500
 1922SOL     OW17796   8.826   2.883   1.068
 1922SOL    HW117797   8.923   2.861   1.061
 1922SOL    HW217798   8.786   2.885   0.976
 1923SOL     OW17799   7.843   6.840   0.442
 1923SOL    HW117800   7.846   6.875   0.536
 1923SOL    HW217801   7.757   6.790   0.428
 1924SOL     OW17802   5.897   5.576   5.091
 1924SOL    HW117803   5.960   5.638   5.044
 1924SOL    HW217804   5.804   5.612   5.086
 1925SOL     OW17805   2.236   5.067   6.109
 1925SOL    HW117806   2.189   5.150   6.081
 1925SOL    HW217807   2.333   5.086   6.125
 1926SOL     OW17808   3.795   3.818   6.258
 1926SOL    HW117809   3.893   3.799   6.268
 1926SOL    HW217810   3.766   3.798   6.165
 1927SOL     OW17811   3.908   5.124   6.908
 1927SOL    HW117812   3.927   5.209   6.859
 1927SOL    HW217813   3.993   5.071   6.917
 1928SOL     OW17814   5.765   3.879   1.592
 1928SOL    HW117815   5.791   3.909   1.684
 1928SOL    HW217816   5.843   3.836   1.547
 1929SOL     OW17817   3.649   7.398   0.899
 1929SOL    HW117818   3.725   7.362   0.845
 1929SOL    HW217819   3.568   7.341   0.885
 1930SOL     OW17820   2.519   5.696   6.054
 1930SOL    HW117821   2.529   5.782   6.102
 1930SOL    HW217822   2.604   5.643   6.061
 1931SOL     OW17823   1.889   6.741   1.012
 1931SOL    HW117824   1.942   6.714   1.093
 1931SOL    HW217825   1.804   6.784   1.040
 1932SOL     OW17826   1.153   7.896   1.146
 1932SOL    HW117827   1.178   7.905   1.242
 1932SOL    HW217828   1.157   7.799   1.119
 1933SOL     OW17829   4.192   3.022   1.237
 1933SOL    HW117830   4.138   3.015   1.153
 1933SOL    HW217831   4.261   2.949   1.239
 1934SOL     OW17832   4.645   2.372   0.501
 1934SOL    HW117833   4.557   2.412   0.475
 1934SOL    HW217834   4.635   2.322   0.587
 1935SOL     OW17835   4.705   6.990   6.372
 1935SOL    HW117836   4.757   6.932   6.310
 1935SOL    HW217837   4.756   7.075   6.388
 1936SOL     OW17838   8.204   5.432   6.337
 1936SOL    HW117839   8.212   5.512   6.277
 1936SOL    HW217840   8.294   5.389   6.348
 1937SOL     OW17841   0.336   7.224   4.955
 1937SOL    HW117842   0.412   7.238   5.018
 1937SOL    HW217843   0.336   7.129   4.923
 1938SOL     OW17844   0.496   6.124   5.319
 1938SOL    HW117845   0.588   6.152   5.295
 1938SOL    HW217846   0.436   6.204   5.320
 1939SOL     OW17847   9.542   8.290   5.079
 1939SOL    HW117848   9.443   8.299   5.070
 1939SOL    HW217849   9.586   8.377   5.055
 1940SOL     OW17850   8.170   6.013   6.067
 1940SOL    HW117851   8.154   6.067   5.984
 1940SOL    HW217852   8.219   6.068   6.134
 1941SOL     OW17853   4.379   1.107   6.741
 1941SOL    HW117854   4.446   1.117   6.815
 1941SOL    HW217855   4.346   1.198   6.715
 1942SOL     OW17856   5.430   3.293   0.874
 1942SOL    HW117857   5.460   3.369   0.932
 1942SOL    HW217858   5.508   3.253   0.826
 1943SOL     OW17859   6.154   1.173   0.565
 1943SOL    HW117860   6.230   1.181   0.501
 1943SOL    HW217861   6.146   1.258   0.618
 1944SOL     OW17862   3.037   5.287   1.626
 1944SOL    HW117863   2.952   5.316   1.583
 1944SOL    HW217864   3.057   5.346   1.704
 1945SOL     OW17865   3.166   5.795   1.335
 1945SOL    HW117866   3.264   5.816   1.345
 1945SOL    HW217867   3.113   5.879   1.343
 1946SOL     OW17868   1.919   6.328   6.560
 1946SOL    HW117869   1.946   6.402   6.500
 1946SOL    HW217870   1.851   6.361   6.626
 1947SOL     OW17871   2.100   8.148   6.968
 1947SOL    HW117872   2.182   8.144   7.025
 1947SOL    HW217873   2.023   8.181   7.023
 1948SOL     OW17874   4.543   6.324   6.501
 1948SOL    HW117875   4.515   6.238   6.459
 1948SOL    HW217876   4.472   6.393   6.488
 1949SOL     OW17877   7.019   7.942   6.615
 1949SOL    HW117878   7.115   7.919   6.598
 1949SOL    HW217879   6.966   7.928   6.532
 1950SOL     OW17880   1.328   3.698   6.659
 1950SOL    HW117881   1.352   3.639   6.736
 1950SOL    HW217882   1.386   3.675   6.580
 1951SOL     OW17883   4.996   5.563   1.218
 1951SOL    HW117884   5.037   5.480   1.257
 1951SOL    HW217885   5.052   5.595   1.142
 1952SOL     OW17886   6.927   5.193   5.750
 1952SOL    HW117887   6.907   5.132   5.673
 1952SOL    HW217888   7.027   5.198   5.763
 1953SOL     OW17889   1.203   4.742   2.070
 1953SOL    HW117890   1.302   4.743   2.082
 1953SOL    HW217891   1.179   4.688   1.990
 1954SOL     OW17892   7.833   8.254   5.737
 1954SOL    HW117893   7.765   8.312   5.781
 1954SOL    HW217894   7.893   8.309   5.680
 1955SOL     OW17895   1.264   2.851   6.445
 1955SOL    HW117896   1.304   2.939   6.418
 1955SOL    HW217897   1.173   2.843   6.404
 1956SOL     OW17898   1.220   3.519   6.220
 1956SOL    HW117899   1.129   3.558   6.233
 1956SOL    HW217900   1.256   3.548   6.131
 1957SOL     OW17901   6.679   8.290   6.963
 1957SOL    HW117902   6.602   8.350   6.942
 1957SOL    HW217903   6.659   8.197   6.931
 1958SOL     OW17904   1.270   7.817   5.086
 1958SOL    HW117905   1.363   7.785   5.065
 1958SOL    HW217906   1.272   7.916   5.100
 1959SOL     OW17907   9.414   3.193   5.893
 1959SOL    HW117908   9.514   3.187   5.897
 1959SOL    HW217909   9.387   3.242   5.810
 1960SOL     OW17910   8.456   2.784   6.076
 1960SOL    HW117911   8.539   2.839   6.065
 1960SOL    HW217912   8.421   2.759   5.985
 1961SOL     OW17913   8.441   1.520   6.631
 1961SOL    HW117914   8.360   1.483   6.586
 1961SOL    HW217915   8.507   1.447   6.645
 1962SOL     OW17916   7.034   1.530   6.385
 1962SOL    HW117917   6.951   1.560   6.339
 1962SOL    HW217918   7.109   1.524   6.318
 1963SOL     OW17919   2.056   6.432   6.899
 1963SOL    HW117920   1.962   6.399   6.905
 1963SOL    HW217921   2.118   6.365   6.938
 1964SOL     OW17922   4.540   1.752   1.066
 1964SOL    HW117923   4.486   1.697   1.002
 1964SOL    HW217924   4.481   1.786   1.139
 1965SOL     OW17925   3.818   4.213   6.805
 1965SOL    HW117926   3.796   4.291   6.863
 1965SOL    HW217927   3.880   4.241   6.732
 1966SOL     OW17928   5.086   0.258   1.481
 1966SOL    HW117929   5.159   0.259   1.550
 1966SOL    HW217930   5.068   0.164   1.453
 1967SOL     OW17931   7.026   5.710   6.681
 1967SOL    HW117932   7.119   5.674   6.673
 1967SOL    HW217933   7.018   5.794   6.628
 1968SOL     OW17934   3.489   7.253   2.252
 1968SOL    HW117935   3.494   7.309   2.335
 1968SOL    HW217936   3.578   7.253   2.206
 1969SOL     OW17937   3.098   4.485   0.270
 1969SOL    HW117938   3.155   4.505   0.190
 1969SOL    HW217939   3.002   4.507   0.249
 1970SOL     OW17940   3.315   1.285   1.031
 1970SOL    HW117941   3.414   1.296   1.040
 1970SOL    HW217942   3.271   1.301   1.119
 1971SOL     OW17943   1.033   5.502   1.082
 1971SOL    HW117944   0.977   5.475   1.160
 1971SOL    HW217945   1.117   5.448   1.081
 1972SOL     OW17946   5.437   3.398   5.791
 1972SOL    HW117947   5.451   3.308   5.833
 1972SOL    HW217948   5.518   3.422   5.738
 1973SOL     OW17949   0.854   3.596   6.718
 1973SOL    HW117950   0.927   3.658   6.688
 1973SOL    HW217951   0.892   3.504   6.732
 1974SOL     OW17952   3.161   5.543   6.163
 1974SOL    HW117953   3.249   5.530   6.117
 1974SOL    HW217954   3.170   5.614   6.233
 1975SOL     OW17955   4.318   6.887   1.198
 1975SOL    HW117956   4.364   6.939   1.269
 1975SOL    HW217957   4.232   6.851   1.233
 1976SOL     OW17958   0.473   2.278   6.905
 1976SOL    HW117959   0.569   2.259   6.882
 1976SOL    HW217960   0.458   2.377   6.905
 1977SOL     OW17961   2.850   6.997   6.267
 1977SOL    HW117962   2.750   7.006   6.272
 1977SOL    HW217963   2.893   7.085   6.286
 1978SOL     OW17964   2.498   2.434   0.443
 1978SOL    HW117965   2.501   2.447   0.543
 1978SOL    HW217966   2.420   2.485   0.406
 1979SOL     OW17967   0.462   6.607   6.304
 1979SOL    HW117968   0.410   6.608   6.219
 1979SOL    HW217969   0.479   6.700   6.334
 1980SOL     OW17970   1.529   2.880   0.811
 1980SOL    HW117971   1.619   2.879   0.765
 1980SOL    HW217972   1.512   2.970   0.850
 1981SOL     OW17973   7.051   5.496   6.444
 1981SOL    HW117974   6.982   5.467   6.378
 1981SOL    HW217975   7.028   5.588   6.478
 1982SOL     OW17976   7.448   2.101   6.150
 1982SOL    HW117977   7.488   2.192   6.161
 1982SOL    HW217978   7.370   2.106   6.088
 1983SOL     OW17979   2.054   2.429   0.799
 1983SOL    HW117980   2.124   2.499   0.809
 1983SOL    HW217981   2.098   2.342   0.775
 1984SOL     OW17982   6.052   2.970   0.567
 1984SOL    HW117983   6.033   3.066   0.547
 1984SOL    HW217984   6.076   2.960   0.664
 1985SOL     OW17985   3.455  -0.003   1.104
 1985SOL    HW117986   3.522  -0.006   1.030
 1985SOL    HW217987   3.369  -0.044   1.073
 1986SOL     OW17988   8.948   5.352   1.252
 1986SOL    HW117989   8.959   5.451   1.253
 1986SOL    HW217990   8.913   5.321   1.341
 1987SOL     OW17991   1.711   5.755   0.430
 1987SOL    HW117992   1.699   5.665   0.471
 1987SOL    HW217993   1.689   5.751   0.333
 1988SOL     OW17994   6.173   5.576   6.903
 1988SOL    HW117995   6.118   5.493   6.898
 1988SOL    HW217996   6.243   5.566   6.974
 1989SOL     OW17997   0.577   7.171   6.828
 1989SOL    HW117998   0.496   7.221   6.798
 1989SOL    HW217999   0.647   7.236   6.859
 1990SOL     OW18000   3.891   6.641   6.388
 1990SOL    HW118001   3.815   6.593   6.432
 1990SOL    HW218002   3.899   6.733   6.425
 1991SOL     OW18003   5.835   7.212   0.570
 1991SOL    HW118004   5.803   7.118   0.559
 1991SOL    HW218005   5.762   7.267   0.609
 1992SOL     OW18006   2.718   0.789   6.834
 1992SOL    HW118007   2.643   0.835   6.883
 1992SOL    HW218008   2.684   0.706   6.791
 1993SOL     OW18009   5.826   0.608   0.466
 1993SOL    HW118010   5.836   0.583   0.562
 1993SOL    HW218011   5.799   0.528   0.413
 1994SOL     OW18012   8.845   4.112   0.557
 1994SOL    HW118013   8.873   4.025   0.597
 1994SOL    HW218014   8.922   4.152   0.507
 1995SOL     OW18015   5.105   7.783   5.477
 1995SOL    HW118016   5.182   7.745   5.425
 1995SOL    HW218017   5.044   7.832   5.415
 1996SOL     OW18018   3.013   8.226   0.925
 1996SOL    HW118019   2.974   8.288   0.858
 1996SOL    HW218020   3.099   8.188   0.890
 1997SOL     OW18021   9.574   7.436   1.994
 1997SOL    HW118022   9.530   7.471   2.076
 1997SOL    HW218023   9.633   7.506   1.954
 1998SOL     OW18024   1.925   7.282   6.904
 1998SOL    HW118025   1.979   7.365   6.918
 1998SOL    HW218026   1.981   7.202   6.924
 1999SOL     OW18027   5.362   7.782   5.346
 1999SOL    HW118028   5.326   7.736   5.265
 1999SOL    HW218029   5.456   7.811   5.329
 2000SOL     OW18030   6.297   0.647   1.728
 2000SOL    HW118031   6.377   0.634   1.786
 2000SOL    HW218032   6.220   0.679   1.784
 2001SOL     OW18033   3.920   7.237   1.609
 2001SOL    HW118034   3.982   7.221   1.686
 2001SOL    HW218035   3.933   7.330   1.575
 2002SOL     OW18036   3.485   7.140   1.675
 2002SOL    HW118037   3.444   7.051   1.692
 2002SOL    HW218038   3.490   7.191   1.761
 2003SOL     OW18039   8.399   5.835   6.498
 2003SOL    HW118040   8.354   5.759   6.545
 2003SOL    HW218041   8.338   5.872   6.428
 2004SOL     OW18042   9.449   8.184   1.276
 2004SOL    HW118043   9.482   8.221   1.363
 2004SOL    HW218044   9.408   8.258   1.222
 2005SOL     OW18045   4.821   3.499   6.710
 2005SOL    HW118046   4.849   3.424   6.770
 2005SOL    HW218047   4.875   3.581   6.731
 2006SOL     OW18048   4.238   5.230   1.819
 2006SOL    HW118049   4.159   5.223   1.881
 2006SOL    HW218050   4.313   5.275   1.867
 2007SOL     OW18051   8.475   1.358   0.309
 2007SOL    HW118052   8.493   1.397   0.399
 2007SOL    HW218053   8.379   1.334   0.301
 2008SOL     OW18054   9.260   4.195   5.958
 2008SOL    HW118055   9.283   4.124   5.892
 2008SOL    HW218056   9.208   4.267   5.912
 2009SOL     OW18057   1.082   4.655   0.841
 2009SOL    HW118058   1.105   4.751   0.822
 2009SOL    HW218059   1.131   4.597   0.776
 2010SOL     OW18060   3.085   7.853   1.252
 2010SOL    HW118061   3.010   7.893   1.198
 2010SOL    HW218062   3.054   7.767   1.292
 2011SOL     OW18063   6.056   8.159   1.547
 2011SOL    HW118064   6.088   8.136   1.639
 2011SOL    HW218065   6.003   8.083   1.510
 2012SOL     OW18066   7.020   7.914   6.184
 2012SOL    HW118067   6.979   7.857   6.113
 2012SOL    HW218068   6.957   7.923   6.261
 2013SOL     OW18069   8.413   7.831   5.878
 2013SOL    HW118070   8.341   7.879   5.928
 2013SOL    HW218071   8.449   7.891   5.806
 2014SOL     OW18072   7.465   0.726   6.298
 2014SOL    HW118073   7.482   0.655   6.366
 2014SOL    HW218074   7.417   0.686   6.220
 2015SOL     OW18075   4.181   2.415   6.636
 2015SOL    HW118076   4.152   2.347   6.569
 2015SOL    HW218077   4.143   2.504   6.612
 2016SOL     OW18078   7.134   6.801   1.049
 2016SOL    HW118079   7.061   6.869   1.055
 2016SOL    HW218080   7.210   6.828   1.109
 2017SOL     OW18081   6.454   1.358   1.289
 2017SOL    HW118082   6.486   1.296   1.360
 2017SOL    HW218083   6.500   1.447   1.299
 2018SOL     OW18084   7.229   2.839   5.775
 2018SOL    HW118085   7.148   2.791   5.740
 2018SOL    HW218086   7.310   2.806   5.727
 2019SOL     OW18087   5.721   3.803   1.124
 2019SOL    HW118088   5.821   3.797   1.121
 2019SOL    HW218089   5.693   3.857   1.203
 2020SOL     OW18090   7.034   5.351   1.377
 2020SOL    HW118091   7.006   5.367   1.471
 2020SOL    HW218092   7.113   5.408   1.355
 2021SOL     OW18093   0.601   5.920   6.714
 2021SOL    HW118094   0.635   6.013   6.698
 2021SOL    HW218095   0.645   5.858   6.650
 2022SOL     OW18096   3.652   3.590   1.527
 2022SOL    HW118097   3.668   3.621   1.621
 2022SOL    HW218098   3.563   3.623   1.496
 2023SOL     OW18099   6.701   3.363   0.929
 2023SOL    HW118100   6.657   3.273   0.938
 2023SOL    HW218101   6.798   3.355   0.952
 2024SOL     OW18102   6.244   7.888   6.389
 2024SOL    HW118103   6.270   7.833   6.468
 2024SOL    HW218104   6.172   7.952   6.415
 2025SOL     OW18105   5.490   5.342   1.150
 2025SOL    HW118106   5.496   5.316   1.053
 2025SOL    HW218107   5.403   5.388   1.167
 2026SOL     OW18108   6.726   0.280   0.869
 2026SOL    HW118109   6.785   0.360   0.857
 2026SOL    HW218110   6.759   0.226   0.947
 2027SOL     OW18111   4.152   4.904   1.686
 2027SOL    HW118112   4.138   5.001   1.666
 2027SOL    HW218113   4.162   4.853   1.600
 2028SOL     OW18114   8.181   0.400   6.856
 2028SOL    HW118115   8.127   0.430   6.777
 2028SOL    HW218116   8.144   0.313   6.890
 2029SOL     OW18117   3.631   1.105   6.977
 2029SOL    HW118118   3.622   1.028   6.914
 2029SOL    HW218119   3.578   1.087   7.060
 2030SOL     OW18120   6.586   3.480   0.298
 2030SOL    HW118121   6.599   3.545   0.372
 2030SOL    HW218122   6.571   3.528   0.212
 2031SOL     OW18123   0.917   2.535   6.616
 2031SOL    HW118124   1.013   2.505   6.618
 2031SOL    HW218125   0.871   2.504   6.699
 2032SOL     OW18126   5.360   4.452   1.198
 2032SOL    HW118127   5.330   4.435   1.104
 2032SOL    HW218128   5.427   4.526   1.199
 2033SOL     OW18129   7.176   1.309   0.801
 2033SOL    HW118130   7.143   1.264   0.718
 2033SOL    HW218131   7.200   1.404   0.780
 2034SOL     OW18132   3.692   6.140   0.650
 2034SOL    HW118133   3.763   6.081   0.689
 2034SOL    HW218134   3.732   6.230   0.631
 2035SOL     OW18135   1.799   1.816   6.195
 2035SOL    HW118136   1.888   1.821   6.149
 2035SOL    HW218137   1.734   1.766   6.137
 2036SOL     OW18138   3.842   2.862   1.795
 2036SOL    HW118139   3.822   2.815   1.709
 2036SOL    HW218140   3.863   2.794   1.866
 2037SOL     OW18141   2.949   6.905   1.580
 2037SOL    HW118142   2.892   6.946   1.652
 2037SOL    HW218143   3.017   6.845   1.623
 2038SOL     OW18144   1.019   2.745   5.577
 2038SOL    HW118145   1.111   2.782   5.583
 2038SOL    HW218146   0.956   2.816   5.547
 2039SOL     OW18147   2.616   1.234   1.653
 2039SOL    HW118148   2.681   1.187   1.714
 2039SOL    HW218149   2.595   1.175   1.575
 2040SOL     OW18150   2.364   2.953   0.613
 2040SOL    HW118151   2.413   2.878   0.659
 2040SOL    HW218152   2.321   2.918   0.530
 2041SOL     OW18153   1.321   7.845   6.048
 2041SOL    HW118154   1.320   7.745   6.038
 2041SOL    HW218155   1.372   7.885   5.972
 2042SOL     OW18156   6.963   3.380   1.001
 2042SOL    HW118157   6.956   3.479   1.013
 2042SOL    HW218158   7.044   3.346   1.049
 2043SOL     OW18159   0.360   5.772   5.865
 2043SOL    HW118160   0.422   5.791   5.789
 2043SOL    HW218161   0.269   5.750   5.830
 2044SOL     OW18162   5.614   2.334   0.487
 2044SOL    HW118163   5.670   2.286   0.420
 2044SOL    HW218164   5.603   2.429   0.461
 2045SOL     OW18165   5.512   2.503   5.888
 2045SOL    HW118166   5.412   2.500   5.886
 2045SOL    HW218167   5.548   2.414   5.915
 2046SOL     OW18168   4.220   1.654   1.816
 2046SOL    HW118169   4.300   1.624   1.764
 2046SOL    HW218170   4.214   1.754   1.813
 2047SOL     OW18171   4.623   4.521   0.332
 2047SOL    HW118172   4.541   4.513   0.275
 2047SOL    HW218173   4.671   4.433   0.332
 2048SOL     OW18174   6.249   4.203   5.287
 2048SOL    HW118175   6.203   4.291   5.278
 2048SOL    HW218176   6.274   4.188   5.383
 2049SOL     OW18177   7.948   0.273   1.397
 2049SOL    HW118178   7.946   0.216   1.480
 2049SOL    HW218179   7.993   0.223   1.323
 2050SOL     OW18180   8.375   6.651   5.311
 2050SOL    HW118181   8.375   6.580   5.240
 2050SOL    HW218182   8.334   6.614   5.394
 2051SOL     OW18183   9.339   8.265   0.648
 2051SOL    HW118184   9.369   8.178   0.688
 2051SOL    HW218185   9.351   8.338   0.714
 2052SOL     OW18186   7.469   8.300   0.852
 2052SOL    HW118187   7.424   8.215   0.879
 2052SOL    HW218188   7.442   8.323   0.758
 2053SOL     OW18189   1.665   4.936   5.707
 2053SOL    HW118190   1.628   4.843   5.696
 2053SOL    HW218191   1.735   4.952   5.638
 2054SOL     OW18192   6.628   5.724   5.946
 2054SOL    HW118193   6.568   5.645   5.932
 2054SOL    HW218194   6.585   5.805   5.907
 2055SOL     OW18195   1.709   7.833   6.788
 2055SOL    HW118196   1.659   7.916   6.812
 2055SOL    HW218197   1.649   7.772   6.736
 2056SOL     OW18198   2.573   7.286   5.612
 2056SOL    HW118199   2.637   7.209   5.602
 2056SOL    HW218200   2.526   7.301   5.525
 2057SOL     OW18201   0.587   0.313   0.370
 2057SOL    HW118202   0.672   0.279   0.408
 2057SOL    HW218203   0.586   0.413   0.375
 2058SOL     OW18204   4.228   5.549   6.413
 2058SOL    HW118205   4.135   5.552   6.451
 2058SOL    HW218206   4.235   5.612   6.337
 2059SOL     OW18207   0.199   4.239   0.798
 2059SOL    HW118208   0.109   4.258   0.836
 2059SOL    HW218209   0.222   4.143   0.814
 2060SOL     OW18210   5.412   4.765   6.229
 2060SOL    HW118211   5.451   4.683   6.269
 2060SOL    HW218212   5.335   4.796   6.284
 2061SOL     OW18213   7.631   3.620   6.346
 2061SOL    HW118214   7.595   3.685   6.280
 2061SOL    HW218215   7.722   3.591   6.317
 2062SOL     OW18216   4.748   7.616   5.663
 2062SOL    HW118217   4.724   7.562   5.583
 2062SOL    HW218218   4.847   7.613   5.676
 2063SOL     OW18219   4.002   1.777   1.223
 2063SOL    HW118220   3.919   1.730   1.193
 2063SOL    HW218221   4.035   1.837   1.150
 2064SOL     OW18222   6.796   6.716   5.253
 2064SOL    HW118223   6.703   6.684   5.268
 2064SOL    HW218224   6.820   6.704   5.156
 2065SOL     OW18225   1.366   8.134   6.015
 2065SOL    HW118226   1.349   8.225   5.975
 2065SOL    HW218227   1.461   8.129   6.046
 2066SOL     OW18228   0.925   7.494   6.605
 2066SOL    HW118229   0.990   7.421   6.582
 2066SOL    HW218230   0.832   7.461   6.592
 2067SOL     OW18231   4.941   6.838   1.936
 2067SOL    HW118232   5.008   6.771   1.966
 2067SOL    HW218233   4.873   6.853   2.008
 2068SOL     OW18234   0.864   2.110   1.108
 2068SOL    HW118235   0.833   2.182   1.170
 2068SOL    HW218236   0.961   2.120   1.090
 2069SOL     OW18237   4.652   1.220   6.876
 2069SOL    HW118238   4.696   1.177   6.797
 2069SOL    HW218239   4.640   1.152   6.948
 2070SOL     OW18240   8.878   8.420   5.429
 2070SOL    HW118241   8.797   8.457   5.383
 2070SOL    HW218242   8.855   8.332   5.470
 2071SOL     OW18243   0.413   6.610   0.748
 2071SOL    HW118244   0.460   6.609   0.660
 2071SOL    HW218245   0.320   6.575   0.737
 2072SOL     OW18246   2.761   1.777   0.734
 2072SOL    HW118247   2.704   1.695   0.727
 2072SOL    HW218248   2.847   1.755   0.780
 2073SOL     OW18249   7.336   0.037   0.417
 2073SOL    HW118250   7.357   0.072   0.509
 2073SOL    HW218251   7.372  -0.056   0.408
 2074SOL     OW18252   3.236   0.707   2.083
 2074SOL    HW118253   3.268   0.802   2.084
 2074SOL    HW218254   3.312   0.647   2.057
 2075SOL     OW18255   6.040   7.116   6.906
 2075SOL    HW118256   6.013   7.046   6.839
 2075SOL    HW218257   6.134   7.098   6.937
 2076SOL     OW18258   1.085   3.224   6.082
 2076SOL    HW118259   1.095   3.137   6.129
 2076SOL    HW218260   1.093   3.299   6.147
 2077SOL     OW18261   2.838   2.462   0.746
 2077SOL    HW118262   2.921   2.517   0.750
 2077SOL    HW218263   2.860   2.372   0.709
 2078SOL     OW18264   3.571   1.315   6.044
 2078SOL    HW118265   3.584   1.226   6.088
 2078SOL    HW218266   3.479   1.319   6.006
 2079SOL     OW18267   4.056   0.221   1.769
 2079SOL    HW118268   3.995   0.227   1.689
 2079SOL    HW218269   4.140   0.173   1.743
 2080SOL     OW18270   2.731   1.959   1.937
 2080SOL    HW118271   2.728   1.909   1.851
 2080SOL    HW218272   2.651   1.936   1.992
 2081SOL     OW18273   5.220   6.746   2.235
 2081SOL    HW118274   5.195   6.842   2.226
 2081SOL    HW218275   5.198   6.697   2.151
 2082SOL     OW18276   1.233   0.378   1.365
 2082SOL    HW118277   1.146   0.421   1.390
 2082SOL    HW218278   1.299   0.392   1.439
 2083SOL     OW18279   4.894   7.434   5.177
 2083SOL    HW118280   4.980   7.482   5.193
 2083SOL    HW218281   4.848   7.473   5.097
 2084SOL     OW18282   4.420   1.347   6.525
 2084SOL    HW118283   4.476   1.283   6.471
 2084SOL    HW218284   4.480   1.412   6.572
 2085SOL     OW18285   1.692   1.346   6.988
 2085SOL    HW118286   1.777   1.377   7.031
 2085SOL    HW218287   1.615   1.394   7.028
 2086SOL     OW18288   7.475  -0.023   6.648
 2086SOL    HW118289   7.538  -0.099   6.630
 2086SOL    HW218290   7.468  -0.010   6.747
 2087SOL     OW18291   2.584   6.961   6.007
 2087SOL    HW118292   2.588   7.060   6.017
 2087SOL    HW218293   2.566   6.919   6.096
 2088SOL     OW18294   7.437   4.593   6.866
 2088SOL    HW118295   7.443   4.663   6.937
 2088SOL    HW218296   7.367   4.526   6.890
 2089SOL     OW18297   6.570   6.326   1.670
 2089SOL    HW118298   6.661   6.288   1.687
 2089SOL    HW218299   6.500   6.257   1.690
 2090SOL     OW18300   2.752   5.812   0.966
 2090SOL    HW118301   2.764   5.713   0.963
 2090SOL    HW218302   2.790   5.848   1.051
 2091SOL     OW18303   2.050   0.792   0.728
 2091SOL    HW118304   2.106   0.724   0.680
 2091SOL    HW218305   2.073   0.884   0.695
 2092SOL     OW18306   1.630   4.404   5.781
 2092SOL    HW118307   1.588   4.401   5.690
 2092SOL    HW218308   1.705   4.469   5.782
 2093SOL     OW18309   4.255   6.198   6.618
 2093SOL    HW118310   4.329   6.211   6.685
 2093SOL    HW218311   4.235   6.285   6.573
 2094SOL     OW18312   0.118   6.512   4.544
 2094SOL    HW118313   0.045   6.578   4.526
 2094SOL    HW218314   0.184   6.515   4.469
 2095SOL     OW18315   6.246   3.427   0.430
 2095SOL    HW118316   6.190   3.439   0.512
 2095SOL    HW218317   6.332   3.383   0.455
 2096SOL     OW18318   8.607   6.974   4.914
 2096SOL    HW118319   8.671   6.929   4.852
 2096SOL    HW218320   8.514   6.941   4.896
 2097SOL     OW18321   9.440   2.741   5.832
 2097SOL    HW118322   9.356   2.782   5.867
 2097SOL    HW218323   9.488   2.808   5.774
 2098SOL     OW18324   5.226   1.306   0.944
 2098SOL    HW118325   5.131   1.305   0.912
 2098SOL    HW218326   5.227   1.300   1.044
 2099SOL     OW18327   5.337   0.980   0.842
 2099SOL    HW118328   5.373   1.067   0.876
 2099SOL    HW218329   5.237   0.985   0.837
 2100SOL     OW18330   3.460   1.417   6.438
 2100SOL    HW118331   3.387   1.430   6.505
 2100SOL    HW218332   3.431   1.454   6.350
 2101SOL     OW18333   5.474   1.194   6.206
 2101SOL    HW118334   5.395   1.251   6.185
 2101SOL    HW218335   5.506   1.214   6.299
 2102SOL     OW18336   3.196   0.045   1.529
 2102SOL    HW118337   3.182   0.117   1.462
 2102SOL    HW218338   3.278  -0.007   1.506
 2103SOL     OW18339   8.335   3.036   6.529
 2103SOL    HW118340   8.246   2.997   6.553
 2103SOL    HW218341   8.404   2.963   6.526
 2104SOL     OW18342   3.978   3.786   0.660
 2104SOL    HW118343   3.977   3.883   0.634
 2104SOL    HW218344   4.070   3.760   0.688
 2105SOL     OW18345   5.075   2.584   0.386
 2105SOL    HW118346   4.988   2.558   0.428
 2105SOL    HW218347   5.121   2.502   0.352
 2106SOL     OW18348   8.585   8.238   6.043
 2106SOL    HW118349   8.641   8.321   6.046
 2106SOL    HW218350   8.489   8.263   6.053
 2107SOL     OW18351   8.311   7.879   0.889
 2107SOL    HW118352   8.340   7.951   0.825
 2107SOL    HW218353   8.288   7.919   0.977
 2108SOL     OW18354   8.281   3.602   0.641
 2108SOL    HW118355   8.308   3.511   0.673
 2108SOL    HW218356   8.233   3.649   0.715
 2109SOL     OW18357   6.733   2.050   6.407
 2109SOL    HW118358   6.731   2.011   6.499
 2109SOL    HW218359   6.693   2.141   6.409
 2110SOL     OW18360   3.103   2.485   1.073
 2110SOL    HW118361   3.081   2.549   0.999
 2110SOL    HW218362   3.095   2.531   1.161
 2111SOL     OW18363   9.067   3.157   0.675
 2111SOL    HW118364   9.155   3.203   0.691
 2111SOL    HW218365   9.022   3.199   0.596
 2112SOL     OW18366   1.089   5.828   0.269
 2112SOL    HW118367   1.048   5.752   0.321
 2112SOL    HW218368   1.180   5.847   0.305
 2113SOL     OW18369   9.423   2.170   1.051
 2113SOL    HW118370   9.505   2.115   1.036
 2113SOL    HW218371   9.440   2.263   1.018
 2114SOL     OW18372   3.298   7.653   0.341
 2114SOL    HW118373   3.330   7.600   0.419
 2114SOL    HW218374   3.295   7.750   0.365
 2115SOL     OW18375   6.173   1.913   5.806
 2115SOL    HW118376   6.081   1.884   5.782
 2115SOL    HW218377   6.182   2.012   5.796
 2116SOL     OW18378   3.723   1.823   1.714
 2116SOL    HW118379   3.775   1.908   1.726
 2116SOL    HW218380   3.780   1.756   1.666
 2117SOL     OW18381   7.419   8.154   5.710
 2117SOL    HW118382   7.350   8.226   5.698
 2117SOL    HW218383   7.440   8.144   5.807
 2118SOL     OW18384   1.054   8.074   6.085
 2118SOL    HW118385   1.104   8.144   6.137
 2118SOL    HW218386   1.119   8.016   6.037
 2119SOL     OW18387   9.378   6.815   0.932
 2119SOL    HW118388   9.477   6.816   0.918
 2119SOL    HW218389   9.333   6.778   0.850
 2120SOL     OW18390   2.992   6.140   0.620
 2120SOL    HW118391   2.975   6.086   0.703
 2120SOL    HW218392   2.905   6.174   0.584
 2121SOL     OW18393   0.363   3.448   0.523
 2121SOL    HW118394   0.338   3.523   0.584
 2121SOL    HW218395   0.378   3.365   0.577
 2122SOL     OW18396   8.275   2.640   6.776
 2122SOL    HW118397   8.340   2.564   6.784
 2122SOL    HW218398   8.290   2.705   6.850
 2123SOL     OW18399   7.120   8.244   1.064
 2123SOL    HW118400   7.185   8.167   1.056
 2123SOL    HW218401   7.169   8.330   1.046
 2124SOL     OW18402   4.273   8.425   0.760
 2124SOL    HW118403   4.228   8.336   0.764
 2124SOL    HW218404   4.352   8.425   0.821
 2125SOL     OW18405   1.271   6.679   6.064
 2125SOL    HW118406   1.314   6.685   5.974
 2125SOL    HW218407   1.300   6.595   6.110
 2126SOL     OW18408   0.399   6.699   0.447
 2126SOL    HW118409   0.485   6.649   0.447
 2126SOL    HW218410   0.323   6.635   0.455
 2127SOL     OW18411   3.338   1.281   0.297
 2127SOL    HW118412   3.370   1.203   0.352
 2127SOL    HW218413   3.414   1.346   0.285
 2128SOL     OW18414   9.412   3.618   0.840
 2128SOL    HW118415   9.454   3.706   0.862
 2128SOL    HW218416   9.329   3.606   0.896
 2129SOL     OW18417   3.417   4.000   6.979
 2129SOL    HW118418   3.417   3.918   6.922
 2129SOL    HW218419   3.430   3.975   7.075
 2130SOL     OW18420   2.731   8.291   0.290
 2130SOL    HW118421   2.742   8.385   0.260
 2130SOL    HW218422   2.708   8.289   0.388
 2131SOL     OW18423   1.997   4.009   0.899
 2131SOL    HW118424   1.918   3.963   0.939
 2131SOL    HW218425   1.969   4.057   0.816
 2132SOL     OW18426   2.352   2.507   5.664
 2132SOL    HW118427   2.347   2.503   5.764
 2132SOL    HW218428   2.302   2.430   5.625
 2133SOL     OW18429   3.883   1.895   6.104
 2133SOL    HW118430   3.898   1.808   6.150
 2133SOL    HW218431   3.968   1.925   6.061
 2134SOL     OW18432   1.496   5.327   5.965
 2134SOL    HW118433   1.592   5.310   5.988
 2134SOL    HW218434   1.448   5.239   5.955
 2135SOL     OW18435   6.651   1.073   1.200
 2135SOL    HW118436   6.627   1.018   1.279
 2135SOL    HW218437   6.747   1.059   1.177
 2136SOL     OW18438   0.233   1.753   0.591
 2136SOL    HW118439   0.195   1.828   0.645
 2136SOL    HW218440   0.199   1.758   0.497
 2137SOL     OW18441   6.732   3.297   1.676
 2137SOL    HW118442   6.815   3.340   1.638
 2137SOL    HW218443   6.721   3.326   1.771
 2138SOL     OW18444   4.832   6.766   5.112
 2138SOL    HW118445   4.807   6.748   5.017
 2138SOL    HW218446   4.769   6.833   5.151
 2139SOL     OW18447   7.045   0.099   1.986
 2139SOL    HW118448   6.947   0.080   1.988
 2139SOL    HW218449   7.062   0.187   2.030
 2140SOL     OW18450   2.972   1.340   6.442
 2140SOL    HW118451   3.004   1.400   6.514
 2140SOL    HW218452   3.027   1.354   6.359
 2141SOL     OW18453   2.000   6.734   6.978
 2141SOL    HW118454   2.098   6.745   6.963
 2141SOL    HW218455   1.981   6.639   7.002
 2142SOL     OW18456   4.638   1.918   5.754
 2142SOL    HW118457   4.636   1.819   5.742
 2142SOL    HW218458   4.546   1.951   5.774
 2143SOL     OW18459   6.471  -0.017   1.363
 2143SOL    HW118460   6.519  -0.062   1.288
 2143SOL    HW218461   6.523   0.061   1.395
 2144SOL     OW18462   3.043   8.135   0.617
 2144SOL    HW118463   3.127   8.096   0.655
 2144SOL    HW218464   3.048   8.235   0.621
 2145SOL     OW18465   3.279   1.479   0.752
 2145SOL    HW118466   3.230   1.485   0.665
 2145SOL    HW218467   3.224   1.428   0.818
 2146SOL     OW18468   1.292   2.693   0.762
 2146SOL    HW118469   1.366   2.760   0.753
 2146SOL    HW218470   1.238   2.714   0.843
 2147SOL     OW18471   4.932   0.208   5.566
 2147SOL    HW118472   4.902   0.206   5.470
 2147SOL    HW218473   4.895   0.290   5.611
 2148SOL     OW18474   2.751   1.818   6.563
 2148SOL    HW118475   2.664   1.772   6.544
 2148SOL    HW218476   2.735   1.915   6.579
 2149SOL     OW18477   8.052   7.331   0.843
 2149SOL    HW118478   8.022   7.249   0.891
 2149SOL    HW218479   8.092   7.395   0.909
 2150SOL     OW18480   9.558   4.791   5.588
 2150SOL    HW118481   9.575   4.722   5.517
 2150SOL    HW218482   9.518   4.872   5.545
 2151SOL     OW18483   5.557   6.718   0.549
 2151SOL    HW118484   5.610   6.647   0.595
 2151SOL    HW218485   5.481   6.747   0.608
 2152SOL     OW18486   2.000   8.194   5.929
 2152SOL    HW118487   1.949   8.192   6.015
 2152SOL    HW218488   2.031   8.287   5.912
 2153SOL     OW18489   4.338   7.901   6.670
 2153SOL    HW118490   4.267   7.888   6.740
 2153SOL    HW218491   4.332   7.993   6.634
 2154SOL     OW18492   3.882   1.159   0.392
 2154SOL    HW118493   3.848   1.223   0.461
 2154SOL    HW218494   3.808   1.133   0.331
 2155SOL     OW18495   9.222   2.786   0.411
 2155SOL    HW118496   9.215   2.874   0.460
 2155SOL    HW218497   9.273   2.799   0.327
 2156SOL     OW18498   9.154   5.196   1.462
 2156SOL    HW118499   9.059   5.227   1.464
 2156SOL    HW218500   9.186   5.179   1.555
 2157SOL     OW18501   8.724   2.558   0.516
 2157SOL    HW118502   8.653   2.621   0.549
 2157SOL    HW218503   8.813   2.589   0.551
 2158SOL     OW18504   4.554   0.512   1.772
 2158SOL    HW118505   4.618   0.537   1.699
 2158SOL    HW218506   4.605   0.471   1.847
 2159SOL     OW18507   0.771   7.735   5.420
 2159SOL    HW118508   0.713   7.721   5.339
 2159SOL    HW218509   0.796   7.647   5.459
 2160SOL     OW18510   8.616   3.922   5.739
 2160SOL    HW118511   8.558   3.931   5.658
 2160SOL    HW218512   8.669   4.005   5.752
 2161SOL     OW18513   4.218   2.705   1.115
 2161SOL    HW118514   4.186   2.780   1.057
 2161SOL    HW218515   4.142   2.643   1.135
 2162SOL     OW18516   4.205   6.097   2.613
 2162SOL    HW118517   4.122   6.125   2.660
 2162SOL    HW218518   4.269   6.173   2.609
 2163SOL     OW18519   8.386   4.093   1.367
 2163SOL    HW118520   8.481   4.084   1.394
 2163SOL    HW218521   8.338   4.006   1.380
 2164SOL     OW18522   6.537   3.800   0.851
 2164SOL    HW118523   6.496   3.881   0.893
 2164SOL    HW218524   6.466   3.747   0.805
 2165SOL     OW18525   4.460   6.353   1.737
 2165SOL    HW118526   4.438   6.324   1.830
 2165SOL    HW218527   4.551   6.321   1.712
 2166SOL     OW18528   2.931   5.865   5.520
 2166SOL    HW118529   2.947   5.800   5.446
 2166SOL    HW218530   2.878   5.942   5.486
 2167SOL     OW18531   4.536   0.865   2.469
 2167SOL    HW118532   4.581   0.954   2.481
 2167SOL    HW218533   4.443   0.879   2.437
 2168SOL     OW18534   6.409   5.172   1.848
 2168SOL    HW118535   6.437   5.168   1.752
 2168SOL    HW218536   6.459   5.103   1.900
 2169SOL     OW18537   1.077   4.849   5.693
 2169SOL    HW118538   1.047   4.825   5.601
 2169SOL    HW218539   1.177   4.849   5.697
 2170SOL     OW18540   7.981   3.531   6.434
 2170SOL    HW118541   7.944   3.568   6.349
 2170SOL    HW218542   8.073   3.495   6.418
 2171SOL     OW18543   8.396   2.741   1.271
 2171SOL    HW118544   8.489   2.708   1.287
 2171SOL    HW218545   8.352   2.763   1.358
 2172SOL     OW18546   5.508   7.397   0.978
 2172SOL    HW118547   5.550   7.463   1.040
 2172SOL    HW218548   5.473   7.319   1.030
 2173SOL     OW18549   5.353   5.437   6.700
 2173SOL    HW118550   5.439   5.399   6.668
 2173SOL    HW218551   5.371   5.521   6.752
 2174SOL     OW18552   5.267   1.725   6.238
 2174SOL    HW118553   5.223   1.798   6.288
 2174SOL    HW218554   5.252   1.638   6.285
 2175SOL     OW18555   3.842   6.619   0.845
 2175SOL    HW118556   3.925   6.593   0.895
 2175SOL    HW218557   3.763   6.574   0.887
 2176SOL     OW18558   8.713   2.633   6.478
 2176SOL    HW118559   8.775   2.555   6.471
 2176SOL    HW218560   8.637   2.610   6.539
 2177SOL     OW18561   6.049   7.926   6.108
 2177SOL    HW118562   6.022   7.882   6.194
 2177SOL    HW218563   6.142   7.898   6.085
 2178SOL     OW18564   3.438   8.139   0.948
 2178SOL    HW118565   3.457   8.192   1.031
 2178SOL    HW218566   3.518   8.084   0.925
 2179SOL     OW18567   8.871   7.102   1.355
 2179SOL    HW118568   8.908   7.072   1.443
 2179SOL    HW218569   8.913   7.189   1.329
 2180SOL     OW18570   8.916   2.689   6.731
 2180SOL    HW118571   8.869   2.776   6.713
 2180SOL    HW218572   8.935   2.643   6.645
 2181SOL     OW18573   1.671   5.805   6.896
 2181SOL    HW118574   1.602   5.874   6.874
 2181SOL    HW218575   1.759   5.849   6.912
 2182SOL     OW18576   0.298   0.877   6.831
 2182SOL    HW118577   0.369   0.909   6.894
 2182SOL    HW218578   0.339   0.814   6.765
 2183SOL     OW18579   9.404   0.345   0.406
 2183SOL    HW118580   9.409   0.253   0.366
 2183SOL    HW218581   9.488   0.395   0.385
 2184SOL     OW18582   0.122   7.059   1.081
 2184SOL    HW118583   0.130   7.000   1.000
 2184SOL    HW218584   0.099   7.002   1.161
 2185SOL     OW18585   3.444   0.790   5.961
 2185SOL    HW118586   3.390   0.760   6.040
 2185SOL    HW218587   3.391   0.858   5.909
 2186SOL     OW18588   3.075   5.216   0.557
 2186SOL    HW118589   3.122   5.203   0.645
 2186SOL    HW218590   3.007   5.288   0.566
 2187SOL     OW18591   5.191   6.800   1.016
 2187SOL    HW118592   5.100   6.791   0.975
 2187SOL    HW218593   5.234   6.884   0.981
 2188SOL     OW18594   6.402   7.563   5.307
 2188SOL    HW118595   6.423   7.660   5.304
 2188SOL    HW218596   6.486   7.510   5.294
 2189SOL     OW18597   8.146   3.642   6.814
 2189SOL    HW118598   8.114   3.661   6.907
 2189SOL    HW218599   8.097   3.702   6.749
 2190SOL     OW18600   1.715   0.962   5.932
 2190SOL    HW118601   1.755   0.904   5.862
 2190SOL    HW218602   1.622   0.930   5.953
 2191SOL     OW18603   5.760   0.461   6.728
 2191SOL    HW118604   5.687   0.525   6.749
 2191SOL    HW218605   5.844   0.511   6.709
 2192SOL     OW18606   4.956   4.762   6.955
 2192SOL    HW118607   4.968   4.664   6.940
 2192SOL    HW218608   4.880   4.776   7.019
 2193SOL     OW18609   4.609   4.476   0.629
 2193SOL    HW118610   4.512   4.454   0.639
 2193SOL    HW218611   4.645   4.429   0.548
 2194SOL     OW18612   3.391   5.925   5.879
 2194SOL    HW118613   3.389   5.865   5.960
 2194SOL    HW218614   3.446   5.882   5.808
 2195SOL     OW18615   9.356   3.766   1.218
 2195SOL    HW118616   9.453   3.745   1.204
 2195SOL    HW218617   9.334   3.758   1.315
 2196SOL     OW18618   2.965   1.658   0.441
 2196SOL    HW118619   3.001   1.601   0.515
 2196SOL    HW218620   2.934   1.599   0.366
 2197SOL     OW18621   2.351   1.856   0.597
 2197SOL    HW118622   2.285   1.886   0.666
 2197SOL    HW218623   2.413   1.932   0.575
 2198SOL     OW18624   4.032   7.110   2.734
 2198SOL    HW118625   4.095   7.052   2.683
 2198SOL    HW218626   3.956   7.054   2.768
 2199SOL     OW18627   0.391   7.574   0.439
 2199SOL    HW118628   0.342   7.582   0.526
 2199SOL    HW218629   0.485   7.607   0.451
 2200SOL     OW18630   2.363   6.286   0.750
 2200SOL    HW118631   2.419   6.231   0.812
 2200SOL    HW218632   2.406   6.376   0.738
 2201SOL     OW18633   7.169   5.394   0.485
 2201SOL    HW118634   7.127   5.444   0.560
 2201SOL    HW218635   7.265   5.378   0.506
 2202SOL     OW18636   5.590   6.445   5.782
 2202SOL    HW118637   5.633   6.355   5.775
 2202SOL    HW218638   5.538   6.464   5.698
 2203SOL     OW18639   0.608   2.113   1.432
 2203SOL    HW118640   0.679   2.066   1.486
 2203SOL    HW218641   0.577   2.194   1.481
 2204SOL     OW18642   3.199   0.522   2.386
 2204SOL    HW118643   3.195   0.609   2.435
 2204SOL    HW218644   3.245   0.454   2.444
 2205SOL     OW18645   5.515   3.562   0.461
 2205SOL    HW118646   5.419   3.535   0.460
 2205SOL    HW218647   5.560   3.524   0.542
 2206SOL     OW18648   4.640   2.653   0.922
 2206SOL    HW118649   4.608   2.574   0.974
 2206SOL    HW218650   4.581   2.731   0.940
 2207SOL     OW18651   9.554   1.044   0.672
 2207SOL    HW118652   9.541   1.130   0.721
 2207SOL    HW218653   9.649   1.036   0.642
 2208SOL     OW18654   4.355   4.565   1.701
 2208SOL    HW118655   4.309   4.603   1.622
 2208SOL    HW218656   4.317   4.604   1.785
 2209SOL     OW18657   2.352   6.629   6.141
 2209SOL    HW118658   2.343   6.537   6.179
 2209SOL    HW218659   2.445   6.663   6.159
 2210SOL     OW18660   0.508   4.089   6.607
 2210SOL    HW118661   0.438   4.092   6.678
 2210SOL    HW218662   0.594   4.058   6.647
 2211SOL     OW18663   2.704   1.630   2.545
 2211SOL    HW118664   2.694   1.620   2.446
 2211SOL    HW218665   2.710   1.540   2.588
 2212SOL     OW18666   2.539   6.311   0.313
 2212SOL    HW118667   2.491   6.396   0.290
 2212SOL    HW218668   2.638   6.326   0.308
 2213SOL     OW18669   3.266   0.145   0.887
 2213SOL    HW118670   3.265   0.220   0.953
 2213SOL    HW218671   3.176   0.102   0.883
 2214SOL     OW18672   2.820   7.574   5.648
 2214SOL    HW118673   2.767   7.529   5.720
 2214SOL    HW218674   2.883   7.509   5.608
 2215SOL     OW18675   4.331   5.775   1.453
 2215SOL    HW118676   4.337   5.764   1.354
 2215SOL    HW218677   4.331   5.685   1.497
 2216SOL     OW18678   5.565   7.680   6.500
 2216SOL    HW118679   5.478   7.653   6.542
 2216SOL    HW218680   5.634   7.694   6.571
 2217SOL     OW18681   4.236   3.054   6.879
 2217SOL    HW118682   4.328   3.091   6.866
 2217SOL    HW218683   4.240   2.954   6.881
 2218SOL     OW18684   4.251   5.317   0.371
 2218SOL    HW118685   4.193   5.252   0.321
 2218SOL    HW218686   4.284   5.387   0.308
 2219SOL     OW18687   3.885   5.333   1.307
 2219SOL    HW118688   3.861   5.251   1.255
 2219SOL    HW218689   3.816   5.349   1.378
 2220SOL     OW18690   7.326   6.732   0.273
 2220SOL    HW118691   7.265   6.731   0.194
 2220SOL    HW218692   7.271   6.726   0.357
 2221SOL     OW18693   2.543   4.019   0.519
 2221SOL    HW118694   2.524   3.997   0.614
 2221SOL    HW218695   2.566   3.936   0.469
 2222SOL     OW18696   8.516   7.557   5.810
 2222SOL    HW118697   8.447   7.542   5.881
 2222SOL    HW218698   8.500   7.645   5.766
 2223SOL     OW18699   4.903   6.996   1.205
 2223SOL    HW118700   4.929   6.958   1.116
 2223SOL    HW218701   4.803   7.006   1.209
 2224SOL     OW18702   6.591   5.539   0.859
 2224SOL    HW118703   6.680   5.494   0.871
 2224SOL    HW218704   6.603   5.638   0.864
 2225SOL     OW18705   5.932   3.202   0.343
 2225SOL    HW118706   5.873   3.263   0.292
 2225SOL    HW218707   5.997   3.158   0.281
 2226SOL     OW18708   2.736   0.861   2.206
 2226SOL    HW118709   2.683   0.793   2.156
 2226SOL    HW218710   2.828   0.827   2.223
 2227SOL     OW18711   4.709   2.442   1.192
 2227SOL    HW118712   4.692   2.527   1.243
 2227SOL    HW218713   4.625   2.413   1.147
 2228SOL     OW18714   3.501   6.807   0.875
 2228SOL    HW118715   3.564   6.882   0.897
 2228SOL    HW218716   3.495   6.797   0.776
 2229SOL     OW18717   0.112   5.661   5.753
 2229SOL    HW118718   0.163   5.588   5.707
 2229SOL    HW218719   0.081   5.728   5.686
 2230SOL     OW18720   2.456   0.046   5.090
 2230SOL    HW118721   2.428   0.038   4.994
 2230SOL    HW218722   2.535   0.107   5.097
 2231SOL     OW18723   8.071   7.227   0.580
 2231SOL    HW118724   8.048   7.276   0.663
 2231SOL    HW218725   8.170   7.229   0.566
 2232SOL     OW18726   2.744   2.365   1.730
 2232SOL    HW118727   2.824   2.306   1.742
 2232SOL    HW218728   2.710   2.393   1.819
 2233SOL     OW18729   3.239   0.979   1.087
 2233SOL    HW118730   3.148   0.965   1.127
 2233SOL    HW218731   3.239   1.064   1.034
 2234SOL     OW18732   5.114   2.811   6.903
 2234SOL    HW118733   5.183   2.813   6.831
 2234SOL    HW218734   5.160   2.799   6.992
 2235SOL     OW18735   2.669   5.489   0.328
 2235SOL    HW118736   2.748   5.471   0.387
 2235SOL    HW218737   2.595   5.527   0.383
 2236SOL     OW18738   9.435   0.475   1.089
 2236SOL    HW118739   9.525   0.515   1.074
 2236SOL    HW218740   9.424   0.395   1.029
 2237SOL     OW18741   0.979   2.204   6.241
 2237SOL    HW118742   1.004   2.198   6.145
 2237SOL    HW218743   0.956   2.298   6.264
 2238SOL     OW18744   0.989   5.893   6.174
 2238SOL    HW118745   0.889   5.886   6.178
 2238SOL    HW218746   1.024   5.906   6.267
 2239SOL     OW18747   5.760   4.255   5.979
 2239SOL    HW118748   5.677   4.300   6.011
 2239SOL    HW218749   5.736   4.178   5.921
 2240SOL     OW18750   9.456   6.874   1.303
 2240SOL    HW118751   9.361   6.903   1.286
 2240SOL    HW218752   9.469   6.859   1.401
 2241SOL     OW18753   7.714   3.735   6.923
 2241SOL    HW118754   7.780   3.665   6.953
 2241SOL    HW218755   7.622   3.695   6.922
 2242SOL     OW18756   2.532   0.502   6.420
 2242SOL    HW118757   2.611   0.449   6.389
 2242SOL    HW218758   2.464   0.441   6.460
 2243SOL     OW18759   7.497   2.001   0.992
 2243SOL    HW118760   7.591   1.979   0.965
 2243SOL    HW218761   7.440   2.007   0.910
 2244SOL     OW18762   3.444   0.704   2.331
 2244SOL    HW118763   3.367   0.673   2.275
 2244SOL    HW218764   3.529   0.675   2.288
 2245SOL     OW18765   1.153   8.124   5.667
 2245SOL    HW118766   1.121   8.031   5.679
 2245SOL    HW218767   1.106   8.185   5.731
 2246SOL     OW18768   1.067   5.956   5.602
 2246SOL    HW118769   0.997   5.942   5.672
 2246SOL    HW218770   1.148   5.996   5.643
 2247SOL     OW18771   2.218   1.605   5.768
 2247SOL    HW118772   2.227   1.646   5.677
 2247SOL    HW218773   2.125   1.621   5.802
 2248SOL     OW18774   8.676   3.423   1.211
 2248SOL    HW118775   8.730   3.457   1.134
 2248SOL    HW218776   8.580   3.420   1.186
 2249SOL     OW18777   0.724   3.598   5.758
 2249SOL    HW118778   0.640   3.558   5.722
 2249SOL    HW218779   0.709   3.695   5.778
 2250SOL     OW18780   2.288   7.251   1.489
 2250SOL    HW118781   2.252   7.204   1.409
 2250SOL    HW218782   2.220   7.316   1.523
 2251SOL     OW18783   2.353   3.540   1.042
 2251SOL    HW118784   2.308   3.620   1.081
 2251SOL    HW218785   2.449   3.539   1.070
 2252SOL     OW18786   6.138   5.969   2.069
 2252SOL    HW118787   6.220   5.962   2.012
 2252SOL    HW218788   6.159   6.021   2.152
 2253SOL     OW18789   0.562   5.809   4.888
 2253SOL    HW118790   0.569   5.751   4.969
 2253SOL    HW218791   0.474   5.795   4.843
 2254SOL     OW18792   8.623   3.824   0.946
 2254SOL    HW118793   8.619   3.726   0.929
 2254SOL    HW218794   8.701   3.845   1.005
 2255SOL     OW18795   9.305   0.348   0.686
 2255SOL    HW118796   9.315   0.405   0.604
 2255SOL    HW218797   9.392   0.347   0.736
 2256SOL     OW18798   3.664   0.784   0.657
 2256SOL    HW118799   3.714   0.831   0.584
 2256SOL    HW218800   3.668   0.685   0.642
 2257SOL     OW18801   5.969   7.515   6.296
 2257SOL    HW118802   5.888   7.564   6.263
 2257SOL    HW218803   5.948   7.418   6.305
 2258SOL     OW18804   0.822   0.951   1.706
 2258SOL    HW118805   0.901   0.921   1.760
 2258SOL    HW218806   0.750   0.882   1.712
 2259SOL     OW18807   4.480   2.341   1.089
 2259SOL    HW118808   4.381   2.326   1.100
 2259SOL    HW218809   4.522   2.258   1.052
 2260SOL     OW18810   3.486   2.938   1.416
 2260SOL    HW118811   3.422   2.871   1.378
 2260SOL    HW218812   3.571   2.936   1.365
 2261SOL     OW18813   8.585   1.361   6.144
 2261SOL    HW118814   8.574   1.268   6.110
 2261SOL    HW218815   8.601   1.360   6.242
 2262SOL     OW18816   4.969   8.219   1.537
 2262SOL    HW118817   4.872   8.210   1.561
 2262SOL    HW218818   5.019   8.252   1.616
 2263SOL     OW18819   0.130   6.301   4.715
 2263SOL    HW118820   0.211   6.319   4.772
 2263SOL    HW218821   0.114   6.379   4.655
 2264SOL     OW18822   2.941   3.526   5.685
 2264SOL    HW118823   2.910   3.531   5.591
 2264SOL    HW218824   3.041   3.535   5.688
 2265SOL     OW18825   8.580   5.209   5.659
 2265SOL    HW118826   8.519   5.134   5.634
 2265SOL    HW218827   8.657   5.212   5.595
 2266SOL     OW18828   7.667   0.687   6.693
 2266SOL    HW118829   7.652   0.746   6.614
 2266SOL    HW218830   7.717   0.605   6.665
 2267SOL     OW18831   0.909   6.806   0.277
 2267SOL    HW118832   0.865   6.891   0.304
 2267SOL    HW218833   0.995   6.825   0.231
 2268SOL     OW18834   4.842   4.791   6.163
 2268SOL    HW118835   4.796   4.879   6.169
 2268SOL    HW218836   4.774   4.718   6.158
 2269SOL     OW18837   5.585   0.854   1.188
 2269SOL    HW118838   5.610   0.926   1.124
 2269SOL    HW218839   5.536   0.895   1.266
 2270SOL     OW18840   3.521   5.108   0.962
 2270SOL    HW118841   3.565   5.121   0.873
 2270SOL    HW218842   3.438   5.053   0.951
 2271SOL     OW18843   4.182   7.840   1.536
 2271SOL    HW118844   4.241   7.773   1.581
 2271SOL    HW218845   4.238   7.904   1.482
 2272SOL     OW18846   4.394   3.445   0.301
 2272SOL    HW118847   4.427   3.352   0.282
 2272SOL    HW218848   4.361   3.487   0.216
 2273SOL     OW18849   0.857   2.929   0.520
 2273SOL    HW118850   0.835   3.023   0.544
 2273SOL    HW218851   0.937   2.898   0.572
 2274SOL     OW18852   1.759   6.498   5.207
 2274SOL    HW118853   1.783   6.434   5.134
 2274SOL    HW218854   1.836   6.560   5.223
 2275SOL     OW18855   4.035   5.877   5.826
 2275SOL    HW118856   4.019   5.779   5.838
 2275SOL    HW218857   4.100   5.891   5.751
 2276SOL     OW18858   2.523   1.518   6.089
 2276SOL    HW118859   2.504   1.465   6.006
 2276SOL    HW218860   2.462   1.597   6.094
 2277SOL     OW18861   7.112   1.564   0.678
 2277SOL    HW118862   7.186   1.630   0.666
 2277SOL    HW218863   7.105   1.506   0.597
 2278SOL     OW18864   9.442   6.807   1.657
 2278SOL    HW118865   9.347   6.832   1.673
 2278SOL    HW218866   9.453   6.708   1.668
 2279SOL     OW18867   7.663   4.236   0.346
 2279SOL    HW118868   7.603   4.178   0.291
 2279SOL    HW218869   7.685   4.319   0.295
 2280SOL     OW18870   7.068   5.055   6.949
 2280SOL    HW118871   7.030   4.970   6.987
 2280SOL    HW218872   7.166   5.059   6.969
 2281SOL     OW18873   3.859   3.063   1.487
 2281SOL    HW118874   3.853   2.972   1.530
 2281SOL    HW218875   3.819   3.060   1.396
 2282SOL     OW18876   2.120   2.720   6.218
 2282SOL    HW118877   2.215   2.719   6.249
 2282SOL    HW218878   2.099   2.809   6.179
 2283SOL     OW18879   8.755   2.940   6.321
 2283SOL    HW118880   8.671   2.912   6.367
 2283SOL    HW218881   8.823   2.868   6.329
 2284SOL     OW18882   7.224   1.379   6.658
 2284SOL    HW118883   7.137   1.328   6.658
 2284SOL    HW218884   7.262   1.378   6.566
 2285SOL     OW18885   0.338   0.970   0.755
 2285SOL    HW118886   0.387   1.034   0.814
 2285SOL    HW218887   0.261   0.930   0.806
 2286SOL     OW18888   9.575   0.879   5.150
 2286SOL    HW118889   9.538   0.970   5.164
 2286SOL    HW218890   9.606   0.870   5.055
 2287SOL     OW18891   2.408   2.591   6.741
 2287SOL    HW118892   2.469   2.599   6.819
 2287SOL    HW218893   2.386   2.682   6.707
 2288SOL     OW18894   4.577   7.912   5.259
 2288SOL    HW118895   4.620   7.949   5.177
 2288SOL    HW218896   4.574   7.812   5.253
 2289SOL     OW18897   9.372   8.369   5.315
 2289SOL    HW118898   9.288   8.402   5.358
 2289SOL    HW218899   9.365   8.378   5.216
 2290SOL     OW18900   5.597   0.659   2.417
 2290SOL    HW118901   5.676   0.718   2.432
 2290SOL    HW218902   5.523   0.686   2.479
 2291SOL     OW18903   0.631   7.526   6.555
 2291SOL    HW118904   0.577   7.534   6.639
 2291SOL    HW218905   0.611   7.603   6.495
 2292SOL     OW18906   7.398   0.482   0.408
 2292SOL    HW118907   7.483   0.514   0.365
 2292SOL    HW218908   7.415   0.462   0.505
 2293SOL     OW18909   4.009   5.722   7.001
 2293SOL    HW118910   3.957   5.708   7.085
 2293SOL    HW218911   4.061   5.639   6.980
 2294SOL     OW18912   1.878   6.116   0.371
 2294SOL    HW118913   1.924   6.074   0.292
 2294SOL    HW218914   1.846   6.207   0.347
 2295SOL     OW18915   7.507   6.226   5.415
 2295SOL    HW118916   7.466   6.156   5.356
 2295SOL    HW218917   7.509   6.313   5.366
 2296SOL     OW18918   2.646   1.428   6.577
 2296SOL    HW118919   2.650   1.456   6.481
 2296SOL    HW218920   2.590   1.493   6.628
 2297SOL     OW18921   3.419   1.084   6.438
 2297SOL    HW118922   3.355   1.017   6.477
 2297SOL    HW218923   3.367   1.161   6.401
 2298SOL     OW18924   4.931   5.957   6.951
 2298SOL    HW118925   4.941   5.948   7.050
 2298SOL    HW218926   5.020   5.977   6.909
 2299SOL     OW18927   6.710   6.479   5.774
 2299SOL    HW118928   6.789   6.539   5.760
 2299SOL    HW218929   6.692   6.470   5.872
 2300SOL     OW18930   2.804   5.018   1.309
 2300SOL    HW118931   2.756   5.060   1.232
 2300SOL    HW218932   2.878   5.078   1.339
 2301SOL     OW18933   8.823   2.441   5.256
 2301SOL    HW118934   8.830   2.341   5.255
 2301SOL    HW218935   8.727   2.468   5.258
 2302SOL     OW18936   5.903   2.417   6.231
 2302SOL    HW118937   5.911   2.488   6.161
 2302SOL    HW218938   5.902   2.327   6.188
 2303SOL     OW18939   8.230   8.379   5.158
 2303SOL    HW118940   8.149   8.432   5.135
 2303SOL    HW218941   8.289   8.433   5.219
 2304SOL     OW18942   3.692   0.046   5.791
 2304SOL    HW118943   3.691  -0.045   5.832
 2304SOL    HW218944   3.668   0.114   5.861
 2305SOL     OW18945   7.151   0.378   6.158
 2305SOL    HW118946   7.083   0.448   6.135
 2305SOL    HW218947   7.105   0.291   6.176
 2306SOL     OW18948   5.957   6.037   0.904
 2306SOL    HW118949   5.914   5.958   0.860
 2306SOL    HW218950   6.010   6.006   0.983
 2307SOL     OW18951   9.054   6.667   6.555
 2307SOL    HW118952   8.982   6.686   6.488
 2307SOL    HW218953   9.086   6.753   6.596
 2308SOL     OW18954   6.801   4.005   6.959
 2308SOL    HW118955   6.808   3.968   7.052
 2308SOL    HW218956   6.783   4.103   6.963
 2309SOL     OW18957   2.520   5.621   1.073
 2309SOL    HW118958   2.553   5.535   1.035
 2309SOL    HW218959   2.435   5.606   1.124
 2310SOL     OW18960   3.665   1.744   6.811
 2310SOL    HW118961   3.711   1.665   6.770
 2310SOL    HW218962   3.722   1.825   6.801
 2311SOL     OW18963   6.505   1.741   1.482
 2311SOL    HW118964   6.574   1.671   1.463
 2311SOL    HW218965   6.492   1.798   1.401
 2312SOL     OW18966   4.760   7.940   0.939
 2312SOL    HW118967   4.825   7.945   0.863
 2312SOL    HW218968   4.744   8.032   0.975
 2313SOL     OW18969   4.784   6.339   6.673
 2313SOL    HW118970   4.703   6.328   6.614
 2313SOL    HW218971   4.846   6.405   6.632
 2314SOL     OW18972   1.279   8.169   1.351
 2314SOL    HW118973   1.280   8.159   1.451
 2314SOL    HW218974   1.195   8.129   1.314
 2315SOL     OW18975   5.515   6.211   1.202
 2315SOL    HW118976   5.551   6.304   1.197
 2315SOL    HW218977   5.505   6.184   1.298
 2316SOL     OW18978   5.476   0.609   6.227
 2316SOL    HW118979   5.435   0.700   6.230
 2316SOL    HW218980   5.575   0.617   6.235
 2317SOL     OW18981   5.094   0.217   5.796
 2317SOL    HW118982   5.025   0.196   5.727
 2317SOL    HW218983   5.090   0.149   5.869
 2318SOL     OW18984   2.068   1.018   1.386
 2318SOL    HW118985   2.046   1.114   1.406
 2318SOL    HW218986   2.086   0.970   1.472
 2319SOL     OW18987   1.026   8.316   5.857
 2319SOL    HW118988   0.965   8.307   5.935
 2319SOL    HW218989   1.115   8.349   5.889
 2320SOL     OW18990   4.893   8.211   6.168
 2320SOL    HW118991   4.944   8.168   6.242
 2320SOL    HW218992   4.894   8.152   6.087
 2321SOL     OW18993   5.980   4.298   6.136
 2321SOL    HW118994   6.065   4.244   6.139
 2321SOL    HW218995   5.918   4.259   6.069
 2322SOL     OW18996   0.512   7.028   0.314
 2322SOL    HW118997   0.462   6.943   0.302
 2322SOL    HW218998   0.552   7.056   0.226
 2323SOL     OW18999   1.370   0.553   6.259
 2323SOL    HW119000   1.438   0.572   6.331
 2323SOL    HW219001   1.285   0.523   6.301
 2324SOL     OW19002   6.312   4.941   5.725
 2324SOL    HW119003   6.350   4.849   5.718
 2324SOL    HW219004   6.259   4.962   5.644
 2325SOL     OW19005   6.507   0.296   6.483
 2325SOL    HW119006   6.600   0.331   6.487
 2325SOL    HW219007   6.505   0.202   6.515
 2326SOL     OW19008   8.408   4.548   0.661
 2326SOL    HW119009   8.503   4.517   0.662
 2326SOL    HW219010   8.363   4.514   0.579
 2327SOL     OW19011   2.296   3.135   0.833
 2327SOL    HW119012   2.323   3.072   0.761
 2327SOL    HW219013   2.332   3.226   0.813
 2328SOL     OW19014   0.202   5.132   6.030
 2328SOL    HW119015   0.257   5.111   5.950
 2328SOL    HW219016   0.113   5.169   6.001
 2329SOL     OW19017   8.339   3.666   5.394
 2329SOL    HW119018   8.252   3.638   5.436
 2329SOL    HW219019   8.376   3.591   5.341
 2330SOL     OW19020   6.584   2.030   0.846
 2330SOL    HW119021   6.522   2.095   0.803
 2330SOL    HW219022   6.598   1.951   0.786
 2331SOL     OW19023   0.776   3.074   5.336
 2331SOL    HW119024   0.806   3.169   5.331
 2331SOL    HW219025   0.704   3.059   5.268
 2332SOL     OW19026   0.567   0.216   1.097
 2332SOL    HW119027   0.616   0.299   1.071
 2332SOL    HW219028   0.481   0.241   1.142
 2333SOL     OW19029   6.004   0.703   6.200
 2333SOL    HW119030   6.068   0.688   6.125
 2333SOL    HW219031   5.922   0.647   6.186
 2334SOL     OW19032   3.734   2.636   0.658
 2334SOL    HW119033   3.704   2.549   0.697
 2334SOL    HW219034   3.667   2.668   0.591
 2335SOL     OW19035   5.782   6.516   6.126
 2335SOL    HW119036   5.857   6.450   6.125
 2335SOL    HW219037   5.699   6.472   6.091
 2336SOL     OW19038   7.388   0.896   5.712
 2336SOL    HW119039   7.404   0.995   5.705
 2336SOL    HW219040   7.306   0.872   5.660
 2337SOL     OW19041   3.535   5.071   1.488
 2337SOL    HW119042   3.609   5.126   1.528
 2337SOL    HW219043   3.509   5.111   1.400
 2338SOL     OW19044   2.750   6.238   1.210
 2338SOL    HW119045   2.826   6.180   1.181
 2338SOL    HW219046   2.705   6.277   1.130
 2339SOL     OW19047   8.429   7.485   0.647
 2339SOL    HW119048   8.388   7.397   0.623
 2339SOL    HW219049   8.529   7.478   0.640
 2340SOL     OW19050   5.007   2.832   1.321
 2340SOL    HW119051   4.956   2.792   1.397
 2340SOL    HW219052   5.017   2.765   1.248
 2341SOL     OW19053   3.911   5.187   6.314
 2341SOL    HW119054   3.815   5.162   6.324
 2341SOL    HW219055   3.953   5.132   6.242
 2342SOL     OW19056   3.917   6.172   6.836
 2342SOL    HW119057   3.876   6.235   6.902
 2342SOL    HW219058   4.000   6.132   6.876
 2343SOL     OW19059   6.536   4.904   6.422
 2343SOL    HW119060   6.601   4.977   6.439
 2343SOL    HW219061   6.584   4.816   6.422
 2344SOL     OW19062   4.235   8.072   1.375
 2344SOL    HW119063   4.204   8.093   1.282
 2344SOL    HW219064   4.204   8.144   1.437
 2345SOL     OW19065   8.685   7.821   6.894
 2345SOL    HW119066   8.712   7.811   6.798
 2345SOL    HW219067   8.687   7.918   6.919
 2346SOL     OW19068   1.832   7.969   0.510
 2346SOL    HW119069   1.842   8.009   0.601
 2346SOL    HW219070   1.807   8.040   0.444
 2347SOL     OW19071   5.656   1.119   2.018
 2347SOL    HW119072   5.750   1.102   2.048
 2347SOL    HW219073   5.656   1.190   1.947
 2348SOL     OW19074   3.583   0.503   0.405
 2348SOL    HW119075   3.613   0.500   0.501
 2348SOL    HW219076   3.663   0.498   0.345
 2349SOL     OW19077   2.244   6.432   1.697
 2349SOL    HW119078   2.222   6.342   1.734
 2349SOL    HW219079   2.163   6.470   1.653
 2350SOL     OW19080   1.045   7.035   1.546
 2350SOL    HW119081   1.119   7.098   1.523
 2350SOL    HW219082   0.972   7.083   1.594
 2351SOL     OW19083   3.604   0.097   0.372
 2351SOL    HW119084   3.551   0.018   0.405
 2351SOL    HW219085   3.631   0.154   0.449
 2352SOL     OW19086   9.574   4.650   0.965
 2352SOL    HW119087   9.633   4.714   1.015
 2352SOL    HW219088   9.555   4.570   1.022
 2353SOL     OW19089   2.225   5.322   0.366
 2353SOL    HW119090   2.266   5.308   0.276
 2353SOL    HW219091   2.137   5.275   0.371
 2354SOL     OW19092   4.777   2.218   0.818
 2354SOL    HW119093   4.691   2.182   0.781
 2354SOL    HW219094   4.788   2.188   0.913
 2355SOL     OW19095   4.052   4.801   6.757
 2355SOL    HW119096   4.000   4.790   6.842
 2355SOL    HW219097   4.001   4.859   6.694
 2356SOL     OW19098   2.308   7.679   6.587
 2356SOL    HW119099   2.399   7.655   6.553
 2356SOL    HW219100   2.240   7.664   6.515
 2357SOL     OW19101   7.590   3.869   0.508
 2357SOL    HW119102   7.503   3.900   0.470
 2357SOL    HW219103   7.652   3.947   0.517
 2358SOL     OW19104   1.811   6.202   6.309
 2358SOL    HW119105   1.875   6.231   6.238
 2358SOL    HW219106   1.855   6.212   6.399
 2359SOL     OW19107   4.791   1.155   6.661
 2359SOL    HW119108   4.825   1.097   6.586
 2359SOL    HW219109   4.865   1.213   6.695
 2360SOL     OW19110   4.059   4.448   1.666
 2360SOL    HW119111   4.012   4.366   1.699
 2360SOL    HW219112   3.993   4.519   1.645
 2361SOL     OW19113   6.506   2.807   6.332
 2361SOL    HW119114   6.492   2.885   6.271
 2361SOL    HW219115   6.503   2.722   6.279
 2362SOL     OW19116   2.117   3.908   1.940
 2362SOL    HW119117   2.018   3.900   1.928
 2362SOL    HW219118   2.164   3.849   1.875
 2363SOL     OW19119   5.283   0.413   5.829
 2363SOL    HW119120   5.305   0.413   5.926
 2363SOL    HW219121   5.219   0.338   5.809
 2364SOL     OW19122   3.209   6.172   1.653
 2364SOL    HW119123   3.238   6.233   1.726
 2364SOL    HW219124   3.109   6.174   1.645
 2365SOL     OW19125   6.524   8.298   5.658
 2365SOL    HW119126   6.586   8.223   5.636
 2365SOL    HW219127   6.577   8.376   5.691
 2366SOL     OW19128   4.995   3.930   1.839
 2366SOL    HW119129   5.016   3.833   1.826
 2366SOL    HW219130   4.967   3.946   1.933
 2367SOL     OW19131   5.693   2.145   1.776
 2367SOL    HW119132   5.735   2.055   1.782
 2367SOL    HW219133   5.595   2.135   1.757
 2368SOL     OW19134   5.101   0.070   1.037
 2368SOL    HW119135   5.183   0.031   1.077
 2368SOL    HW219136   5.090   0.165   1.068
 2369SOL     OW19137   1.822   4.923   6.369
 2369SOL    HW119138   1.776   5.009   6.392
 2369SOL    HW219139   1.882   4.936   6.290
 2370SOL     OW19140   4.078   6.826   5.214
 2370SOL    HW119141   4.035   6.783   5.293
 2370SOL    HW219142   4.013   6.888   5.170
 2371SOL     OW19143   2.032   7.489   6.490
 2371SOL    HW119144   2.026   7.556   6.416
 2371SOL    HW219145   1.971   7.516   6.565
 2372SOL     OW19146   7.779   3.756   2.231
 2372SOL    HW119147   7.785   3.855   2.232
 2372SOL    HW219148   7.684   3.729   2.211
 2373SOL     OW19149   7.323   7.811   5.307
 2373SOL    HW119150   7.390   7.859   5.250
 2373SOL    HW219151   7.236   7.860   5.306
 2374SOL     OW19152   4.500   4.900   6.264
 2374SOL    HW119153   4.493   4.958   6.183
 2374SOL    HW219154   4.493   4.956   6.346
 2375SOL     OW19155   3.879   2.366   1.581
 2375SOL    HW119156   3.971   2.339   1.611
 2375SOL    HW219157   3.864   2.462   1.607
 2376SOL     OW19158   0.633   4.103   6.973
 2376SOL    HW119159   0.595   4.037   7.038
 2376SOL    HW219160   0.662   4.054   6.890
 2377SOL     OW19161   3.220   4.711   0.543
 2377SOL    HW119162   3.305   4.729   0.594
 2377SOL    HW219163   3.174   4.631   0.583
 2378SOL     OW19164   3.265   1.209   6.222
 2378SOL    HW119165   3.209   1.161   6.155
 2378SOL    HW219166   3.223   1.297   6.244
 2379SOL     OW19167   5.060   5.019   5.956
 2379SOL    HW119168   5.015   4.983   5.874
 2379SOL    HW219169   5.095   4.943   6.011
 2380SOL     OW19170   8.370  -0.047   0.625
 2380SOL    HW119171   8.310   0.030   0.648
 2380SOL    HW219172   8.448  -0.014   0.572
 2381SOL     OW19173   1.240   3.414   6.755
 2381SOL    HW119174   1.204   3.408   6.848
 2381SOL    HW219175   1.296   3.334   6.735
 2382SOL     OW19176   3.953   6.090   1.732
 2382SOL    HW119177   3.932   6.107   1.636
 2382SOL    HW219178   3.895   6.149   1.789
 2383SOL     OW19179   8.228   0.331   6.229
 2383SOL    HW119180   8.305   0.375   6.184
 2383SOL    HW219181   8.214   0.373   6.319
 2384SOL     OW19182   8.925   4.359   6.357
 2384SOL    HW119183   8.965   4.305   6.283
 2384SOL    HW219184   8.997   4.410   6.404
 2385SOL     OW19185   6.245   0.270   5.912
 2385SOL    HW119186   6.162   0.292   5.861
 2385SOL    HW219187   6.232   0.183   5.960
 2386SOL     OW19188   3.797   4.901   0.538
 2386SOL    HW119189   3.783   4.999   0.529
 2386SOL    HW219190   3.814   4.879   0.634
 2387SOL     OW19191   1.850   8.215   0.323
 2387SOL    HW119192   1.842   8.311   0.349
 2387SOL    HW219193   1.779   8.192   0.256
 2388SOL     OW19194   3.928   7.243   5.977
 2388SOL    HW119195   3.923   7.290   6.065
 2388SOL    HW219196   3.971   7.154   5.989
 2389SOL     OW19197   8.204   0.647   6.658
 2389SOL    HW119198   8.134   0.642   6.730
 2389SOL    HW219199   8.170   0.705   6.584
 2390SOL     OW19200   0.988   5.954   5.247
 2390SOL    HW119201   1.030   5.907   5.170
 2390SOL    HW219202   1.055   5.963   5.321
 2391SOL     OW19203   3.223   2.762   6.938
 2391SOL    HW119204   3.188   2.821   6.865
 2391SOL    HW219205   3.244   2.671   6.900
 2392SOL     OW19206   9.039   5.468   6.288
 2392SOL    HW119207   9.123   5.414   6.295
 2392SOL    HW219208   8.988   5.441   6.206
 2393SOL     OW19209   3.278   7.219   0.595
 2393SOL    HW119210   3.197   7.165   0.618
 2393SOL    HW219211   3.301   7.205   0.499
 2394SOL     OW19212   6.355   2.949   1.713
 2394SOL    HW119213   6.347   2.916   1.807
 2394SOL    HW219214   6.374   3.048   1.713
 2395SOL     OW19215   8.636   5.068   0.955
 2395SOL    HW119216   8.698   5.050   1.031
 2395SOL    HW219217   8.649   4.999   0.884
 2396SOL     OW19218   7.184   7.400   1.985
 2396SOL    HW119219   7.284   7.400   1.996
 2396SOL    HW219220   7.144   7.460   2.054
 2397SOL     OW19221   0.539   5.776   0.788
 2397SOL    HW119222   0.616   5.713   0.772
 2397SOL    HW219223   0.454   5.724   0.790
 2398SOL     OW19224   1.806   6.970   6.600
 2398SOL    HW119225   1.855   7.057   6.606
 2398SOL    HW219226   1.795   6.944   6.504
 2399SOL     OW19227   5.101   4.903   1.261
 2399SOL    HW119228   5.090   4.804   1.266
 2399SOL    HW219229   5.161   4.934   1.334
 2400SOL     OW19230   3.213   1.963   0.993
 2400SOL    HW119231   3.249   1.980   1.085
 2400SOL    HW219232   3.249   1.876   0.959
 2401SOL     OW19233   0.967   7.767   4.358
 2401SOL    HW119234   0.868   7.758   4.344
 2401SOL    HW219235   0.985   7.842   4.422
 2402SOL     OW19236   1.416   5.950   5.482
 2402SOL    HW119237   1.382   5.938   5.389
 2402SOL    HW219238   1.349   5.916   5.547
 2403SOL     OW19239   7.706   3.352   6.799
 2403SOL    HW119240   7.735   3.275   6.856
 2403SOL    HW219241   7.606   3.359   6.803
 2404SOL     OW19242   3.647   5.152   6.351
 2404SOL    HW119243   3.575   5.163   6.282
 2404SOL    HW219244   3.608   5.111   6.434
 2405SOL     OW19245   8.357   3.536   6.495
 2405SOL    HW119246   8.335   3.535   6.398
 2405SOL    HW219247   8.440   3.590   6.510
 2406SOL     OW19248   6.525   4.014   6.681
 2406SOL    HW119249   6.612   4.035   6.637
 2406SOL    HW219250   6.465   4.094   6.678
 2407SOL     OW19251   0.423   7.435   5.334
 2407SOL    HW119252   0.420   7.453   5.235
 2407SOL    HW219253   0.334   7.402   5.364
 2408SOL     OW19254   2.437   5.837   0.687
 2408SOL    HW119255   2.386   5.803   0.766
 2408SOL    HW219256   2.374   5.856   0.612
 2409SOL     OW19257   8.535   6.920   5.646
 2409SOL    HW119258   8.559   6.936   5.550
 2409SOL    HW219259   8.435   6.915   5.654
 2410SOL     OW19260   2.966   1.356   1.970
 2410SOL    HW119261   2.973   1.309   1.882
 2410SOL    HW219262   2.948   1.453   1.955
 2411SOL     OW19263   1.164   7.558   1.886
 2411SOL    HW119264   1.176   7.643   1.937
 2411SOL    HW219265   1.075   7.557   1.841
 2412SOL     OW19266   2.083   5.735   5.834
 2412SOL    HW119267   2.142   5.772   5.905
 2412SOL    HW219268   2.010   5.681   5.876
 2413SOL     OW19269   0.690   5.027   0.298
 2413SOL    HW119270   0.613   5.080   0.335
 2413SOL    HW219271   0.769   5.087   0.286
 2414SOL     OW19272   7.176   5.114   6.421
 2414SOL    HW119273   7.250   5.067   6.371
 2414SOL    HW219274   7.213   5.196   6.465
 2415SOL     OW19275   1.207   0.367   4.790
 2415SOL    HW119276   1.143   0.336   4.720
 2415SOL    HW219277   1.234   0.461   4.770
 2416SOL     OW19278   5.070   3.285   1.387
 2416SOL    HW119279   5.114   3.375   1.396
 2416SOL    HW219280   5.100   3.226   1.461
 2417SOL     OW19281   8.463   1.206   6.447
 2417SOL    HW119282   8.518   1.125   6.431
 2417SOL    HW219283   8.395   1.187   6.518
 2418SOL     OW19284   1.616   7.878   5.890
 2418SOL    HW119285   1.545   7.817   5.854
 2418SOL    HW219286   1.702   7.861   5.842
 2419SOL     OW19287   9.331   1.806   5.686
 2419SOL    HW119288   9.411   1.852   5.648
 2419SOL    HW219289   9.350   1.709   5.698
 2420SOL     OW19290   8.494   0.436   5.510
 2420SOL    HW119291   8.505   0.371   5.434
 2420SOL    HW219292   8.583   0.473   5.535
 2421SOL     OW19293   5.473   7.339   1.318
 2421SOL    HW119294   5.492   7.437   1.317
 2421SOL    HW219295   5.387   7.322   1.366
 2422SOL     OW19296   6.835   4.034   1.012
 2422SOL    HW119297   6.860   4.111   1.071
 2422SOL    HW219298   6.918   3.992   0.975
 2423SOL     OW19299   1.948   2.944   6.432
 2423SOL    HW119300   1.901   2.937   6.520
 2423SOL    HW219301   1.907   2.879   6.367
 2424SOL     OW19302   3.527   0.956   6.787
 2424SOL    HW119303   3.573   1.043   6.770
 2424SOL    HW219304   3.431   0.963   6.759
 2425SOL     OW19305   2.599   8.201   0.929
 2425SOL    HW119306   2.658   8.205   1.009
 2425SOL    HW219307   2.638   8.138   0.861
 2426SOL     OW19308   0.517   7.881   1.000
 2426SOL    HW119309   0.512   7.981   1.007
 2426SOL    HW219310   0.600   7.856   0.950
 2427SOL     OW19311   8.914   5.618   5.445
 2427SOL    HW119312   8.856   5.542   5.416
 2427SOL    HW219313   8.985   5.634   5.377
 2428SOL     OW19314   3.082   3.642   6.203
 2428SOL    HW119315   3.128   3.727   6.228
 2428SOL    HW219316   3.071   3.638   6.104
 2429SOL     OW19317   1.616   1.260   0.607
 2429SOL    HW119318   1.580   1.325   0.540
 2429SOL    HW219319   1.595   1.167   0.577
 2430SOL     OW19320   4.974   2.200   0.604
 2430SOL    HW119321   5.009   2.290   0.580
 2430SOL    HW219322   4.906   2.209   0.676
 2431SOL     OW19323   3.254   7.792   0.820
 2431SOL    HW119324   3.296   7.793   0.729
 2431SOL    HW219325   3.326   7.782   0.889
 2432SOL     OW19326   6.206   6.071   4.848
 2432SOL    HW119327   6.295   6.095   4.888
 2432SOL    HW219328   6.221   6.013   4.767
 2433SOL     OW19329   0.389   6.967   4.290
 2433SOL    HW119330   0.311   6.915   4.256
 2433SOL    HW219331   0.448   6.993   4.213
 2434SOL     OW19332   1.624   1.092   6.594
 2434SOL    HW119333   1.670   1.099   6.682
 2434SOL    HW219334   1.615   1.183   6.553
 2435SOL     OW19335   2.913   3.931   6.048
 2435SOL    HW119336   2.882   3.885   5.965
 2435SOL    HW219337   2.944   3.864   6.115
 2436SOL     OW19338   1.632   6.630   4.596
 2436SOL    HW119339   1.535   6.609   4.614
 2436SOL    HW219340   1.638   6.695   4.520
 2437SOL     OW19341   3.676   2.191   6.790
 2437SOL    HW119342   3.721   2.260   6.735
 2437SOL    HW219343   3.733   2.109   6.794
 2438SOL     OW19344   5.614   7.787   6.758
 2438SOL    HW119345   5.595   7.880   6.729
 2438SOL    HW219346   5.691   7.787   6.823
 2439SOL     OW19347   1.075   7.104   1.021
 2439SOL    HW119348   1.019   7.032   0.981
 2439SOL    HW219349   1.085   7.088   1.119
 2440SOL     OW19350   6.118   6.728   5.901
 2440SOL    HW119351   6.190   6.679   5.852
 2440SOL    HW219352   6.051   6.763   5.835
 2441SOL     OW19353   2.058   4.439   5.177
 2441SOL    HW119354   1.994   4.487   5.116
 2441SOL    HW219355   2.110   4.372   5.124
 2442SOL     OW19356   8.172   8.116   6.724
 2442SOL    HW119357   8.186   8.215   6.724
 2442SOL    HW219358   8.092   8.094   6.779
 2443SOL     OW19359   8.728   1.713   6.150
 2443SOL    HW119360   8.650   1.739   6.092
 2443SOL    HW219361   8.769   1.629   6.115
 2444SOL     OW19362   4.327   5.509   6.876
 2444SOL    HW119363   4.423   5.500   6.853
 2444SOL    HW219364   4.300   5.605   6.869
 2445SOL     OW19365   6.993   6.540   6.565
 2445SOL    HW119366   7.030   6.448   6.573
 2445SOL    HW219367   7.048   6.604   6.619
 2446SOL     OW19368   1.097   7.092   0.683
 2446SOL    HW119369   1.071   7.164   0.747
 2446SOL    HW219370   1.174   7.041   0.720
 2447SOL     OW19371   2.932   1.812   2.201
 2447SOL    HW119372   2.836   1.784   2.196
 2447SOL    HW219373   2.960   1.847   2.112
 2448SOL     OW19374   5.800   6.587   5.836
 2448SOL    HW119375   5.844   6.554   5.920
 2448SOL    HW219376   5.721   6.529   5.816
 2449SOL     OW19377   2.654   0.237   5.074
 2449SOL    HW119378   2.712   0.205   4.999
 2449SOL    HW219379   2.667   0.335   5.087
 2450SOL     OW19380   3.724   2.162   1.202
 2450SOL    HW119381   3.754   2.070   1.177
 2450SOL    HW219382   3.637   2.183   1.156
 2451SOL     OW19383   8.206   8.236   0.662
 2451SOL    HW119384   8.126   8.252   0.605
 2451SOL    HW219385   8.259   8.320   0.671
 2452SOL     OW19386   8.436   3.862   5.964
 2452SOL    HW119387   8.503   3.879   5.891
 2452SOL    HW219388   8.350   3.831   5.923
 2453SOL     OW19389   5.633   7.681   1.445
 2453SOL    HW119390   5.728   7.708   1.458
 2453SOL    HW219391   5.592   7.659   1.534
 2454SOL     OW19392   2.998   0.727   2.241
 2454SOL    HW119393   3.062   0.723   2.164
 2454SOL    HW219394   3.043   0.691   2.323
 2455SOL     OW19395   4.289   5.933   6.116
 2455SOL    HW119396   4.378   5.977   6.115
 2455SOL    HW219397   4.217   6.003   6.110
 2456SOL     OW19398   3.685   6.658   6.843
 2456SOL    HW119399   3.621   6.727   6.878
 2456SOL    HW219400   3.664   6.569   6.884
 2457SOL     OW19401   4.669   0.856   0.692
 2457SOL    HW119402   4.603   0.930   0.702
 2457SOL    HW219403   4.639   0.794   0.619
 2458SOL     OW19404   7.217   2.343   0.603
 2458SOL    HW119405   7.301   2.384   0.639
 2458SOL    HW219406   7.238   2.255   0.561
 2459SOL     OW19407   5.709   8.153   6.148
 2459SOL    HW119408   5.776   8.167   6.221
 2459SOL    HW219409   5.737   8.076   6.090
 2460SOL     OW19410   4.181   1.447   6.389
 2460SOL    HW119411   4.249   1.413   6.454
 2460SOL    HW219412   4.224   1.516   6.331
 2461SOL     OW19413   2.648   1.516   0.416
 2461SOL    HW119414   2.613   1.488   0.505
 2461SOL    HW219415   2.739   1.477   0.402
 2462SOL     OW19416   5.445   3.692   0.996
 2462SOL    HW119417   5.348   3.686   1.020
 2462SOL    HW219418   5.480   3.782   1.023
 2463SOL     OW19419   0.138   1.492   5.701
 2463SOL    HW119420   0.191   1.537   5.629
 2463SOL    HW219421   0.041   1.518   5.693
 2464SOL     OW19422   1.271   5.710   4.523
 2464SOL    HW119423   1.214   5.767   4.464
 2464SOL    HW219424   1.248   5.614   4.509
 2465SOL     OW19425   3.264   7.371   6.294
 2465SOL    HW119426   3.193   7.431   6.331
 2465SOL    HW219427   3.247   7.277   6.325
 2466SOL     OW19428   6.876   6.642   6.088
 2466SOL    HW119429   6.797   6.580   6.090
 2466SOL    HW219430   6.960   6.588   6.078
 2467SOL     OW19431   5.993   7.041   1.157
 2467SOL    HW119432   6.090   7.064   1.163
 2467SOL    HW219433   5.976   6.956   1.205
 2468SOL     OW19434   9.038   7.940   6.917
 2468SOL    HW119435   9.130   7.903   6.935
 2468SOL    HW219436   9.024   7.947   6.819
 2469SOL     OW19437   2.829   2.647   5.759
 2469SOL    HW119438   2.847   2.737   5.719
 2469SOL    HW219439   2.739   2.616   5.731
 2470SOL     OW19440   0.448   7.448   4.446
 2470SOL    HW119441   0.506   7.478   4.370
 2470SOL    HW219442   0.420   7.353   4.431
 2471SOL     OW19443   6.585   3.240   6.083
 2471SOL    HW119444   6.580   3.252   5.984
 2471SOL    HW219445   6.629   3.153   6.104
 2472SOL     OW19446   5.238   0.526   6.875
 2472SOL    HW119447   5.261   0.604   6.934
 2472SOL    HW219448   5.143   0.533   6.846
 2473SOL     OW19449   1.624   2.904   1.114
 2473SOL    HW119450   1.527   2.883   1.128
 2473SOL    HW219451   1.655   2.969   1.183
 2474SOL     OW19452   5.837   2.618   0.393
 2474SOL    HW119453   5.820   2.616   0.491
 2474SOL    HW219454   5.928   2.655   0.375
 2475SOL     OW19455   9.382   1.071   6.872
 2475SOL    HW119456   9.476   1.073   6.837
 2475SOL    HW219457   9.329   1.003   6.821
 2476SOL     OW19458   5.695   0.753   1.953
 2476SOL    HW119459   5.596   0.746   1.968
 2476SOL    HW219460   5.713   0.766   1.855
 2477SOL     OW19461   5.716   3.839   6.870
 2477SOL    HW119462   5.654   3.761   6.873
 2477SOL    HW219463   5.802   3.815   6.913
 2478SOL     OW19464   2.761   1.136   1.043
 2478SOL    HW119465   2.745   1.098   1.134
 2478SOL    HW219466   2.819   1.073   0.990
 2479SOL     OW19467   4.120   0.724   0.542
 2479SOL    HW119468   4.109   0.626   0.527
 2479SOL    HW219469   4.030   0.766   0.555
 2480SOL     OW19470   0.880   0.417   1.339
 2480SOL    HW119471   0.892   0.376   1.249
 2480SOL    HW219472   0.804   0.483   1.337
 2481SOL     OW19473   9.140   3.058   6.867
 2481SOL    HW119474   9.081   3.098   6.796
 2481SOL    HW219475   9.233   3.094   6.856
 2482SOL     OW19476   3.665   5.097   0.711
 2482SOL    HW119477   3.733   5.168   0.727
 2482SOL    HW219478   3.586   5.135   0.663
 2483SOL     OW19479   5.176   7.815   2.321
 2483SOL    HW119480   5.216   7.756   2.251
 2483SOL    HW219481   5.161   7.761   2.404
 2484SOL     OW19482   0.331   5.198   0.998
 2484SOL    HW119483   0.257   5.132   1.009
 2484SOL    HW219484   0.295   5.290   1.010
 2485SOL     OW19485   0.576   8.303   1.857
 2485SOL    HW119486   0.538   8.238   1.923
 2485SOL    HW219487   0.598   8.388   1.904
 2486SOL     OW19488   8.315   1.802   0.986
 2486SOL    HW119489   8.382   1.737   0.949
 2486SOL    HW219490   8.269   1.762   1.065
 2487SOL     OW19491   7.316   5.285   1.639
 2487SOL    HW119492   7.246   5.221   1.606
 2487SOL    HW219493   7.376   5.238   1.704
 2488SOL     OW19494   5.142   1.013   6.274
 2488SOL    HW119495   5.106   1.095   6.230
 2488SOL    HW219496   5.167   0.946   6.204
 2489SOL     OW19497   3.606   2.722   0.411
 2489SOL    HW119498   3.641   2.801   0.360
 2489SOL    HW219499   3.518   2.746   0.453
 2490SOL     OW19500   1.657   7.366   7.000
 2490SOL    HW119501   1.633   7.369   6.903
 2490SOL    HW219502   1.748   7.326   7.011
 2491SOL     OW19503   8.665   2.794   1.861
 2491SOL    HW119504   8.695   2.700   1.878
 2491SOL    HW219505   8.680   2.849   1.943
 2492SOL     OW19506   7.060   8.030   5.860
 2492SOL    HW119507   7.139   7.979   5.827
 2492SOL    HW219508   6.976   7.979   5.841
 2493SOL     OW19509   5.274   0.706   1.619
 2493SOL    HW119510   5.282   0.606   1.614
 2493SOL    HW219511   5.363   0.745   1.643
 2494SOL     OW19512   0.650   6.075   4.956
 2494SOL    HW119513   0.617   5.985   4.926
 2494SOL    HW219514   0.742   6.066   4.994
 2495SOL     OW19515   2.570   5.081   0.854
 2495SOL    HW119516   2.524   5.099   0.768
 2495SOL    HW219517   2.516   5.016   0.908
 2496SOL     OW19518   5.749   1.752   1.997
 2496SOL    HW119519   5.660   1.777   1.958
 2496SOL    HW219520   5.736   1.715   2.089
 2497SOL     OW19521   0.834   5.403   6.658
 2497SOL    HW119522   0.825   5.335   6.584
 2497SOL    HW219523   0.904   5.373   6.722
 2498SOL     OW19524   8.703   7.509   0.594
 2498SOL    HW119525   8.774   7.500   0.665
 2498SOL    HW219526   8.716   7.437   0.526
 2499SOL     OW19527   6.951   4.450   1.542
 2499SOL    HW119528   6.989   4.361   1.567
 2499SOL    HW219529   6.989   4.520   1.603
 2500SOL     OW19530   4.818   6.639   1.477
 2500SOL    HW119531   4.846   6.593   1.392
 2500SOL    HW219532   4.864   6.596   1.555
 2501SOL     OW19533   5.676   6.163   6.737
 2501SOL    HW119534   5.610   6.222   6.783
 2501SOL    HW219535   5.758   6.155   6.794
 2502SOL     OW19536   8.286   4.623   5.617
 2502SOL    HW119537   8.209   4.570   5.582
 2502SOL    HW219538   8.334   4.667   5.541
 2503SOL     OW19539   5.226   7.426   1.068
 2503SOL    HW119540   5.158   7.454   1.135
 2503SOL    HW219541   5.258   7.507   1.018
 2504SOL     OW19542   3.538   4.277   1.186
 2504SOL    HW119543   3.528   4.286   1.087
 2504SOL    HW219544   3.560   4.182   1.209
 2505SOL     OW19545   7.159  -0.037   0.764
 2505SOL    HW119546   7.073  -0.080   0.792
 2505SOL    HW219547   7.209  -0.006   0.845
 2506SOL     OW19548   0.880   6.129   5.531
 2506SOL    HW119549   0.953   6.062   5.543
 2506SOL    HW219550   0.792   6.083   5.530
 2507SOL     OW19551   9.361   1.257   5.619
 2507SOL    HW119552   9.408   1.205   5.691
 2507SOL    HW219553   9.399   1.231   5.530
 2508SOL     OW19554   4.996   5.752   6.358
 2508SOL    HW119555   4.932   5.718   6.428
 2508SOL    HW219556   4.958   5.736   6.267
 2509SOL     OW19557   0.752   1.000   0.814
 2509SOL    HW119558   0.725   1.072   0.877
 2509SOL    HW219559   0.822   1.034   0.751
 2510SOL     OW19560   4.185   4.701   0.346
 2510SOL    HW119561   4.090   4.723   0.368
 2510SOL    HW219562   4.189   4.616   0.294
 2511SOL     OW19563   2.271   5.402   5.265
 2511SOL    HW119564   2.332   5.473   5.230
 2511SOL    HW219565   2.192   5.443   5.309
 2512SOL     OW19566   0.209   2.341   6.958
 2512SOL    HW119567   0.248   2.345   7.050
 2512SOL    HW219568   0.276   2.300   6.895
 2513SOL     OW19569   0.921   6.029   5.833
 2513SOL    HW119570   0.824   6.008   5.848
 2513SOL    HW219571   0.950   6.100   5.897
 2514SOL     OW19572   2.919   4.295   1.483
 2514SOL    HW119573   2.893   4.367   1.419
 2514SOL    HW219574   2.865   4.304   1.567
 2515SOL     OW19575   7.138   0.097   6.985
 2515SOL    HW119576   7.081   0.025   6.946
 2515SOL    HW219577   7.203   0.056   7.049
 2516SOL     OW19578   4.921   8.164   6.928
 2516SOL    HW119579   5.008   8.153   6.975
 2516SOL    HW219580   4.892   8.260   6.934
 2517SOL     OW19581   7.980   8.362   0.527
 2517SOL    HW119582   8.016   8.455   0.517
 2517SOL    HW219583   7.881   8.367   0.544
 2518SOL     OW19584   1.702   2.997   6.714
 2518SOL    HW119585   1.645   2.992   6.632
 2518SOL    HW219586   1.732   3.091   6.728
 2519SOL     OW19587   7.941   0.448   5.894
 2519SOL    HW119588   7.902   0.498   5.817
 2519SOL    HW219589   7.994   0.370   5.860
 2520SOL     OW19590   0.763   5.588   0.737
 2520SOL    HW119591   0.830   5.527   0.696
 2520SOL    HW219592   0.789   5.607   0.832
 2521SOL     OW19593   0.132   3.872   6.602
 2521SOL    HW119594   0.171   3.920   6.681
 2521SOL    HW219595   0.043   3.910   6.579
 2522SOL     OW19596   7.250   1.243   5.680
 2522SOL    HW119597   7.314   1.273   5.609
 2522SOL    HW219598   7.194   1.168   5.644
 2523SOL     OW19599   5.959   5.162   5.352
 2523SOL    HW119600   5.859   5.151   5.359
 2523SOL    HW219601   5.979   5.240   5.292
 2524SOL     OW19602   0.502   3.853   0.638
 2524SOL    HW119603   0.435   3.781   0.658
 2524SOL    HW219604   0.588   3.832   0.684
 2525SOL     OW19605   3.779   1.033   6.675
 2525SOL    HW119606   3.865   1.073   6.703
 2525SOL    HW219607   3.711   1.105   6.661
 2526SOL     OW19608   5.156   6.280   1.182
 2526SOL    HW119609   5.191   6.294   1.275
 2526SOL    HW219610   5.079   6.216   1.185
 2527SOL     OW19611   9.443   2.651   1.960
 2527SOL    HW119612   9.370   2.718   1.977
 2527SOL    HW219613   9.438   2.580   2.030
 2528SOL     OW19614   1.214   6.487   6.241
 2528SOL    HW119615   1.148   6.427   6.197
 2528SOL    HW219616   1.165   6.555   6.296
 2529SOL     OW19617   5.079   0.452   0.469
 2529SOL    HW119618   4.983   0.434   0.494
 2529SOL    HW219619   5.106   0.391   0.395
 2530SOL     OW19620   0.647   6.573   1.446
 2530SOL    HW119621   0.647   6.673   1.433
 2530SOL    HW219622   0.662   6.553   1.543
 2531SOL     OW19623   2.749   3.879   1.414
 2531SOL    HW119624   2.739   3.788   1.454
 2531SOL    HW219625   2.775   3.945   1.485
 2532SOL     OW19626   1.636   5.428   0.818
 2532SOL    HW119627   1.642   5.523   0.849
 2532SOL    HW219628   1.719   5.405   0.767
 2533SOL     OW19629   0.158   6.527   0.686
 2533SOL    HW119630   0.071   6.531   0.735
 2533SOL    HW219631   0.146   6.562   0.593
 2534SOL     OW19632   8.084   4.118   6.936
 2534SOL    HW119633   8.173   4.080   6.913
 2534SOL    HW219634   8.012   4.053   6.910
 2535SOL     OW19635   6.170   6.718   0.591
 2535SOL    HW119636   6.199   6.760   0.676
 2535SOL    HW219637   6.245   6.717   0.526
 2536SOL     OW19638   1.866   2.826   6.836
 2536SOL    HW119639   1.964   2.835   6.854
 2536SOL    HW219640   1.834   2.908   6.787
 2537SOL     OW19641   6.820   5.439   5.551
 2537SOL    HW119642   6.745   5.489   5.593
 2537SOL    HW219643   6.905   5.458   5.601
 2538SOL     OW19644   8.384   6.561   6.796
 2538SOL    HW119645   8.307   6.606   6.751
 2538SOL    HW219646   8.382   6.463   6.777
 2539SOL     OW19647   4.231   6.764   1.892
 2539SOL    HW119648   4.177   6.846   1.913
 2539SOL    HW219649   4.206   6.730   1.802
 2540SOL     OW19650   6.322   5.021   6.584
 2540SOL    HW119651   6.408   4.972   6.567
 2540SOL    HW219652   6.289   5.061   6.498
 2541SOL     OW19653   6.988   0.227   6.641
 2541SOL    HW119654   6.951   0.283   6.566
 2541SOL    HW219655   6.973   0.273   6.728
 2542SOL     OW19656   9.383   5.093   6.255
 2542SOL    HW119657   9.295   5.054   6.284
 2542SOL    HW219658   9.457   5.048   6.303
 2543SOL     OW19659   9.407   1.384   1.494
 2543SOL    HW119660   9.315   1.423   1.498
 2543SOL    HW219661   9.450   1.391   1.584
 2544SOL     OW19662   5.017   2.433   0.856
 2544SOL    HW119663   4.956   2.355   0.871
 2544SOL    HW219664   4.963   2.513   0.829
 2545SOL     OW19665   9.115   2.586   6.100
 2545SOL    HW119666   9.079   2.652   6.035
 2545SOL    HW219667   9.145   2.504   6.052
 2546SOL     OW19668   1.436   5.756   6.414
 2546SOL    HW119669   1.389   5.708   6.339
 2546SOL    HW219670   1.535   5.746   6.402
 2547SOL     OW19671   2.785   1.840   1.200
 2547SOL    HW119672   2.816   1.903   1.129
 2547SOL    HW219673   2.701   1.795   1.170
 2548SOL     OW19674   6.921   0.323   6.905
 2548SOL    HW119675   6.996   0.286   6.960
 2548SOL    HW219676   6.848   0.255   6.897
 2549SOL     OW19677   7.698   6.466   5.129
 2549SOL    HW119678   7.730   6.544   5.075
 2549SOL    HW219679   7.770   6.398   5.137
 2550SOL     OW19680   4.507   6.700   5.781
 2550SOL    HW119681   4.436   6.631   5.795
 2550SOL    HW219682   4.477   6.764   5.710
 2551SOL     OW19683   5.016   2.579   6.526
 2551SOL    HW119684   5.000   2.633   6.609
 2551SOL    HW219685   4.992   2.484   6.543
 2552SOL     OW19686   7.548   5.682   6.067
 2552SOL    HW119687   7.558   5.583   6.081
 2552SOL    HW219688   7.496   5.721   6.143
 2553SOL     OW19689   7.356   0.875   6.038
 2553SOL    HW119690   7.441   0.902   5.993
 2553SOL    HW219691   7.280   0.888   5.974
 2554SOL     OW19692   1.784   3.693   5.493
 2554SOL    HW119693   1.804   3.736   5.405
 2554SOL    HW219694   1.858   3.629   5.517
 2555SOL     OW19695   5.578   3.617   6.828
 2555SOL    HW119696   5.572   3.534   6.773
 2555SOL    HW219697   5.553   3.597   6.923
 2556SOL     OW19698   9.159   1.692   6.593
 2556SOL    HW119699   9.243   1.719   6.640
 2556SOL    HW219700   9.146   1.593   6.601
 2557SOL     OW19701   0.237   4.699   5.785
 2557SOL    HW119702   0.297   4.651   5.721
 2557SOL    HW219703   0.162   4.742   5.734
 2558SOL     OW19704   4.527   6.534   6.799
 2558SOL    HW119705   4.570   6.447   6.823
 2558SOL    HW219706   4.572   6.572   6.718
 2559SOL     OW19707   6.479   2.573   5.594
 2559SOL    HW119708   6.445   2.646   5.653
 2559SOL    HW219709   6.565   2.601   5.552
 2560SOL     OW19710   2.110   3.004   6.150
 2560SOL    HW119711   2.050   3.072   6.108
 2560SOL    HW219712   2.143   3.038   6.238
 2561SOL     OW19713   2.457   0.781   1.061
 2561SOL    HW119714   2.423   0.844   0.991
 2561SOL    HW219715   2.474   0.832   1.146
 2562SOL     OW19716   8.188   3.596   1.680
 2562SOL    HW119717   8.163   3.645   1.763
 2562SOL    HW219718   8.260   3.530   1.700
 2563SOL     OW19719   0.872   8.351   1.806
 2563SOL    HW119720   0.904   8.362   1.901
 2563SOL    HW219721   0.788   8.297   1.806
 2564SOL     OW19722   4.199   1.443   5.774
 2564SOL    HW119723   4.267   1.509   5.808
 2564SOL    HW219724   4.179   1.464   5.678
 2565SOL     OW19725   8.544   6.210   1.367
 2565SOL    HW119726   8.623   6.153   1.346
 2565SOL    HW219727   8.557   6.253   1.456
 2566SOL     OW19728   5.550   1.266   6.505
 2566SOL    HW119729   5.598   1.180   6.487
 2566SOL    HW219730   5.454   1.246   6.525
 2567SOL     OW19731   1.837   1.585   6.848
 2567SOL    HW119732   1.756   1.631   6.811
 2567SOL    HW219733   1.872   1.636   6.927
 2568SOL     OW19734   3.538   7.978   1.338
 2568SOL    HW119735   3.449   7.989   1.293
 2568SOL    HW219736   3.524   7.970   1.437
 2569SOL     OW19737   5.016   0.715   6.665
 2569SOL    HW119738   4.995   0.646   6.735
 2569SOL    HW219739   5.031   0.670   6.577
 2570SOL     OW19740   1.036   8.349   1.572
 2570SOL    HW119741   1.129   8.383   1.590
 2570SOL    HW219742   0.973   8.384   1.641
 2571SOL     OW19743   2.920   2.658   6.967
 2571SOL    HW119744   2.877   2.584   7.019
 2571SOL    HW219745   3.015   2.669   6.997
 2572SOL     OW19746   5.585   6.840   1.579
 2572SOL    HW119747   5.673   6.795   1.595
 2572SOL    HW219748   5.519   6.774   1.545
 2573SOL     OW19749   2.217   7.002   6.618
 2573SOL    HW119750   2.184   6.910   6.596
 2573SOL    HW219751   2.193   7.024   6.713
 2574SOL     OW19752   0.858   2.622   1.248
 2574SOL    HW119753   0.906   2.710   1.251
 2574SOL    HW219754   0.761   2.637   1.266
 2575SOL     OW19755   1.499   5.939   5.906
 2575SOL    HW119756   1.449   5.975   5.984
 2575SOL    HW219757   1.546   5.854   5.933
 2576SOL     OW19758   6.601   6.832   1.087
 2576SOL    HW119759   6.577   6.927   1.106
 2576SOL    HW219760   6.559   6.803   1.001
 2577SOL     OW19761   2.049   5.659   1.166
 2577SOL    HW119762   2.008   5.726   1.104
 2577SOL    HW219763   2.016   5.568   1.143
 2578SOL     OW19764   4.883   4.702   1.353
 2578SOL    HW119765   4.973   4.660   1.359
 2578SOL    HW219766   4.845   4.712   1.445
 2579SOL     OW19767   9.538   7.615   1.037
 2579SOL    HW119768   9.600   7.629   1.114
 2579SOL    HW219769   9.494   7.526   1.046
 2580SOL     OW19770   1.850   7.184   5.223
 2580SOL    HW119771   1.859   7.273   5.178
 2580SOL    HW219772   1.895   7.114   5.167
 2581SOL     OW19773   6.332   3.183   0.907
 2581SOL    HW119774   6.288   3.227   0.985
 2581SOL    HW219775   6.422   3.150   0.933
 2582SOL     OW19776   3.472   8.247   0.616
 2582SOL    HW119777   3.499   8.267   0.521
 2582SOL    HW219778   3.393   8.302   0.640
 2583SOL     OW19779   2.130   1.563   0.539
 2583SOL    HW119780   2.220   1.540   0.577
 2583SOL    HW219781   2.063   1.565   0.613
 2584SOL     OW19782   3.790   5.457   2.055
 2584SOL    HW119783   3.769   5.554   2.065
 2584SOL    HW219784   3.762   5.408   2.137
 2585SOL     OW19785   7.809   5.994   6.042
 2585SOL    HW119786   7.836   5.916   5.987
 2585SOL    HW219787   7.713   5.985   6.068
 2586SOL     OW19788   5.324   6.795   1.760
 2586SOL    HW119789   5.356   6.855   1.686
 2586SOL    HW219790   5.326   6.845   1.847
 2587SOL     OW19791   5.160   7.999   1.450
 2587SOL    HW119792   5.143   7.973   1.355
 2587SOL    HW219793   5.079   8.042   1.488
 2588SOL     OW19794   8.975   4.620   6.578
 2588SOL    HW119795   8.987   4.713   6.543
 2588SOL    HW219796   9.064   4.582   6.603
 2589SOL     OW19797   1.890   6.638   6.260
 2589SOL    HW119798   1.839   6.707   6.208
 2589SOL    HW219799   1.984   6.669   6.271
 2590SOL     OW19800   5.097   4.794   6.300
 2590SOL    HW119801   5.139   4.873   6.255
 2590SOL    HW219802   5.012   4.770   6.253
 2591SOL     OW19803   4.015   1.167   6.705
 2591SOL    HW119804   4.021   1.199   6.799
 2591SOL    HW219805   3.972   1.238   6.648
 2592SOL     OW19806   5.876   7.985   1.406
 2592SOL    HW119807   5.786   7.962   1.443
 2592SOL    HW219808   5.868   8.063   1.344
 2593SOL     OW19809   1.241   0.539   5.732
 2593SOL    HW119810   1.305   0.474   5.772
 2593SOL    HW219811   1.225   0.516   5.636
 2594SOL     OW19812   0.565   5.360   0.608
 2594SOL    HW119813   0.631   5.300   0.654
 2594SOL    HW219814   0.565   5.450   0.650
 2595SOL     OW19815   4.125   1.654   1.454
 2595SOL    HW119816   4.185   1.578   1.426
 2595SOL    HW219817   4.068   1.681   1.377
 2596SOL     OW19818   1.855   5.533   5.618
 2596SOL    HW119819   1.839   5.435   5.626
 2596SOL    HW219820   1.932   5.548   5.555
 2597SOL     OW19821   7.616   7.588   5.788
 2597SOL    HW119822   7.615   7.495   5.823
 2597SOL    HW219823   7.620   7.586   5.688
 2598SOL     OW19824   5.037   0.008   4.944
 2598SOL    HW119825   5.018  -0.073   4.889
 2598SOL    HW219826   4.983   0.004   5.028
 2599SOL     OW19827   0.853   5.233   6.466
 2599SOL    HW119828   0.928   5.169   6.486
 2599SOL    HW219829   0.777   5.182   6.425
 2600SOL     OW19830   5.616   6.704   1.081
 2600SOL    HW119831   5.597   6.780   1.019
 2600SOL    HW219832   5.533   6.650   1.094
 2601SOL     OW19833   2.429   3.941   0.767
 2601SOL    HW119834   2.399   4.037   0.775
 2601SOL    HW219835   2.357   3.881   0.802
 2602SOL     OW19836   5.684   2.762   6.666
 2602SOL    HW119837   5.699   2.665   6.649
 2602SOL    HW219838   5.653   2.806   6.581
 2603SOL     OW19839   1.230   0.383   0.884
 2603SOL    HW119840   1.240   0.477   0.917
 2603SOL    HW219841   1.162   0.380   0.811
 2604SOL     OW19842   5.001   7.580   5.745
 2604SOL    HW119843   5.042   7.608   5.832
 2604SOL    HW219844   5.051   7.502   5.707
 2605SOL     OW19845   3.798   0.721   5.547
 2605SOL    HW119846   3.851   0.804   5.529
 2605SOL    HW219847   3.703   0.747   5.564
 2606SOL     OW19848   8.031   4.807   5.956
 2606SOL    HW119849   8.088   4.735   5.994
 2606SOL    HW219850   8.037   4.805   5.856
 2607SOL     OW19851   8.117   1.158   1.148
 2607SOL    HW119852   8.087   1.156   1.053
 2607SOL    HW219853   8.037   1.157   1.208
 2608SOL     OW19854   6.843   2.470   6.840
 2608SOL    HW119855   6.755   2.512   6.860
 2608SOL    HW219856   6.840   2.374   6.867
 2609SOL     OW19857   6.978   3.128   0.321
 2609SOL    HW119858   6.895   3.184   0.320
 2609SOL    HW219859   7.025   3.140   0.408
 2610SOL     OW19860   6.100   1.837   6.580
 2610SOL    HW119861   6.116   1.756   6.524
 2610SOL    HW219862   6.177   1.899   6.572
 2611SOL     OW19863   6.266   7.981   5.353
 2611SOL    HW119864   6.181   7.996   5.404
 2611SOL    HW219865   6.249   7.918   5.277
 2612SOL     OW19866   2.062   0.630   5.903
 2612SOL    HW119867   2.101   0.671   5.820
 2612SOL    HW219868   2.109   0.667   5.983
 2613SOL     OW19869   5.930   5.931   1.346
 2613SOL    HW119870   5.951   5.973   1.434
 2613SOL    HW219871   5.961   5.836   1.346
 2614SOL     OW19872   0.502   1.159   0.906
 2614SOL    HW119873   0.493   1.241   0.962
 2614SOL    HW219874   0.523   1.184   0.812
 2615SOL     OW19875   4.400   1.203   1.287
 2615SOL    HW119876   4.455   1.120   1.293
 2615SOL    HW219877   4.344   1.200   1.205
 2616SOL     OW19878   5.984   7.457   1.254
 2616SOL    HW119879   5.968   7.444   1.156
 2616SOL    HW219880   6.024   7.547   1.270
 2617SOL     OW19881   8.134   3.135   6.931
 2617SOL    HW119882   8.148   3.152   7.029
 2617SOL    HW219883   8.040   3.157   6.907
 2618SOL     OW19884   0.171   1.990   0.379
 2618SOL    HW119885   0.127   1.926   0.317
 2618SOL    HW219886   0.118   1.995   0.464
 2619SOL     OW19887   3.839   6.305   0.331
 2619SOL    HW119888   3.826   6.216   0.375
 2619SOL    HW219889   3.834   6.377   0.400
 2620SOL     OW19890   7.384   2.131   6.411
 2620SOL    HW119891   7.390   2.099   6.317
 2620SOL    HW219892   7.291   2.119   6.444
 2621SOL     OW19893   7.065   0.233   0.808
 2621SOL    HW119894   7.002   0.283   0.749
 2621SOL    HW219895   7.102   0.154   0.758
 2622SOL     OW19896   8.608   8.180   6.736
 2622SOL    HW119897   8.613   8.132   6.648
 2622SOL    HW219898   8.528   8.239   6.737
 2623SOL     OW19899   8.815   7.277   5.899
 2623SOL    HW119900   8.908   7.289   5.935
 2623SOL    HW219901   8.793   7.180   5.895
 2624SOL     OW19902   2.162   4.481   6.974
 2624SOL    HW119903   2.150   4.534   6.889
 2624SOL    HW219904   2.258   4.482   7.001
 2625SOL     OW19905   7.885   0.839   6.982
 2625SOL    HW119906   7.940   0.900   6.925
 2625SOL    HW219907   7.795   0.827   6.941
 2626SOL     OW19908   2.455   3.433   6.426
 2626SOL    HW119909   2.473   3.335   6.421
 2626SOL    HW219910   2.542   3.482   6.434
 2627SOL     OW19911   7.715   3.614   0.527
 2627SOL    HW119912   7.688   3.710   0.536
 2627SOL    HW219913   7.639   3.561   0.488
 2628SOL     OW19914   5.431   3.307   6.188
 2628SOL    HW119915   5.499   3.378   6.206
 2628SOL    HW219916   5.403   3.265   6.274
 2629SOL     OW19917   6.547   6.443   0.506
 2629SOL    HW119918   6.560   6.352   0.546
 2629SOL    HW219919   6.593   6.511   0.564
 2630SOL     OW19920   0.814   6.432   6.202
 2630SOL    HW119921   0.805   6.436   6.302
 2630SOL    HW219922   0.723   6.419   6.162
 2631SOL     OW19923   7.069   4.435   1.199
 2631SOL    HW119924   7.149   4.453   1.257
 2631SOL    HW219925   7.056   4.512   1.137
 2632SOL     OW19926   4.088   6.988   5.661
 2632SOL    HW119927   3.992   7.017   5.658
 2632SOL    HW219928   4.124   6.982   5.568
 2633SOL     OW19929   4.700   4.941   0.948
 2633SOL    HW119930   4.721   4.851   0.985
 2633SOL    HW219931   4.687   5.006   1.023
 2634SOL     OW19932   7.926   1.116   0.637
 2634SOL    HW119933   7.871   1.048   0.590
 2634SOL    HW219934   7.914   1.205   0.593
 2635SOL     OW19935   5.072   0.703   0.353
 2635SOL    HW119936   5.094   0.610   0.385
 2635SOL    HW219937   5.021   0.751   0.424
 2636SOL     OW19938   2.730   0.532   1.862
 2636SOL    HW119939   2.703   0.440   1.833
 2636SOL    HW219940   2.829   0.543   1.852
 2637SOL     OW19941   0.376   6.097   5.072
 2637SOL    HW119942   0.458   6.112   5.017
 2637SOL    HW219943   0.400   6.092   5.168
 2638SOL     OW19944   1.190   4.891   6.409
 2638SOL    HW119945   1.108   4.845   6.374
 2638SOL    HW219946   1.246   4.825   6.458
 2639SOL     OW19947   0.448   2.940   6.893
 2639SOL    HW119948   0.475   2.948   6.797
 2639SOL    HW219949   0.441   3.031   6.933
 2640SOL     OW19950   1.281   6.379   5.131
 2640SOL    HW119951   1.255   6.426   5.047
 2640SOL    HW219952   1.372   6.410   5.159
 2641SOL     OW19953   6.458   2.291   5.649
 2641SOL    HW119954   6.475   2.380   5.606
 2641SOL    HW219955   6.539   2.233   5.639
 2642SOL     OW19956   3.795   0.200   6.269
 2642SOL    HW119957   3.822   0.271   6.334
 2642SOL    HW219958   3.870   0.184   6.205
 2643SOL     OW19959   7.489   8.168   5.441
 2643SOL    HW119960   7.548   8.095   5.408
 2643SOL    HW219961   7.504   8.181   5.539
 2644SOL     OW19962   8.906   4.033   0.905
 2644SOL    HW119963   8.897   3.978   0.988
 2644SOL    HW219964   8.829   4.014   0.844
 2645SOL     OW19965   1.620   5.687   4.862
 2645SOL    HW119966   1.586   5.730   4.778
 2645SOL    HW219967   1.598   5.589   4.861
 2646SOL     OW19968   9.477   8.047   5.598
 2646SOL    HW119969   9.497   8.140   5.630
 2646SOL    HW219970   9.426   8.052   5.512
 2647SOL     OW19971   3.296   2.956   5.816
 2647SOL    HW119972   3.199   2.963   5.839
 2647SOL    HW219973   3.323   3.035   5.760
 2648SOL     OW19974   7.784   6.835   5.910
 2648SOL    HW119975   7.764   6.897   5.834
 2648SOL    HW219976   7.879   6.847   5.940
 2649SOL     OW19977   4.212   3.303   1.605
 2649SOL    HW119978   4.125   3.254   1.606
 2649SOL    HW219979   4.214   3.370   1.679
 2650SOL     OW19980   6.231   7.204   0.556
 2650SOL    HW119981   6.306   7.138   0.560
 2650SOL    HW219982   6.167   7.187   0.630
 2651SOL     OW19983   8.860   5.280   1.522
 2651SOL    HW119984   8.773   5.249   1.482
 2651SOL    HW219985   8.841   5.349   1.592
 2652SOL     OW19986   1.656   8.196   6.884
 2652SOL    HW119987   1.575   8.224   6.937
 2652SOL    HW219988   1.650   8.233   6.792
 2653SOL     OW19989   5.338   4.812   1.881
 2653SOL    HW119990   5.272   4.775   1.817
 2653SOL    HW219991   5.306   4.797   1.975
 2654SOL     OW19992   2.311   7.121   1.748
 2654SOL    HW119993   2.305   7.179   1.667
 2654SOL    HW219994   2.290   7.175   1.830
 2655SOL     OW19995   4.947   6.578   6.572
 2655SOL    HW119996   5.032   6.526   6.585
 2655SOL    HW219997   4.960   6.671   6.607
 2656SOL     OW19998   9.210   7.384   1.065
 2656SOL    HW119999   9.231   7.359   0.971
 2656SOL    HW220000   9.258   7.322   1.127
 2657SOL     OW20001   8.954   6.996   4.844
 2657SOL    HW120002   8.971   6.913   4.790
 2657SOL    HW220003   8.941   7.073   4.782
 2658SOL     OW20004   6.706   8.368   1.894
 2658SOL    HW120005   6.659   8.348   1.979
 2658SOL    HW220006   6.743   8.460   1.897
 2659SOL     OW20007   1.568   2.025   6.146
 2659SOL    HW120008   1.564   1.931   6.182
 2659SOL    HW220009   1.582   2.089   6.222
 2660SOL     OW20010   8.555   0.232   6.037
 2660SOL    HW120011   8.563   0.220   6.136
 2660SOL    HW220012   8.459   0.252   6.014
 2661SOL     OW20013   3.293   2.363   6.644
 2661SOL    HW120014   3.333   2.275   6.669
 2661SOL    HW220015   3.193   2.355   6.641
 2662SOL     OW20016   3.341   7.963   5.555
 2662SOL    HW120017   3.294   8.024   5.491
 2662SOL    HW220018   3.436   7.992   5.565
 2663SOL     OW20019   4.032   1.254   5.441
 2663SOL    HW120020   4.021   1.216   5.349
 2663SOL    HW220021   4.084   1.190   5.498
 2664SOL     OW20022   9.271   6.273   6.473
 2664SOL    HW120023   9.225   6.216   6.406
 2664SOL    HW220024   9.211   6.288   6.552
 2665SOL     OW20025   8.888   3.093   5.890
 2665SOL    HW120026   8.896   3.176   5.944
 2665SOL    HW220027   8.818   3.106   5.820
 2666SOL     OW20028   3.874   6.885   0.893
 2666SOL    HW120029   3.924   6.929   0.967
 2666SOL    HW220030   3.851   6.791   0.919
 2667SOL     OW20031   9.329   6.116   5.813
 2667SOL    HW120032   9.367   6.074   5.730
 2667SOL    HW220033   9.241   6.158   5.791
 2668SOL     OW20034   1.024   6.435   6.499
 2668SOL    HW120035   0.928   6.416   6.519
 2668SOL    HW220036   1.034   6.530   6.469
 2669SOL     OW20037   8.392   1.089   1.666
 2669SOL    HW120038   8.437   1.011   1.622
 2669SOL    HW220039   8.440   1.112   1.750
 2670SOL     OW20040   7.787   2.202   0.297
 2670SOL    HW120041   7.876   2.157   0.284
 2670SOL    HW220042   7.715   2.144   0.258
 2671SOL     OW20043   1.482   8.152   5.725
 2671SOL    HW120044   1.400   8.113   5.767
 2671SOL    HW220045   1.554   8.161   5.794
 2672SOL     OW20046   3.165   0.359   1.356
 2672SOL    HW120047   3.097   0.424   1.321
 2672SOL    HW220048   3.203   0.394   1.442
 2673SOL     OW20049   9.503   0.815   6.226
 2673SOL    HW120050   9.561   0.889   6.191
 2673SOL    HW220051   9.535   0.789   6.317
 2674SOL     OW20052   4.516   8.027   0.623
 2674SOL    HW120053   4.571   8.108   0.602
 2674SOL    HW220054   4.478   8.036   0.715
 2675SOL     OW20055   1.597   2.358   6.998
 2675SOL    HW120056   1.499   2.368   7.015
 2675SOL    HW220057   1.631   2.442   6.956
 2676SOL     OW20058   4.296   7.870   5.795
 2676SOL    HW120059   4.359   7.906   5.863
 2676SOL    HW220060   4.346   7.819   5.726
 2677SOL     OW20061   7.978   5.782   6.571
 2677SOL    HW120062   7.943   5.739   6.655
 2677SOL    HW220063   7.963   5.721   6.494
 2678SOL     OW20064   7.528   5.617   1.142
 2678SOL    HW120065   7.535   5.520   1.121
 2678SOL    HW220066   7.554   5.633   1.237
 2679SOL     OW20067   5.913   4.165   1.252
 2679SOL    HW120068   5.823   4.131   1.277
 2679SOL    HW220069   5.983   4.115   1.303
 2680SOL     OW20070   5.162   1.783   6.657
 2680SOL    HW120071   5.235   1.717   6.638
 2680SOL    HW220072   5.202   1.864   6.700
 2681SOL     OW20073   3.076   5.111   1.404
 2681SOL    HW120074   3.155   5.070   1.448
 2681SOL    HW220075   3.034   5.178   1.466
 2682SOL     OW20076   4.264   8.271   6.835
 2682SOL    HW120077   4.321   8.227   6.766
 2682SOL    HW220078   4.282   8.370   6.834
 2683SOL     OW20079   3.262   8.272   5.464
 2683SOL    HW120080   3.273   8.345   5.397
 2683SOL    HW220081   3.224   8.191   5.419
 2684SOL     OW20082   3.191   0.416   6.532
 2684SOL    HW120083   3.264   0.349   6.534
 2684SOL    HW220084   3.187   0.464   6.620
 2685SOL     OW20085   8.378   1.549   6.117
 2685SOL    HW120086   8.316   1.478   6.085
 2685SOL    HW220087   8.472   1.516   6.116
 2686SOL     OW20088   2.830   1.841   6.835
 2686SOL    HW120089   2.883   1.771   6.787
 2686SOL    HW220090   2.733   1.827   6.819
 2687SOL     OW20091   2.191   8.196   6.675
 2687SOL    HW120092   2.196   8.097   6.689
 2687SOL    HW220093   2.148   8.238   6.755
 2688SOL     OW20094   8.739   4.781   0.885
 2688SOL    HW120095   8.827   4.828   0.881
 2688SOL    HW220096   8.735   4.727   0.969
 2689SOL     OW20097   8.542   4.791   0.699
 2689SOL    HW120098   8.486   4.709   0.690
 2689SOL    HW220099   8.608   4.779   0.773
 2690SOL     OW20100   4.180   5.954   2.381
 2690SOL    HW120101   4.149   5.859   2.384
 2690SOL    HW220102   4.196   5.987   2.474
 2691SOL     OW20103   2.461   8.222   5.941
 2691SOL    HW120104   2.560   8.218   5.940
 2691SOL    HW220105   2.428   8.265   5.857
 2692SOL     OW20106   8.609   3.085   0.317
 2692SOL    HW120107   8.662   3.164   0.285
 2692SOL    HW220108   8.515   3.093   0.286
 2693SOL     OW20109   1.899   7.590   6.709
 2693SOL    HW120110   1.844   7.672   6.725
 2693SOL    HW220111   1.944   7.563   6.794
 2694SOL     OW20112   6.488   2.713   5.833
 2694SOL    HW120113   6.440   2.631   5.865
 2694SOL    HW220114   6.572   2.725   5.885
 2695SOL     OW20115   7.944   2.389   5.857
 2695SOL    HW120116   8.026   2.414   5.909
 2695SOL    HW220117   7.964   2.390   5.760
 2696SOL     OW20118   3.036   7.432   0.579
 2696SOL    HW120119   3.063   7.403   0.671
 2696SOL    HW220120   3.010   7.352   0.526
 2697SOL     OW20121   5.184   4.469   0.947
 2697SOL    HW120122   5.279   4.478   0.915
 2697SOL    HW220123   5.143   4.560   0.955
 2698SOL     OW20124   7.768   4.097   0.564
 2698SOL    HW120125   7.724   4.144   0.488
 2698SOL    HW220126   7.857   4.139   0.583
 2699SOL     OW20127   5.793   1.597   0.292
 2699SOL    HW120128   5.719   1.624   0.353
 2699SOL    HW220129   5.759   1.591   0.198
 2700SOL     OW20130   4.640   6.986   5.207
 2700SOL    HW120131   4.696   7.067   5.225
 2700SOL    HW220132   4.552   7.014   5.171
 2701SOL     OW20133   3.092   1.383   0.907
 2701SOL    HW120134   3.172   1.347   0.957
 2701SOL    HW220135   3.042   1.446   0.966
 2702SOL     OW20136   0.865   1.115   4.977
 2702SOL    HW120137   0.783   1.160   4.940
 2702SOL    HW220138   0.938   1.182   4.989
 2703SOL     OW20139   1.931   7.269   1.360
 2703SOL    HW120140   1.998   7.278   1.433
 2703SOL    HW220141   1.840   7.259   1.400
 2704SOL     OW20142   5.211   5.951   5.925
 2704SOL    HW120143   5.111   5.957   5.934
 2704SOL    HW220144   5.237   5.971   5.830
 2705SOL     OW20145   2.920   0.371   0.888
 2705SOL    HW120146   2.919   0.271   0.882
 2705SOL    HW220147   2.862   0.400   0.965
 2706SOL     OW20148   7.939   0.618   1.140
 2706SOL    HW120149   7.867   0.551   1.162
 2706SOL    HW220150   7.909   0.709   1.167
 2707SOL     OW20151   1.144   8.307   6.703
 2707SOL    HW120152   1.129   8.245   6.780
 2707SOL    HW220153   1.167   8.398   6.738
 2708SOL     OW20154   2.953   6.048   1.103
 2708SOL    HW120155   2.995   6.020   1.016
 2708SOL    HW220156   2.914   5.967   1.148
 2709SOL     OW20157   2.160   4.924   1.346
 2709SOL    HW120158   2.251   4.918   1.306
 2709SOL    HW220159   2.092   4.925   1.272
 2710SOL     OW20160   9.247   7.727   6.858
 2710SOL    HW120161   9.182   7.751   6.786
 2710SOL    HW220162   9.315   7.799   6.867
 2711SOL     OW20163   7.677   2.612   6.906
 2711SOL    HW120164   7.727   2.696   6.882
 2711SOL    HW220165   7.636   2.622   6.996
 2712SOL     OW20166   1.108   7.136   0.327
 2712SOL    HW120167   1.027   7.094   0.369
 2712SOL    HW220168   1.190   7.095   0.367
 2713SOL     OW20169   2.095   2.506   6.050
 2713SOL    HW120170   2.108   2.577   6.119
 2713SOL    HW220171   2.001   2.510   6.015
 2714SOL     OW20172   3.198   1.703   6.455
 2714SOL    HW120173   3.173   1.691   6.551
 2714SOL    HW220174   3.115   1.702   6.399
 2715SOL     OW20175   7.986   1.792   0.567
 2715SOL    HW120176   8.026   1.731   0.636
 2715SOL    HW220177   8.008   1.886   0.590
 2716SOL     OW20178   7.081   3.696   1.019
 2716SOL    HW120179   7.051   3.724   0.928
 2716SOL    HW220180   7.170   3.737   1.039
 2717SOL     OW20181   9.316   0.841   1.284
 2717SOL    HW120182   9.359   0.829   1.373
 2717SOL    HW220183   9.219   0.861   1.297
 2718SOL     OW20184   5.336   5.992   1.668
 2718SOL    HW120185   5.335   5.900   1.708
 2718SOL    HW220186   5.286   6.055   1.726
 2719SOL     OW20187   5.497   4.153   0.857
 2719SOL    HW120188   5.545   4.075   0.817
 2719SOL    HW220189   5.420   4.178   0.799
 2720SOL     OW20190   2.972   5.964   5.817
 2720SOL    HW120191   3.020   5.951   5.730
 2720SOL    HW220192   2.997   5.890   5.879
 2721SOL     OW20193   3.609   8.044   6.980
 2721SOL    HW120194   3.532   8.095   6.942
 2721SOL    HW220195   3.643   7.979   6.911
 2722SOL     OW20196   1.269   4.301   0.762
 2722SOL    HW120197   1.183   4.270   0.802
 2722SOL    HW220198   1.256   4.390   0.718
 2723SOL     OW20199   0.310   5.920   6.688
 2723SOL    HW120200   0.293   5.824   6.666
 2723SOL    HW220201   0.408   5.934   6.700
 2724SOL     OW20202   6.855   0.138   0.606
 2724SOL    HW120203   6.889   0.088   0.527
 2724SOL    HW220204   6.765   0.103   0.631
 2725SOL     OW20205   8.220   3.353   1.864
 2725SOL    HW120206   8.145   3.350   1.930
 2725SOL    HW220207   8.300   3.396   1.905
 2726SOL     OW20208   3.283   1.009   2.084
 2726SOL    HW120209   3.368   1.028   2.134
 2726SOL    HW220210   3.272   1.076   2.011
 2727SOL     OW20211   9.561   3.433   0.963
 2727SOL    HW120212   9.528   3.489   0.887
 2727SOL    HW220213   9.499   3.444   1.041
 2728SOL     OW20214   5.604   2.470   0.755
 2728SOL    HW120215   5.536   2.542   0.752
 2728SOL    HW220216   5.578   2.397   0.690
 2729SOL     OW20217   5.894   2.406   6.506
 2729SOL    HW120218   5.897   2.419   6.407
 2729SOL    HW220219   5.925   2.313   6.528
 2730SOL     OW20220   8.981   4.288   0.857
 2730SOL    HW120221   9.077   4.281   0.830
 2730SOL    HW220222   8.943   4.196   0.870
 2731SOL     OW20223   6.193   5.164   6.989
 2731SOL    HW120224   6.195   5.074   7.032
 2731SOL    HW220225   6.100   5.201   6.992
 2732SOL     OW20226   4.255   0.278   5.495
 2732SOL    HW120227   4.254   0.225   5.580
 2732SOL    HW220228   4.209   0.226   5.423
 2733SOL     OW20229   1.022   3.972   6.774
 2733SOL    HW120230   0.934   3.929   6.794
 2733SOL    HW220231   1.007   4.064   6.738
 2734SOL     OW20232   7.446   7.425   6.891
 2734SOL    HW120233   7.372   7.442   6.826
 2734SOL    HW220234   7.502   7.350   6.858
 2735SOL     OW20235   1.805   0.835   5.467
 2735SOL    HW120236   1.850   0.829   5.378
 2735SOL    HW220237   1.770   0.928   5.480
 2736SOL     OW20238   0.505   4.783   6.915
 2736SOL    HW120239   0.574   4.852   6.940
 2736SOL    HW220240   0.550   4.695   6.901
 2737SOL     OW20241   3.423   7.185   1.118
 2737SOL    HW120242   3.462   7.124   1.049
 2737SOL    HW220243   3.329   7.208   1.094
 2738SOL     OW20244   1.110   7.995   6.667
 2738SOL    HW120245   1.197   7.949   6.648
 2738SOL    HW220246   1.110   8.027   6.762
 2739SOL     OW20247   9.577   2.539   5.946
 2739SOL    HW120248   9.542   2.622   5.902
 2739SOL    HW220249   9.542   2.534   6.040
 2740SOL     OW20250   4.222   7.745   6.385
 2740SOL    HW120251   4.295   7.782   6.328
 2740SOL    HW220252   4.261   7.694   6.461
 2741SOL     OW20253   1.972   0.771   1.007
 2741SOL    HW120254   2.031   0.781   0.927
 2741SOL    HW220255   1.877   0.762   0.977
 2742SOL     OW20256   9.147   6.818   5.853
 2742SOL    HW120257   9.195   6.738   5.889
 2742SOL    HW220258   9.201   6.900   5.870
 2743SOL     OW20259   8.937   7.408   1.106
 2743SOL    HW120260   8.938   7.416   1.206
 2743SOL    HW220261   9.030   7.418   1.071
 2744SOL     OW20262   6.889   4.724   6.651
 2744SOL    HW120263   6.805   4.777   6.658
 2744SOL    HW220264   6.914   4.714   6.554
 2745SOL     OW20265   4.737   7.003   0.610
 2745SOL    HW120266   4.781   7.092   0.619
 2745SOL    HW220267   4.651   7.003   0.662
 2746SOL     OW20268   0.427   7.290   0.790
 2746SOL    HW120269   0.465   7.225   0.723
 2746SOL    HW220270   0.402   7.240   0.873
 2747SOL     OW20271   9.280   5.838   5.305
 2747SOL    HW120272   9.206   5.779   5.273
 2747SOL    HW220273   9.354   5.781   5.340
 2748SOL     OW20274   8.270   3.304   0.553
 2748SOL    HW120275   8.265   3.358   0.469
 2748SOL    HW220276   8.233   3.212   0.536
 2749SOL     OW20277   2.283   6.391   5.344
 2749SOL    HW120278   2.264   6.480   5.303
 2749SOL    HW220279   2.381   6.372   5.339
 2750SOL     OW20280   9.080   4.548   0.908
 2750SOL    HW120281   9.100   4.584   0.816
 2750SOL    HW220282   9.042   4.456   0.900
 2751SOL     OW20283   7.769   6.565   6.912
 2751SOL    HW120284   7.718   6.598   6.992
 2751SOL    HW220285   7.834   6.495   6.942
 2752SOL     OW20286   7.070   0.861   1.612
 2752SOL    HW120287   7.128   0.942   1.617
 2752SOL    HW220288   7.126   0.779   1.627
 2753SOL     OW20289   1.521   2.038   6.775
 2753SOL    HW120290   1.497   2.043   6.678
 2753SOL    HW220291   1.472   1.961   6.817
 2754SOL     OW20292   2.340   1.401   1.037
 2754SOL    HW120293   2.357   1.344   0.957
 2754SOL    HW220294   2.425   1.447   1.064
 2755SOL     OW20295   4.242   7.266   0.488
 2755SOL    HW120296   4.247   7.224   0.397
 2755SOL    HW220297   4.314   7.334   0.497
 2756SOL     OW20298   6.345   4.376   1.000
 2756SOL    HW120299   6.280   4.365   1.075
 2756SOL    HW220300   6.311   4.446   0.936
 2757SOL     OW20301   5.058   6.645   5.181
 2757SOL    HW120302   4.982   6.700   5.146
 2757SOL    HW220303   5.144   6.679   5.143
 2758SOL     OW20304   6.370   2.564   6.640
 2758SOL    HW120305   6.305   2.634   6.672
 2758SOL    HW220306   6.453   2.609   6.607
 2759SOL     OW20307   5.549   0.878   5.865
 2759SOL    HW120308   5.620   0.811   5.888
 2759SOL    HW220309   5.541   0.885   5.766
 2760SOL     OW20310   9.416   2.659   1.471
 2760SOL    HW120311   9.459   2.579   1.430
 2760SOL    HW220312   9.487   2.720   1.508
 2761SOL     OW20313   8.984   3.283   6.052
 2761SOL    HW120314   8.976   3.382   6.063
 2761SOL    HW220315   8.965   3.238   6.139
 2762SOL     OW20316   4.978   3.739   1.403
 2762SOL    HW120317   5.033   3.818   1.430
 2762SOL    HW220318   4.881   3.764   1.404
 2763SOL     OW20319   6.315   0.631   6.314
 2763SOL    HW120320   6.258   0.550   6.328
 2763SOL    HW220321   6.257   0.710   6.299
 2764SOL     OW20322   5.370   6.406   1.691
 2764SOL    HW120323   5.310   6.385   1.614
 2764SOL    HW220324   5.418   6.323   1.719
 2765SOL     OW20325   2.660   0.898   0.810
 2765SOL    HW120326   2.561   0.914   0.817
 2765SOL    HW220327   2.675   0.811   0.763
 2766SOL     OW20328   2.919   1.291   6.027
 2766SOL    HW120329   2.963   1.208   5.993
 2766SOL    HW220330   2.844   1.267   6.089
 2767SOL     OW20331   8.282   6.224   0.964
 2767SOL    HW120332   8.284   6.235   1.063
 2767SOL    HW220333   8.364   6.264   0.924
 2768SOL     OW20334   8.752   2.731   1.612
 2768SOL    HW120335   8.831   2.791   1.605
 2768SOL    HW220336   8.705   2.747   1.699
 2769SOL     OW20337   4.924   7.640   6.565
 2769SOL    HW120338   4.875   7.553   6.568
 2769SOL    HW220339   5.016   7.625   6.530
 2770SOL     OW20340   4.637   1.557   1.955
 2770SOL    HW120341   4.685   1.548   2.042
 2770SOL    HW220342   4.576   1.636   1.958
 2771SOL     OW20343   3.947   7.492   1.571
 2771SOL    HW120344   3.874   7.502   1.504
 2771SOL    HW220345   4.030   7.535   1.537
 2772SOL     OW20346   9.331   0.075   1.493
 2772SOL    HW120347   9.237   0.042   1.499
 2772SOL    HW220348   9.386   0.031   1.565
 2773SOL     OW20349   8.642   2.494   0.270
 2773SOL    HW120350   8.583   2.414   0.274
 2773SOL    HW220351   8.678   2.514   0.361
 2774SOL     OW20352   4.992   5.783   1.366
 2774SOL    HW120353   5.021   5.698   1.322
 2774SOL    HW220354   4.892   5.786   1.371
 2775SOL     OW20355   6.019   5.415   1.522
 2775SOL    HW120356   5.938   5.370   1.557
 2775SOL    HW220357   6.091   5.413   1.591
 2776SOL     OW20358   3.417   1.047   0.394
 2776SOL    HW120359   3.333   1.069   0.443
 2776SOL    HW220360   3.432   0.948   0.397
 2777SOL     OW20361   3.077   6.621   6.771
 2777SOL    HW120362   3.080   6.706   6.719
 2777SOL    HW220363   3.161   6.610   6.823
 2778SOL     OW20364   7.008   3.705   0.418
 2778SOL    HW120365   7.027   3.694   0.516
 2778SOL    HW220366   6.957   3.625   0.385
 2779SOL     OW20367   1.577   6.243   6.429
 2779SOL    HW120368   1.660   6.219   6.379
 2779SOL    HW220369   1.532   6.159   6.462
 2780SOL     OW20370   1.165   5.912   6.450
 2780SOL    HW120371   1.250   5.863   6.470
 2780SOL    HW220372   1.128   5.952   6.534
 2781SOL     OW20373   9.339   6.851   6.775
 2781SOL    HW120374   9.379   6.935   6.812
 2781SOL    HW220375   9.246   6.870   6.743
 2782SOL     OW20376   2.024   5.657   5.121
 2782SOL    HW120377   1.946   5.614   5.076
 2782SOL    HW220378   2.104   5.650   5.061
 2783SOL     OW20379   0.649   7.292   5.378
 2783SOL    HW120380   0.699   7.348   5.444
 2783SOL    HW220381   0.565   7.338   5.351
 2784SOL     OW20382   1.902   6.520   0.583
 2784SOL    HW120383   2.001   6.514   0.573
 2784SOL    HW220384   1.859   6.511   0.492
 2785SOL     OW20385   1.910   5.111   0.931
 2785SOL    HW120386   1.852   5.104   0.850
 2785SOL    HW220387   1.947   5.203   0.938
 2786SOL     OW20388   3.654   7.038   5.463
 2786SOL    HW120389   3.585   7.108   5.444
 2786SOL    HW220390   3.731   7.080   5.512
 2787SOL     OW20391   3.623   5.648   1.753
 2787SOL    HW120392   3.562   5.568   1.755
 2787SOL    HW220393   3.618   5.695   1.841
 2788SOL     OW20394   7.786   7.307   1.091
 2788SOL    HW120395   7.857   7.257   1.141
 2788SOL    HW220396   7.805   7.405   1.096
 2789SOL     OW20397   7.741   0.108   5.687
 2789SOL    HW120398   7.694   0.093   5.600
 2789SOL    HW220399   7.710   0.039   5.754
 2790SOL     OW20400   8.172   3.130   1.010
 2790SOL    HW120401   8.214   3.053   0.961
 2790SOL    HW220402   8.141   3.199   0.944
 2791SOL     OW20403   5.020   8.361   5.901
 2791SOL    HW120404   4.955   8.401   5.966
 2791SOL    HW220405   5.002   8.263   5.893
 2792SOL     OW20406   3.980   4.647   1.913
 2792SOL    HW120407   3.985   4.730   1.968
 2792SOL    HW220408   4.064   4.637   1.860
 2793SOL     OW20409   4.028   8.307   2.121
 2793SOL    HW120410   3.954   8.289   2.055
 2793SOL    HW220411   4.026   8.237   2.192
 2794SOL     OW20412   8.838   8.379   0.491
 2794SOL    HW120413   8.888   8.314   0.433
 2794SOL    HW220414   8.902   8.420   0.556
 2795SOL     OW20415   8.537   2.718   0.655
 2795SOL    HW120416   8.480   2.796   0.630
 2795SOL    HW220417   8.528   2.700   0.753
 2796SOL     OW20418   4.385   8.328   5.148
 2796SOL    HW120419   4.355   8.328   5.052
 2796SOL    HW220420   4.326   8.267   5.201
 2797SOL     OW20421   8.500   5.749   1.885
 2797SOL    HW120422   8.432   5.681   1.857
 2797SOL    HW220423   8.591   5.715   1.865
 2798SOL     OW20424   6.437   2.807   6.898
 2798SOL    HW120425   6.367   2.794   6.828
 2798SOL    HW220426   6.457   2.904   6.908
 2799SOL     OW20427   7.407   1.738   6.498
 2799SOL    HW120428   7.430   1.677   6.574
 2799SOL    HW220429   7.432   1.832   6.522
 2800SOL     OW20430   2.256   1.313   0.676
 2800SOL    HW120431   2.220   1.271   0.592
 2800SOL    HW220432   2.198   1.289   0.753
 2801SOL     OW20433   6.050   0.273   6.601
 2801SOL    HW120434   5.972   0.285   6.539
 2801SOL    HW220435   6.134   0.264   6.548
 2802SOL     OW20436   4.358   7.395   0.950
 2802SOL    HW120437   4.450   7.380   0.987
 2802SOL    HW220438   4.307   7.310   0.951
 2803SOL     OW20439   6.945   4.421   6.186
 2803SOL    HW120440   6.954   4.444   6.283
 2803SOL    HW220441   7.030   4.441   6.138
 2804SOL     OW20442   2.971   5.540   6.669
 2804SOL    HW120443   2.985   5.608   6.741
 2804SOL    HW220444   2.890   5.564   6.615
 2805SOL     OW20445   8.762   5.851   5.435
 2805SOL    HW120446   8.674   5.832   5.478
 2805SOL    HW220447   8.820   5.769   5.438
 2806SOL     OW20448   8.428   5.811   0.840
 2806SOL    HW120449   8.372   5.740   0.882
 2806SOL    HW220450   8.386   5.841   0.754
 2807SOL     OW20451   2.447   7.532   6.126
 2807SOL    HW120452   2.382   7.536   6.050
 2807SOL    HW220453   2.409   7.581   6.205
 2808SOL     OW20454   5.085   0.624   6.113
 2808SOL    HW120455   5.116   0.637   6.019
 2808SOL    HW220456   5.140   0.681   6.174
 2809SOL     OW20457   1.898   5.810   0.992
 2809SOL    HW120458   1.950   5.815   0.906
 2809SOL    HW220459   1.827   5.741   0.984
 2810SOL     OW20460   6.680   1.556   1.429
 2810SOL    HW120461   6.723   1.496   1.498
 2810SOL    HW220462   6.750   1.590   1.367
 2811SOL     OW20463   5.347   1.510   0.795
 2811SOL    HW120464   5.287   1.451   0.848
 2811SOL    HW220465   5.376   1.462   0.712
 2812SOL     OW20466   2.220   7.917   6.702
 2812SOL    HW120467   2.122   7.914   6.721
 2812SOL    HW220468   2.253   7.826   6.681
 2813SOL     OW20469   6.888   0.397   0.519
 2813SOL    HW120470   6.864   0.314   0.569
 2813SOL    HW220471   6.979   0.388   0.479
 2814SOL     OW20472   5.007   4.122   0.976
 2814SOL    HW120473   5.065   4.040   0.979
 2814SOL    HW220474   5.031   4.176   0.895
 2815SOL     OW20475   3.957   1.092   5.773
 2815SOL    HW120476   3.948   1.062   5.869
 2815SOL    HW220477   4.052   1.116   5.755
 2816SOL     OW20478   6.417   7.086   6.379
 2816SOL    HW120479   6.445   6.990   6.377
 2816SOL    HW220480   6.320   7.093   6.399
 2817SOL     OW20481   8.100   6.098   6.599
 2817SOL    HW120482   8.096   6.042   6.682
 2817SOL    HW220483   8.011   6.096   6.553
 2818SOL     OW20484   7.005   3.771   1.679
 2818SOL    HW120485   7.033   3.835   1.750
 2818SOL    HW220486   6.962   3.822   1.604
 2819SOL     OW20487   1.208   1.291   6.703
 2819SOL    HW120488   1.272   1.267   6.630
 2819SOL    HW220489   1.242   1.257   6.790
 2820SOL     OW20490   5.355   3.899   6.403
 2820SOL    HW120491   5.371   3.897   6.502
 2820SOL    HW220492   5.357   3.805   6.368
 2821SOL     OW20493   4.106   7.084   1.067
 2821SOL    HW120494   4.120   7.030   1.150
 2821SOL    HW220495   4.182   7.070   1.004
 2822SOL     OW20496   6.766   6.359   0.995
 2822SOL    HW120497   6.829   6.340   0.919
 2822SOL    HW220498   6.767   6.457   1.015
 2823SOL     OW20499   9.015   5.447   0.850
 2823SOL    HW120500   9.050   5.432   0.942
 2823SOL    HW220501   9.090   5.467   0.788
 2824SOL     OW20502   6.703   8.411   6.179
 2824SOL    HW120503   6.779   8.437   6.120
 2824SOL    HW220504   6.694   8.477   6.254
 2825SOL     OW20505   2.935   1.167   2.177
 2825SOL    HW120506   2.929   1.241   2.109
 2825SOL    HW220507   2.929   1.079   2.131
 2826SOL     OW20508   4.077   7.927   6.856
 2826SOL    HW120509   4.096   8.014   6.901
 2826SOL    HW220510   3.983   7.899   6.876
 2827SOL     OW20511   3.999   8.396   1.019
 2827SOL    HW120512   4.018   8.317   0.961
 2827SOL    HW220513   3.985   8.477   0.962
 2828SOL     OW20514   1.805   3.963   6.147
 2828SOL    HW120515   1.822   4.058   6.173
 2828SOL    HW220516   1.846   3.945   6.057
 2829SOL     OW20517   8.379   4.108   6.815
 2829SOL    HW120518   8.333   4.152   6.738
 2829SOL    HW220519   8.476   4.133   6.815
 2830SOL     OW20520   9.072   5.909   0.434
 2830SOL    HW120521   9.006   5.932   0.506
 2830SOL    HW220522   9.105   5.815   0.447
 2831SOL     OW20523   3.616   7.690   5.610
 2831SOL    HW120524   3.539   7.645   5.563
 2831SOL    HW220525   3.701   7.667   5.563
 2832SOL     OW20526   7.768   6.286   1.270
 2832SOL    HW120527   7.813   6.347   1.336
 2832SOL    HW220528   7.688   6.244   1.312
 2833SOL     OW20529   0.900   5.495   5.910
 2833SOL    HW120530   0.853   5.414   5.945
 2833SOL    HW220531   0.834   5.568   5.893
 2834SOL     OW20532   8.657   2.455   1.597
 2834SOL    HW120533   8.635   2.541   1.642
 2834SOL    HW220534   8.652   2.380   1.664
 2835SOL     OW20535   7.887   6.219   5.915
 2835SOL    HW120536   7.873   6.129   5.955
 2835SOL    HW220537   7.802   6.271   5.918
 2836SOL     OW20538   8.672   2.350   1.085
 2836SOL    HW120539   8.629   2.339   1.175
 2836SOL    HW220540   8.711   2.441   1.078
 2837SOL     OW20541   4.662   0.118   0.724
 2837SOL    HW120542   4.633   0.130   0.629
 2837SOL    HW220543   4.700   0.027   0.737
 2838SOL     OW20544   3.436   0.527   5.304
 2838SOL    HW120545   3.356   0.467   5.302
 2838SOL    HW220546   3.500   0.499   5.232
 2839SOL     OW20547   7.415   0.005   1.285
 2839SOL    HW120548   7.506   0.045   1.283
 2839SOL    HW220549   7.388  -0.014   1.379
 2840SOL     OW20550   0.707   0.088   5.605
 2840SOL    HW120551   0.686   0.170   5.550
 2840SOL    HW220552   0.779   0.036   5.559
 2841SOL     OW20553   7.467   1.549   6.661
 2841SOL    HW120554   7.551   1.532   6.714
 2841SOL    HW220555   7.407   1.470   6.668
 2842SOL     OW20556   5.305   3.617   5.909
 2842SOL    HW120557   5.362   3.552   5.859
 2842SOL    HW220558   5.304   3.704   5.860
 2843SOL     OW20559   2.876   3.704   0.336
 2843SOL    HW120560   2.830   3.626   0.380
 2843SOL    HW220561   2.939   3.671   0.266
 2844SOL     OW20562   1.077   5.664   1.752
 2844SOL    HW120563   1.114   5.745   1.797
 2844SOL    HW220564   1.002   5.691   1.691
 2845SOL     OW20565   9.543   4.050   1.411
 2845SOL    HW120566   9.453   4.065   1.452
 2845SOL    HW220567   9.596   3.987   1.469
 2846SOL     OW20568   7.432   4.290   6.094
 2846SOL    HW120569   7.511   4.230   6.108
 2846SOL    HW220570   7.439   4.335   6.005
 2847SOL     OW20571   6.077   5.822   6.951
 2847SOL    HW120572   6.095   5.724   6.946
 2847SOL    HW220573   5.981   5.839   6.931
 2848SOL     OW20574   1.877   6.321   5.024
 2848SOL    HW120575   1.898   6.225   5.002
 2848SOL    HW220576   1.916   6.380   4.954
 2849SOL     OW20577   7.296   4.465   0.492
 2849SOL    HW120578   7.210   4.472   0.542
 2849SOL    HW220579   7.370   4.442   0.555
 2850SOL     OW20580   0.151   0.503   5.642
 2850SOL    HW120581   0.144   0.405   5.657
 2850SOL    HW220582   0.176   0.520   5.546
 2851SOL     OW20583   5.393   2.134   0.495
 2851SOL    HW120584   5.438   2.138   0.405
 2851SOL    HW220585   5.455   2.171   0.564
 2852SOL     OW20586   4.744   5.629   2.306
 2852SOL    HW120587   4.758   5.722   2.341
 2852SOL    HW220588   4.832   5.592   2.276
 2853SOL     OW20589   5.990   3.759   1.517
 2853SOL    HW120590   6.067   3.732   1.575
 2853SOL    HW220591   6.009   3.733   1.422
 2854SOL     OW20592   2.419   4.974   1.291
 2854SOL    HW120593   2.476   5.049   1.260
 2854SOL    HW220594   2.431   4.961   1.389
 2855SOL     OW20595   3.795   4.214   2.267
 2855SOL    HW120596   3.895   4.218   2.262
 2855SOL    HW220597   3.767   4.206   2.362
 2856SOL     OW20598   3.550   5.651   1.134
 2856SOL    HW120599   3.478   5.715   1.104
 2856SOL    HW220600   3.634   5.671   1.085
 2857SOL     OW20601   3.974   6.985   6.766
 2857SOL    HW120602   4.072   7.007   6.771
 2857SOL    HW220603   3.959   6.894   6.805
 2858SOL     OW20604   7.489   1.613   0.989
 2858SOL    HW120605   7.435   1.530   0.971
 2858SOL    HW220606   7.449   1.664   1.065
 2859SOL     OW20607   2.982   7.090   6.695
 2859SOL    HW120608   3.037   7.140   6.762
 2859SOL    HW220609   2.964   7.149   6.616
 2860SOL     OW20610   8.474   4.056   0.577
 2860SOL    HW120611   8.541   4.124   0.550
 2860SOL    HW220612   8.509   3.965   0.557
 2861SOL     OW20613   1.632   0.412   2.056
 2861SOL    HW120614   1.719   0.456   2.076
 2861SOL    HW220615   1.569   0.479   2.016
 2862SOL     OW20616   7.002   6.311   6.934
 2862SOL    HW120617   6.988   6.399   6.889
 2862SOL    HW220618   6.924   6.291   6.993
 2863SOL     OW20619   6.994   2.680   0.717
 2863SOL    HW120620   6.975   2.644   0.626
 2863SOL    HW220621   7.019   2.605   0.778
 2864SOL     OW20622   1.633   1.609   6.490
 2864SOL    HW120623   1.533   1.614   6.502
 2864SOL    HW220624   1.675   1.695   6.517
 2865SOL     OW20625   8.004   6.569   5.094
 2865SOL    HW120626   7.987   6.471   5.103
 2865SOL    HW220627   7.929   6.611   5.044
 2866SOL     OW20628   3.310   5.569   5.902
 2866SOL    HW120629   3.211   5.555   5.897
 2866SOL    HW220630   3.330   5.665   5.922
 2867SOL     OW20631   8.266   0.558   5.160
 2867SOL    HW120632   8.230   0.503   5.085
 2867SOL    HW220633   8.364   0.574   5.145
 2868SOL     OW20634   9.146   0.620   1.621
 2868SOL    HW120635   9.162   0.555   1.696
 2868SOL    HW220636   9.054   0.657   1.627
 2869SOL     OW20637   4.680   8.240   1.563
 2869SOL    HW120638   4.608   8.177   1.534
 2869SOL    HW220639   4.694   8.230   1.661
 2870SOL     OW20640   4.642   1.292   1.892
 2870SOL    HW120641   4.619   1.232   1.969
 2870SOL    HW220642   4.634   1.388   1.921
 2871SOL     OW20643   4.883   2.472   0.537
 2871SOL    HW120644   4.792   2.438   0.514
 2871SOL    HW220645   4.883   2.509   0.630
 2872SOL     OW20646   2.391   5.266   5.476
 2872SOL    HW120647   2.368   5.170   5.460
 2872SOL    HW220648   2.360   5.321   5.399
 2873SOL     OW20649   3.494   1.751   1.601
 2873SOL    HW120650   3.574   1.775   1.657
 2873SOL    HW220651   3.415   1.804   1.632
 2874SOL     OW20652   6.897   6.633   5.015
 2874SOL    HW120653   6.863   6.551   4.968
 2874SOL    HW220654   6.997   6.635   5.011
 2875SOL     OW20655   7.818   0.066   6.882
 2875SOL    HW120656   7.730   0.026   6.908
 2875SOL    HW220657   7.806   0.164   6.868
 2876SOL     OW20658   6.627   1.779   6.468
 2876SOL    HW120659   6.546   1.750   6.519
 2876SOL    HW220660   6.602   1.851   6.404
 2877SOL     OW20661   8.993   7.065   1.590
 2877SOL    HW120662   8.966   6.981   1.638
 2877SOL    HW220663   8.982   7.143   1.651
 2878SOL     OW20664   0.985  -0.002   5.641
 2878SOL    HW120665   1.000   0.096   5.630
 2878SOL    HW220666   0.983  -0.025   5.739
 2879SOL     OW20667   5.689   0.267   1.315
 2879SOL    HW120668   5.712   0.178   1.355
 2879SOL    HW220669   5.644   0.323   1.384
 2880SOL     OW20670   8.575   6.808   1.797
 2880SOL    HW120671   8.538   6.716   1.784
 2880SOL    HW220672   8.512   6.861   1.854
 2881SOL     OW20673   0.736   2.223   6.828
 2881SOL    HW120674   0.802   2.173   6.883
 2881SOL    HW220675   0.753   2.321   6.836
 2882SOL     OW20676   5.594   0.166   5.769
 2882SOL    HW120677   5.535   0.133   5.842
 2882SOL    HW220678   5.542   0.224   5.707
 2883SOL     OW20679   8.168   5.918   1.050
 2883SOL    HW120680   8.152   5.941   1.146
 2883SOL    HW220681   8.252   5.963   1.019
 2884SOL     OW20682   5.290   2.421   0.827
 2884SOL    HW120683   5.194   2.397   0.813
 2884SOL    HW220684   5.306   2.515   0.797
 2885SOL     OW20685   5.867   2.690   1.108
 2885SOL    HW120686   5.792   2.740   1.151
 2885SOL    HW220687   5.857   2.592   1.127
 2886SOL     OW20688   6.534   6.752   6.073
 2886SOL    HW120689   6.524   6.840   6.026
 2886SOL    HW220690   6.531   6.766   6.171
 2887SOL     OW20691   8.441   5.340   6.981
 2887SOL    HW120692   8.452   5.320   6.883
 2887SOL    HW220693   8.348   5.373   6.999
 2888SOL     OW20694   7.404   7.251   1.042
 2888SOL    HW120695   7.345   7.295   1.110
 2888SOL    HW220696   7.347   7.197   0.979
 2889SOL     OW20697   6.580   1.451   6.737
 2889SOL    HW120698   6.673   1.414   6.737
 2889SOL    HW220699   6.571   1.518   6.811
 2890SOL     OW20700   1.896   1.431   0.427
 2890SOL    HW120701   1.923   1.366   0.497
 2890SOL    HW220702   1.954   1.513   0.434
 2891SOL     OW20703   8.645   7.507   6.933
 2891SOL    HW120704   8.632   7.605   6.946
 2891SOL    HW220705   8.742   7.485   6.944
 2892SOL     OW20706   6.392   8.307   1.604
 2892SOL    HW120707   6.463   8.240   1.626
 2892SOL    HW220708   6.411   8.348   1.515
 2893SOL     OW20709   1.353   1.578   1.000
 2893SOL    HW120710   1.256   1.595   1.016
 2893SOL    HW220711   1.368   1.480   0.985
 2894SOL     OW20712   4.741   2.662   0.303
 2894SOL    HW120713   4.714   2.635   0.395
 2894SOL    HW220714   4.752   2.762   0.299
 2895SOL     OW20715   1.805   0.180   0.773
 2895SOL    HW120716   1.755   0.261   0.742
 2895SOL    HW220717   1.882   0.163   0.712
 2896SOL     OW20718   3.654   6.425   0.872
 2896SOL    HW120719   3.713   6.361   0.921
 2896SOL    HW220720   3.585   6.462   0.935
 2897SOL     OW20721   1.178   2.719   6.129
 2897SOL    HW120722   1.212   2.807   6.097
 2897SOL    HW220723   1.096   2.733   6.183
 2898SOL     OW20724   2.465   1.395   5.528
 2898SOL    HW120725   2.482   1.309   5.576
 2898SOL    HW220726   2.395   1.380   5.457
 2899SOL     OW20727   4.185   8.207   5.314
 2899SOL    HW120728   4.111   8.269   5.291
 2899SOL    HW220729   4.158   8.113   5.292
 2900SOL     OW20730   5.998   6.090   5.680
 2900SOL    HW120731   5.963   6.180   5.703
 2900SOL    HW220732   5.960   6.060   5.592
 2901SOL     OW20733   1.288   5.361   1.418
 2901SOL    HW120734   1.374   5.347   1.467
 2901SOL    HW220735   1.233   5.429   1.465
 2902SOL     OW20736   9.037   7.694   1.525
 2902SOL    HW120737   9.034   7.720   1.428
 2902SOL    HW220738   8.984   7.758   1.579
 2903SOL     OW20739   6.567   3.968   6.151
 2903SOL    HW120740   6.575   3.880   6.196
 2903SOL    HW220741   6.542   3.954   6.055
 2904SOL     OW20742   6.935   3.348   0.650
 2904SOL    HW120743   6.863   3.412   0.622
 2904SOL    HW220744   7.006   3.399   0.698
 2905SOL     OW20745   5.040   6.517   1.308
 2905SOL    HW120746   5.033   6.520   1.209
 2905SOL    HW220747   5.030   6.610   1.344
 2906SOL     OW20748   8.413   3.467   1.455
 2906SOL    HW120749   8.444   3.531   1.525
 2906SOL    HW220750   8.472   3.475   1.374
 2907SOL     OW20751   6.949   2.268   2.159
 2907SOL    HW120752   6.911   2.345   2.211
 2907SOL    HW220753   6.929   2.182   2.207
 2908SOL     OW20754   3.691   4.588   0.503
 2908SOL    HW120755   3.702   4.678   0.546
 2908SOL    HW220756   3.779   4.559   0.465
 2909SOL     OW20757   6.414   7.358   6.230
 2909SOL    HW120758   6.357   7.406   6.163
 2909SOL    HW220759   6.487   7.308   6.183
 2910SOL     OW20760   3.394   3.127   6.885
 2910SOL    HW120761   3.328   3.159   6.953
 2910SOL    HW220762   3.482   3.113   6.930
 2911SOL     OW20763   3.306   8.338   6.349
 2911SOL    HW120764   3.206   8.346   6.345
 2911SOL    HW220765   3.333   8.243   6.332
 2912SOL     OW20766   5.348   2.732   0.448
 2912SOL    HW120767   5.350   2.832   0.449
 2912SOL    HW220768   5.253   2.701   0.445
 2913SOL     OW20769   2.522   6.300   6.049
 2913SOL    HW120770   2.464   6.244   5.990
 2913SOL    HW220771   2.610   6.316   6.004
 2914SOL     OW20772   8.555   8.084   6.459
 2914SOL    HW120773   8.592   7.996   6.431
 2914SOL    HW220774   8.471   8.102   6.408
 2915SOL     OW20775   0.282   6.558   4.325
 2915SOL    HW120776   0.375   6.548   4.290
 2915SOL    HW220777   0.251   6.652   4.310
 2916SOL     OW20778   9.388   2.017   0.603
 2916SOL    HW120779   9.465   1.974   0.650
 2916SOL    HW220780   9.361   2.100   0.652
 2917SOL     OW20781   0.288   6.926   5.153
 2917SOL    HW120782   0.305   6.960   5.061
 2917SOL    HW220783   0.198   6.883   5.156
 2918SOL     OW20784   6.090   2.401   0.813
 2918SOL    HW120785   6.066   2.490   0.853
 2918SOL    HW220786   6.190   2.392   0.809
 2919SOL     OW20787   1.287   4.690   6.670
 2919SOL    HW120788   1.207   4.631   6.685
 2919SOL    HW220789   1.371   4.637   6.683
 2920SOL     OW20790   3.943   7.021   0.666
 2920SOL    HW120791   3.924   6.964   0.746
 2920SOL    HW220792   4.028   6.991   0.623
 2921SOL     OW20793   9.210   7.390   5.089
 2921SOL    HW120794   9.119   7.397   5.129
 2921SOL    HW220795   9.203   7.345   5.000
 2922SOL     OW20796   6.017   2.265   1.058
 2922SOL    HW120797   6.060   2.296   0.973
 2922SOL    HW220798   6.003   2.166   1.054
 2923SOL     OW20799   0.202   7.567   0.637
 2923SOL    HW120800   0.109   7.538   0.658
 2923SOL    HW220801   0.257   7.567   0.720
 2924SOL     OW20802   2.634  -0.033   0.788
 2924SOL    HW120803   2.666   0.034   0.855
 2924SOL    HW220804   2.610  -0.118   0.835
 2925SOL     OW20805   0.444   1.909   1.673
 2925SOL    HW120806   0.478   1.842   1.740
 2925SOL    HW220807   0.503   1.989   1.673
 2926SOL     OW20808   5.346   1.899   5.636
 2926SOL    HW120809   5.310   1.990   5.617
 2926SOL    HW220810   5.431   1.885   5.585
 2927SOL     OW20811   6.883   1.668   0.513
 2927SOL    HW120812   6.823   1.592   0.487
 2927SOL    HW220813   6.977   1.633   0.526
 2928SOL     OW20814   5.270   4.184   6.954
 2928SOL    HW120815   5.335   4.247   6.912
 2928SOL    HW220816   5.318   4.119   7.013
 2929SOL     OW20817   6.777   7.481   1.479
 2929SOL    HW120818   6.696   7.482   1.421
 2929SOL    HW220819   6.855   7.447   1.427
 2930SOL     OW20820   2.579   2.300   6.224
 2930SOL    HW120821   2.566   2.209   6.261
 2930SOL    HW220822   2.528   2.366   6.278
 2931SOL     OW20823   6.322   7.776   1.590
 2931SOL    HW120824   6.359   7.744   1.677
 2931SOL    HW220825   6.395   7.779   1.522
 2932SOL     OW20826   8.093   3.077   1.257
 2932SOL    HW120827   8.150   3.095   1.177
 2932SOL    HW220828   8.132   3.000   1.308
 2933SOL     OW20829   1.067   0.885   1.854
 2933SOL    HW120830   1.146   0.825   1.860
 2933SOL    HW220831   1.073   0.955   1.926
 2934SOL     OW20832   6.347   2.771   0.403
 2934SOL    HW120833   6.397   2.844   0.448
 2934SOL    HW220834   6.391   2.749   0.316
 2935SOL     OW20835   2.301   0.688   6.332
 2935SOL    HW120836   2.322   0.695   6.235
 2935SOL    HW220837   2.382   0.713   6.385
 2936SOL     OW20838   7.496   0.219   0.275
 2936SOL    HW120839   7.446   0.157   0.335
 2936SOL    HW220840   7.488   0.313   0.309
 2937SOL     OW20841   2.485   2.761   6.983
 2937SOL    HW120842   2.567   2.776   7.037
 2937SOL    HW220843   2.409   2.734   7.044
 2938SOL     OW20844   2.820   0.502   1.528
 2938SOL    HW120845   2.794   0.419   1.577
 2938SOL    HW220846   2.763   0.578   1.559
 2939SOL     OW20847   4.294   6.283   6.996
 2939SOL    HW120848   4.360   6.238   6.937
 2939SOL    HW220849   4.341   6.344   7.060
 2940SOL     OW20850   8.490   3.167   0.692
 2940SOL    HW120851   8.423   3.241   0.691
 2940SOL    HW220852   8.578   3.200   0.657
 2941SOL     OW20853   3.043   7.293   6.471
 2941SOL    HW120854   3.032   7.369   6.534
 2941SOL    HW220855   2.963   7.287   6.411
 2942SOL     OW20856   7.565   0.595   0.934
 2942SOL    HW120857   7.520   0.536   1.001
 2942SOL    HW220858   7.551   0.691   0.959
 2943SOL     OW20859   6.453   2.906   1.432
 2943SOL    HW120860   6.439   2.914   1.530
 2943SOL    HW220861   6.445   2.996   1.389
 2944SOL     OW20862   1.614   6.921   0.498
 2944SOL    HW120863   1.673   6.916   0.418
 2944SOL    HW220864   1.576   7.014   0.506
 2945SOL     OW20865   2.870   8.266   5.709
 2945SOL    HW120866   2.927   8.186   5.689
 2945SOL    HW220867   2.858   8.273   5.808
 2946SOL     OW20868   7.774   0.947   0.515
 2946SOL    HW120869   7.727   0.892   0.584
 2946SOL    HW220870   7.779   0.896   0.429
 2947SOL     OW20871   2.679   0.361   5.508
 2947SOL    HW120872   2.759   0.312   5.543
 2947SOL    HW220873   2.696   0.391   5.414
 2948SOL     OW20874   5.794   7.952   5.990
 2948SOL    HW120875   5.864   7.893   6.032
 2948SOL    HW220876   5.834   7.999   5.911
 2949SOL     OW20877   0.146   7.913   6.323
 2949SOL    HW120878   0.106   7.996   6.285
 2949SOL    HW220879   0.112   7.834   6.271
 2950SOL     OW20880   6.665   5.309   0.591
 2950SOL    HW120881   6.651   5.256   0.508
 2950SOL    HW220882   6.577   5.325   0.636
 2951SOL     OW20883   9.430   6.542   1.699
 2951SOL    HW120884   9.446   6.450   1.665
 2951SOL    HW220885   9.360   6.540   1.771
 2952SOL     OW20886   5.423   0.601   0.518
 2952SOL    HW120887   5.413   0.502   0.515
 2952SOL    HW220888   5.375   0.637   0.598
 2953SOL     OW20889   3.977   5.268   2.315
 2953SOL    HW120890   3.988   5.169   2.307
 2953SOL    HW220891   3.887   5.294   2.278
 2954SOL     OW20892   8.518   7.730   4.747
 2954SOL    HW120893   8.556   7.677   4.672
 2954SOL    HW220894   8.421   7.710   4.757
 2955SOL     OW20895   7.785   4.130   6.470
 2955SOL    HW120896   7.695   4.173   6.461
 2955SOL    HW220897   7.854   4.201   6.483
 2956SOL     OW20898   2.806   7.272   6.332
 2956SOL    HW120899   2.717   7.266   6.376
 2956SOL    HW220900   2.805   7.343   6.262
 2957SOL     OW20901   7.675   2.559   1.282
 2957SOL    HW120902   7.751   2.505   1.319
 2957SOL    HW220903   7.673   2.648   1.327
 2958SOL     OW20904   0.949   7.971   0.647
 2958SOL    HW120905   0.895   8.042   0.692
 2958SOL    HW220906   1.032   8.012   0.608
 2959SOL     OW20907   5.489   5.905   6.824
 2959SOL    HW120908   5.560   5.938   6.887
 2959SOL    HW220909   5.523   5.911   6.730
 2960SOL     OW20910   7.576   6.519   1.294
 2960SOL    HW120911   7.500   6.511   1.229
 2960SOL    HW220912   7.587   6.432   1.342
 2961SOL     OW20913   8.359   6.330   0.556
 2961SOL    HW120914   8.425   6.312   0.629
 2961SOL    HW220915   8.295   6.400   0.587
 2962SOL     OW20916   8.594   6.548   0.386
 2962SOL    HW120917   8.626   6.528   0.479
 2962SOL    HW220918   8.499   6.519   0.377
 2963SOL     OW20919   2.855   4.822   1.514
 2963SOL    HW120920   2.865   4.880   1.433
 2963SOL    HW220921   2.800   4.742   1.491
 2964SOL     OW20922   0.891   0.672   2.011
 2964SOL    HW120923   0.802   0.694   1.971
 2964SOL    HW220924   0.921   0.748   2.068
 2965SOL     OW20925   4.063   0.327   0.785
 2965SOL    HW120926   4.095   0.418   0.812
 2965SOL    HW220927   4.137   0.279   0.737
 2966SOL     OW20928   3.765   3.526   6.445
 2966SOL    HW120929   3.823   3.606   6.430
 2966SOL    HW220930   3.813   3.444   6.413
 2967SOL     OW20931   7.860   5.856   5.645
 2967SOL    HW120932   7.794   5.930   5.660
 2967SOL    HW220933   7.848   5.820   5.552
 2968SOL     OW20934   4.350   1.027   0.831
 2968SOL    HW120935   4.338   0.958   0.759
 2968SOL    HW220936   4.415   1.096   0.800
 2969SOL     OW20937   7.596   7.335   5.123
 2969SOL    HW120938   7.510   7.300   5.086
 2969SOL    HW220939   7.595   7.435   5.120
 2970SOL     OW20940   6.408   8.291   0.592
 2970SOL    HW120941   6.335   8.230   0.621
 2970SOL    HW220942   6.371   8.383   0.576
 2971SOL     OW20943   1.621   6.356   5.410
 2971SOL    HW120944   1.592   6.261   5.393
 2971SOL    HW220945   1.673   6.390   5.331
 2972SOL     OW20946   5.160   0.273   0.272
 2972SOL    HW120947   5.201   0.186   0.299
 2972SOL    HW220948   5.220   0.318   0.206
 2973SOL     OW20949   6.988   1.616   6.618
 2973SOL    HW120950   7.013   1.591   6.525
 2973SOL    HW220951   7.065   1.598   6.679
 2974SOL     OW20952   2.232   2.600   0.376
 2974SOL    HW120953   2.204   2.662   0.450
 2974SOL    HW220954   2.152   2.552   0.341
 2975SOL     OW20955   5.844   0.528   4.908
 2975SOL    HW120956   5.757   0.510   4.862
 2975SOL    HW220957   5.875   0.621   4.887
 2976SOL     OW20958   1.768   7.605   6.150
 2976SOL    HW120959   1.711   7.573   6.075
 2976SOL    HW220960   1.723   7.681   6.196
 2977SOL     OW20961   5.829   0.869   0.599
 2977SOL    HW120962   5.839   0.776   0.564
 2977SOL    HW220963   5.733   0.897   0.595
 2978SOL     OW20964   1.672   8.201   1.530
 2978SOL    HW120965   1.578   8.194   1.561
 2978SOL    HW220966   1.688   8.135   1.456
 2979SOL     OW20967   9.280   6.786   0.675
 2979SOL    HW120968   9.193   6.737   0.687
 2979SOL    HW220969   9.265   6.884   0.689
 2980SOL     OW20970   9.438   4.309   0.911
 2980SOL    HW120971   9.356   4.334   0.860
 2980SOL    HW220972   9.445   4.367   0.992
 2981SOL     OW20973   7.017   2.075   6.725
 2981SOL    HW120974   7.024   2.156   6.666
 2981SOL    HW220975   6.924   2.040   6.721
 2982SOL     OW20976   5.242   5.853   6.319
 2982SOL    HW120977   5.148   5.822   6.338
 2982SOL    HW220978   5.291   5.865   6.405
 2983SOL     OW20979   6.809   6.285   1.251
 2983SOL    HW120980   6.800   6.264   1.153
 2983SOL    HW220981   6.718   6.303   1.289
 2984SOL     OW20982   0.466   1.664   0.675
 2984SOL    HW120983   0.372   1.690   0.655
 2984SOL    HW220984   0.495   1.706   0.761
 2985SOL     OW20985   5.798   5.836   0.773
 2985SOL    HW120986   5.854   5.802   0.697
 2985SOL    HW220987   5.789   5.764   0.842
 2986SOL     OW20988   6.871   1.420   0.805
 2986SOL    HW120989   6.875   1.322   0.789
 2986SOL    HW220990   6.953   1.463   0.768
 2987SOL     OW20991   6.086   1.533   6.926
 2987SOL    HW120992   6.076   1.624   6.886
 2987SOL    HW220993   6.036   1.529   7.013
 2988SOL     OW20994   8.482   6.866   6.464
 2988SOL    HW120995   8.529   6.786   6.427
 2988SOL    HW220996   8.450   6.846   6.557
 2989SOL     OW20997   2.072   5.682   6.570
 2989SOL    HW120998   2.106   5.736   6.647
 2989SOL    HW220999   2.113   5.591   6.572
 2990SOL     OW21000   1.713   5.217   1.724
 2990SOL    HW121001   1.648   5.146   1.696
 2990SOL    HW221002   1.806   5.182   1.715
 2991SOL     OW21003   8.856   6.100   6.893
 2991SOL    HW121004   8.805   6.174   6.938
 2991SOL    HW221005   8.947   6.093   6.934
 2992SOL     OW21006   1.703   4.997   0.418
 2992SOL    HW121007   1.605   4.991   0.403
 2992SOL    HW221008   1.751   4.981   0.331
 2993SOL     OW21009   6.963   0.031   5.643
 2993SOL    HW121010   6.983  -0.056   5.687
 2993SOL    HW221011   6.935   0.016   5.548
 2994SOL     OW21012   2.070   7.466   5.628
 2994SOL    HW121013   2.107   7.428   5.543
 2994SOL    HW221014   1.970   7.467   5.622
 2995SOL     OW21015   4.439   2.561   0.652
 2995SOL    HW121016   4.510   2.621   0.688
 2995SOL    HW221017   4.361   2.560   0.714
 2996SOL     OW21018   2.891   6.427   6.272
 2996SOL    HW121019   2.846   6.484   6.340
 2996SOL    HW221020   2.940   6.485   6.207
 2997SOL     OW21021   6.499   3.626   6.088
 2997SOL    HW121022   6.415   3.634   6.033
 2997SOL    HW221023   6.575   3.598   6.029
 2998SOL     OW21024   5.863   1.273   6.551
 2998SOL    HW121025   5.792   1.318   6.496
 2998SOL    HW221026   5.923   1.342   6.592
 2999SOL     OW21027   3.177   1.367   1.266
 2999SOL    HW121028   3.136   1.458   1.261
 2999SOL    HW221029   3.215   1.353   1.357
 3000SOL     OW21030   3.572   4.921   0.374
 3000SOL    HW121031   3.550   5.019   0.375
 3000SOL    HW221032   3.640   4.902   0.445
 3001SOL     OW21033   6.639   3.661   6.571
 3001SOL    HW121034   6.565   3.726   6.554
 3001SOL    HW221035   6.706   3.703   6.633
 3002SOL     OW21036   0.500   2.562   6.754
 3002SOL    HW121037   0.423   2.600   6.806
 3002SOL    HW221038   0.480   2.570   6.656
 3003SOL     OW21039   8.274   2.463   1.202
 3003SOL    HW121040   8.344   2.530   1.229
 3003SOL    HW221041   8.297   2.425   1.112
 3004SOL     OW21042   2.002   1.157   6.699
 3004SOL    HW121043   2.007   1.257   6.706
 3004SOL    HW221044   2.075   1.116   6.754
 3005SOL     OW21045   9.202   3.498   6.278
 3005SOL    HW121046   9.216   3.403   6.304
 3005SOL    HW221047   9.107   3.510   6.248
 3006SOL     OW21048   4.296   5.792   6.881
 3006SOL    HW121049   4.342   5.777   6.969
 3006SOL    HW221050   4.362   5.826   6.814
 3007SOL     OW21051   3.803   3.834   1.200
 3007SOL    HW121052   3.814   3.750   1.254
 3007SOL    HW221053   3.892   3.865   1.167
 3008SOL     OW21054   4.332   2.939   2.120
 3008SOL    HW121055   4.400   2.903   2.183
 3008SOL    HW221056   4.374   3.008   2.060
 3009SOL     OW21057   1.168   0.288   5.891
 3009SOL    HW121058   1.082   0.290   5.942
 3009SOL    HW221059   1.245   0.285   5.955
 3010SOL     OW21060   6.591   6.222   5.734
 3010SOL    HW121061   6.507   6.277   5.741
 3010SOL    HW221062   6.587   6.165   5.652
 3011SOL     OW21063   1.910   6.166   1.404
 3011SOL    HW121064   1.862   6.078   1.399
 3011SOL    HW221065   1.955   6.184   1.317
 3012SOL     OW21066   1.267   5.317   1.755
 3012SOL    HW121067   1.292   5.221   1.744
 3012SOL    HW221068   1.350   5.372   1.763
 3013SOL     OW21069   2.787   2.011   6.284
 3013SOL    HW121070   2.845   2.052   6.214
 3013SOL    HW221071   2.755   1.921   6.254
 3014SOL     OW21072   7.223   6.389   5.665
 3014SOL    HW121073   7.156   6.356   5.731
 3014SOL    HW221074   7.297   6.437   5.712
 3015SOL     OW21075   2.360   1.941   6.278
 3015SOL    HW121076   2.304   1.858   6.278
 3015SOL    HW221077   2.311   2.015   6.233
 3016SOL     OW21078   4.258   4.183   6.692
 3016SOL    HW121079   4.176   4.177   6.635
 3016SOL    HW221080   4.339   4.179   6.633
 3017SOL     OW21081   2.502   6.071   5.716
 3017SOL    HW121082   2.461   6.061   5.625
 3017SOL    HW221083   2.586   6.124   5.709
 3018SOL     OW21084   4.097   1.514   5.488
 3018SOL    HW121085   4.057   1.426   5.464
 3018SOL    HW221086   4.159   1.544   5.415
 3019SOL     OW21087   0.654   2.853   6.438
 3019SOL    HW121088   0.590   2.779   6.419
 3019SOL    HW221089   0.701   2.836   6.525
 3020SOL     OW21090   8.841   2.033   6.725
 3020SOL    HW121091   8.844   1.935   6.744
 3020SOL    HW221092   8.927   2.061   6.682
 3021SOL     OW21093   4.953   6.968   1.463
 3021SOL    HW121094   4.861   6.942   1.492
 3021SOL    HW221095   4.955   6.974   1.363
 3022SOL     OW21096   9.221   6.940   1.153
 3022SOL    HW121097   9.218   7.011   1.223
 3022SOL    HW221098   9.299   6.957   1.092
 3023SOL     OW21099   2.863   4.872   6.919
 3023SOL    HW121100   2.884   4.919   7.004
 3023SOL    HW221101   2.854   4.774   6.936
 3024SOL     OW21102   5.793   2.639   0.667
 3024SOL    HW121103   5.721   2.578   0.700
 3024SOL    HW221104   5.857   2.659   0.741
 3025SOL     OW21105   3.336  -0.034   0.698
 3025SOL    HW121106   3.301   0.001   0.785
 3025SOL    HW221107   3.423   0.010   0.677
 3026SOL     OW21108   1.800   1.392   5.780
 3026SOL    HW121109   1.790   1.488   5.808
 3026SOL    HW221110   1.749   1.333   5.843
 3027SOL     OW21111   4.762   7.907   1.352
 3027SOL    HW121112   4.694   7.975   1.325
 3027SOL    HW221113   4.736   7.818   1.316
 3028SOL     OW21114   2.425   3.401   0.803
 3028SOL    HW121115   2.524   3.401   0.789
 3028SOL    HW221116   2.401   3.462   0.878
 3029SOL     OW21117   9.222   2.064   5.827
 3029SOL    HW121118   9.242   1.971   5.860
 3029SOL    HW221119   9.307   2.112   5.810
 3030SOL     OW21120   4.142   7.600   5.522
 3030SOL    HW121121   4.156   7.681   5.466
 3030SOL    HW221122   4.091   7.532   5.470
 3031SOL     OW21123   3.405   5.321   5.831
 3031SOL    HW121124   3.362   5.246   5.880
 3031SOL    HW221125   3.362   5.408   5.857
 3032SOL     OW21126   9.575   6.810   6.950
 3032SOL    HW121127   9.557   6.757   6.867
 3032SOL    HW221128   9.497   6.870   6.968
 3033SOL     OW21129   4.552   0.698   0.484
 3033SOL    HW121130   4.460   0.667   0.461
 3033SOL    HW221131   4.592   0.744   0.405
 3034SOL     OW21132   0.479   1.866   5.897
 3034SOL    HW121133   0.385   1.883   5.865
 3034SOL    HW221134   0.527   1.809   5.830
 3035SOL     OW21135   9.000   2.305   1.327
 3035SOL    HW121136   9.036   2.253   1.249
 3035SOL    HW221137   8.948   2.243   1.386
 3036SOL     OW21138   4.620   1.492   6.203
 3036SOL    HW121139   4.606   1.590   6.218
 3036SOL    HW221140   4.535   1.443   6.217
 3037SOL     OW21141   6.070   2.021   0.996
 3037SOL    HW121142   6.121   2.002   0.912
 3037SOL    HW221143   6.029   1.936   1.030
 3038SOL     OW21144   5.989   1.023   0.427
 3038SOL    HW121145   6.029   1.089   0.490
 3038SOL    HW221146   5.933   0.958   0.478
 3039SOL     OW21147   1.893  -0.043   1.012
 3039SOL    HW121148   1.941  -0.075   0.931
 3039SOL    HW221149   1.959  -0.022   1.084
 3040SOL     OW21150   3.159   1.620   5.959
 3040SOL    HW121151   3.251   1.659   5.958
 3040SOL    HW221152   3.092   1.693   5.968
 3041SOL     OW21153   0.216   6.417   0.422
 3041SOL    HW121154   0.196   6.473   0.342
 3041SOL    HW221155   0.216   6.320   0.397
 3042SOL     OW21156   7.318   1.417   6.404
 3042SOL    HW121157   7.288   1.472   6.325
 3042SOL    HW221158   7.403   1.455   6.440
 3043SOL     OW21159   3.600   1.047   6.146
 3043SOL    HW121160   3.642   1.013   6.230
 3043SOL    HW221161   3.549   0.972   6.102
 3044SOL     OW21162   6.041   8.010   5.482
 3044SOL    HW121163   5.982   8.090   5.495
 3044SOL    HW221164   6.007   7.956   5.405
 3045SOL     OW21165   9.589   6.498   6.933
 3045SOL    HW121166   9.504   6.445   6.939
 3045SOL    HW221167   9.584   6.558   6.853
 3046SOL     OW21168   3.658   0.730   6.690
 3046SOL    HW121169   3.694   0.696   6.777
 3046SOL    HW221170   3.633   0.827   6.700
 3047SOL     OW21171   6.396   1.294   0.456
 3047SOL    HW121172   6.487   1.274   0.492
 3047SOL    HW221173   6.403   1.364   0.385
 3048SOL     OW21174   0.329   0.186   0.412
 3048SOL    HW121175   0.418   0.233   0.413
 3048SOL    HW221176   0.299   0.172   0.507
 3049SOL     OW21177   8.146   4.350   0.666
 3049SOL    HW121178   8.213   4.393   0.606
 3049SOL    HW221179   8.064   4.408   0.672
 3050SOL     OW21180   9.221   8.371   1.200
 3050SOL    HW121181   9.203   8.324   1.114
 3050SOL    HW221182   9.135   8.385   1.249
 3051SOL     OW21183   5.063   5.047   6.643
 3051SOL    HW121184   5.076   5.146   6.648
 3051SOL    HW221185   5.132   5.001   6.698
 3052SOL     OW21186   7.796   4.486   0.348
 3052SOL    HW121187   7.763   4.477   0.442
 3052SOL    HW221188   7.860   4.412   0.327
 3053SOL     OW21189   3.725   7.638   6.433
 3053SOL    HW121190   3.800   7.682   6.482
 3053SOL    HW221191   3.642   7.643   6.489
 3054SOL     OW21192   3.486   5.159   6.656
 3054SOL    HW121193   3.442   5.211   6.583
 3054SOL    HW221194   3.539   5.221   6.713
 3055SOL     OW21195   2.458   5.704   6.452
 3055SOL    HW121196   2.467   5.692   6.551
 3055SOL    HW221197   2.476   5.799   6.428
 3056SOL     OW21198   7.604   6.780   6.454
 3056SOL    HW121199   7.535   6.708   6.446
 3056SOL    HW221200   7.657   6.784   6.369
 3057SOL     OW21201   1.212   5.619   5.061
 3057SOL    HW121202   1.117   5.645   5.078
 3057SOL    HW221203   1.218   5.572   4.973
 3058SOL     OW21204   0.113   1.976   0.982
 3058SOL    HW121205   0.203   1.935   0.992
 3058SOL    HW221206   0.045   1.904   0.968
 3059SOL     OW21207   7.586   4.615   6.027
 3059SOL    HW121208   7.522   4.625   6.103
 3059SOL    HW221209   7.536   4.617   5.941
 3060SOL     OW21210   3.949   4.466   6.738
 3060SOL    HW121211   3.861   4.461   6.784
 3060SOL    HW221212   3.941   4.520   6.654
 3061SOL     OW21213   6.275   6.909   0.790
 3061SOL    HW121214   6.223   6.982   0.834
 3061SOL    HW221215   6.357   6.947   0.747
 3062SOL     OW21216   3.930   2.345   6.438
 3062SOL    HW121217   3.993   2.358   6.361
 3062SOL    HW221218   3.939   2.253   6.475
 3063SOL     OW21219   2.184   1.280   6.050
 3063SOL    HW121220   2.259   1.227   6.088
 3063SOL    HW221221   2.098   1.229   6.061
 3064SOL     OW21222   5.148   4.215   6.558
 3064SOL    HW121223   5.066   4.255   6.598
 3064SOL    HW221224   5.179   4.271   6.481
 3065SOL     OW21225   3.104   7.336   0.845
 3065SOL    HW121226   3.082   7.257   0.788
 3065SOL    HW221227   3.122   7.305   0.939
 3066SOL     OW21228   4.299   0.908   2.334
 3066SOL    HW121229   4.278   0.813   2.357
 3066SOL    HW221230   4.224   0.947   2.280
 3067SOL     OW21231   5.873   0.667   2.165
 3067SOL    HW121232   5.822   0.693   2.083
 3067SOL    HW221233   5.838   0.717   2.243
 3068SOL     OW21234   1.880   4.140   5.564
 3068SOL    HW121235   1.876   4.066   5.497
 3068SOL    HW221236   1.964   4.193   5.549
 3069SOL     OW21237   0.240   6.280   4.338
 3069SOL    HW121238   0.159   6.229   4.309
 3069SOL    HW221239   0.231   6.376   4.310
 3070SOL     OW21240   8.071   3.160   1.740
 3070SOL    HW121241   8.131   3.223   1.790
 3070SOL    HW221242   8.094   3.066   1.763
 3071SOL     OW21243   5.285   0.456   1.742
 3071SOL    HW121244   5.233   0.504   1.812
 3071SOL    HW221245   5.382   0.479   1.751
 3072SOL     OW21246   7.108   1.329   0.524
 3072SOL    HW121247   7.206   1.321   0.507
 3072SOL    HW221248   7.058   1.308   0.440
 3073SOL     OW21249   1.273   5.044   4.843
 3073SOL    HW121250   1.318   5.120   4.890
 3073SOL    HW221251   1.342   4.984   4.803
 3074SOL     OW21252   0.141   1.825   5.602
 3074SOL    HW121253   0.177   1.744   5.556
 3074SOL    HW221254   0.194   1.906   5.574
 3075SOL     OW21255   1.463   0.813   1.064
 3075SOL    HW121256   1.383   0.758   1.041
 3075SOL    HW221257   1.482   0.804   1.162
 3076SOL     OW21258   3.923   2.200   5.537
 3076SOL    HW121259   3.887   2.130   5.476
 3076SOL    HW221260   3.873   2.285   5.522
 3077SOL     OW21261   1.360   3.543   5.972
 3077SOL    HW121262   1.436   3.538   5.907
 3077SOL    HW221263   1.314   3.631   5.963
 3078SOL     OW21264   7.167   3.959   6.319
 3078SOL    HW121265   7.265   3.957   6.295
 3078SOL    HW221266   7.156   3.940   6.416
 3079SOL     OW21267   5.341   7.000   5.935
 3079SOL    HW121268   5.361   6.903   5.922
 3079SOL    HW221269   5.248   7.019   5.902
 3080SOL     OW21270   7.159   2.514   0.888
 3080SOL    HW121271   7.231   2.522   0.819
 3080SOL    HW221272   7.181   2.571   0.967
 3081SOL     OW21273   5.177   8.227   0.893
 3081SOL    HW121274   5.087   8.245   0.933
 3081SOL    HW221275   5.191   8.286   0.814
 3082SOL     OW21276   6.305   5.754   1.349
 3082SOL    HW121277   6.277   5.658   1.344
 3082SOL    HW221278   6.288   5.789   1.441
 3083SOL     OW21279   5.400   6.641   1.454
 3083SOL    HW121280   5.359   6.554   1.482
 3083SOL    HW221281   5.327   6.709   1.443
 3084SOL     OW21282   3.678   3.437   2.015
 3084SOL    HW121283   3.721   3.519   2.054
 3084SOL    HW221284   3.601   3.409   2.071
 3085SOL     OW21285   5.437   6.163   1.473
 3085SOL    HW121286   5.407   6.119   1.557
 3085SOL    HW221287   5.362   6.165   1.407
 3086SOL     OW21288   8.185   1.707   1.187
 3086SOL    HW121289   8.213   1.741   1.276
 3086SOL    HW221290   8.118   1.634   1.198
 3087SOL     OW21291   8.921   5.395   6.043
 3087SOL    HW121292   8.831   5.437   6.051
 3087SOL    HW221293   8.921   5.326   5.971
 3088SOL     OW21294   8.120   5.021   6.214
 3088SOL    HW121295   8.097   4.940   6.160
 3088SOL    HW221296   8.219   5.027   6.224
 3089SOL     OW21297   7.570   3.044   1.309
 3089SOL    HW121298   7.512   2.984   1.364
 3089SOL    HW221299   7.653   3.065   1.360
 3090SOL     OW21300   6.851   4.720   0.792
 3090SOL    HW121301   6.867   4.628   0.829
 3090SOL    HW221302   6.794   4.713   0.710
 3091SOL     OW21303   1.611   8.419   5.426
 3091SOL    HW121304   1.517   8.451   5.410
 3091SOL    HW221305   1.654   8.396   5.339
 3092SOL     OW21306   2.582   5.627   0.583
 3092SOL    HW121307   2.528   5.687   0.642
 3092SOL    HW221308   2.526   5.548   0.558
 3093SOL     OW21309   4.094   2.197   1.892
 3093SOL    HW121310   4.121   2.248   1.811
 3093SOL    HW221311   4.062   2.260   1.962
 3094SOL     OW21312   8.135   6.516   1.245
 3094SOL    HW121313   8.082   6.529   1.329
 3094SOL    HW221314   8.149   6.418   1.228
 3095SOL     OW21315   2.527   7.590   4.892
 3095SOL    HW121316   2.517   7.588   4.792
 3095SOL    HW221317   2.593   7.661   4.917
 3096SOL     OW21318   2.756   7.067   0.338
 3096SOL    HW121319   2.739   7.040   0.243
 3096SOL    HW221320   2.710   7.002   0.400
 3097SOL     OW21321   4.909   0.585   1.225
 3097SOL    HW121322   4.999   0.628   1.221
 3097SOL    HW221323   4.890   0.554   1.319
 3098SOL     OW21324   2.237   2.419   2.000
 3098SOL    HW121325   2.144   2.455   1.985
 3098SOL    HW221326   2.303   2.494   1.993
 3099SOL     OW21327   0.662   1.479   5.693
 3099SOL    HW121328   0.577   1.456   5.646
 3099SOL    HW221329   0.663   1.576   5.716
 3100SOL     OW21330   9.157   3.903   0.853
 3100SOL    HW121331   9.065   3.942   0.864
 3100SOL    HW221332   9.176   3.841   0.929
 3101SOL     OW21333   8.404   1.923   6.561
 3101SOL    HW121334   8.350   1.848   6.600
 3101SOL    HW221335   8.482   1.885   6.511
 3102SOL     OW21336   0.847   1.211   6.976
 3102SOL    HW121337   0.750   1.237   6.986
 3102SOL    HW221338   0.884   1.254   6.895
 3103SOL     OW21339   3.171   8.197   1.277
 3103SOL    HW121340   3.161   8.099   1.259
 3103SOL    HW221341   3.192   8.212   1.374
 3104SOL     OW21342   6.689   3.482   1.213
 3104SOL    HW121343   6.649   3.568   1.181
 3104SOL    HW221344   6.680   3.412   1.142
 3105SOL     OW21345   8.132   4.055   5.880
 3105SOL    HW121346   8.111   4.024   5.973
 3105SOL    HW221347   8.107   3.983   5.815
 3106SOL     OW21348   8.975   5.863   6.080
 3106SOL    HW121349   8.926   5.897   6.000
 3106SOL    HW221350   9.070   5.844   6.055
 3107SOL     OW21351   3.368   7.466   2.074
 3107SOL    HW121352   3.401   7.417   2.155
 3107SOL    HW221353   3.368   7.564   2.093
 3108SOL     OW21354   3.420   6.797   6.357
 3108SOL    HW121355   3.515   6.782   6.327
 3108SOL    HW221356   3.405   6.751   6.444
 3109SOL     OW21357   6.857   6.804   5.527
 3109SOL    HW121358   6.930   6.873   5.524
 3109SOL    HW221359   6.842   6.768   5.435
 3110SOL     OW21360   4.081   0.540   1.672
 3110SOL    HW121361   4.162   0.481   1.674
 3110SOL    HW221362   4.110   0.636   1.664
 3111SOL     OW21363   8.045   2.973   6.600
 3111SOL    HW121364   8.006   3.054   6.645
 3111SOL    HW221365   7.976   2.933   6.539
 3112SOL     OW21366   1.838   7.773   5.745
 3112SOL    HW121367   1.883   7.791   5.658
 3112SOL    HW221368   1.901   7.792   5.820
 3113SOL     OW21369   8.651   5.966   0.996
 3113SOL    HW121370   8.606   5.905   0.931
 3113SOL    HW221371   8.745   5.984   0.965
 3114SOL     OW21372   5.278   8.081   2.324
 3114SOL    HW121373   5.363   8.116   2.362
 3114SOL    HW221374   5.277   7.981   2.331
 3115SOL     OW21375   7.879   0.944   5.997
 3115SOL    HW121376   7.920   0.908   5.914
 3115SOL    HW221377   7.781   0.958   5.983
 3116SOL     OW21378   1.825   2.391   6.514
 3116SOL    HW121379   1.726   2.391   6.500
 3116SOL    HW221380   1.849   2.460   6.582
 3117SOL     OW21381   8.870  -0.063   6.126
 3117SOL    HW121382   8.857  -0.112   6.212
 3117SOL    HW221383   8.927   0.018   6.142
 3118SOL     OW21384   8.701   2.694   1.359
 3118SOL    HW121385   8.740   2.680   1.450
 3118SOL    HW221386   8.775   2.706   1.293
 3119SOL     OW21387   1.621   2.348   5.471
 3119SOL    HW121388   1.576   2.271   5.426
 3119SOL    HW221389   1.701   2.375   5.418
 3120SOL     OW21390   6.586   1.807   5.614
 3120SOL    HW121391   6.622   1.715   5.631
 3120SOL    HW221392   6.487   1.805   5.617
 3121SOL     OW21393   4.497   0.812   1.658
 3121SOL    HW121394   4.401   0.786   1.662
 3121SOL    HW221395   4.508   0.904   1.696
 3122SOL     OW21396   6.250   6.128   5.739
 3122SOL    HW121397   6.295   6.101   5.824
 3122SOL    HW221398   6.157   6.092   5.738
 3123SOL     OW21399   9.443   1.099   5.829
 3123SOL    HW121400   9.379   1.025   5.851
 3123SOL    HW221401   9.535   1.073   5.859
 3124SOL     OW21402   5.362   7.999   0.491
 3124SOL    HW121403   5.450   8.044   0.506
 3124SOL    HW221404   5.314   8.043   0.415
 3125SOL     OW21405   2.565   4.084   6.949
 3125SOL    HW121406   2.501   4.044   7.015
 3125SOL    HW221407   2.514   4.119   6.870
 3126SOL     OW21408   0.808   5.674   5.539
 3126SOL    HW121409   0.886   5.616   5.562
 3126SOL    HW221410   0.744   5.623   5.481
 3127SOL     OW21411   1.345   3.027   1.199
 3127SOL    HW121412   1.384   3.101   1.253
 3127SOL    HW221413   1.290   3.064   1.125
 3128SOL     OW21414   8.382   2.143   0.821
 3128SOL    HW121415   8.389   2.210   0.748
 3128SOL    HW221416   8.466   2.090   0.826
 3129SOL     OW21417   1.321   2.437   0.476
 3129SOL    HW121418   1.301   2.450   0.573
 3129SOL    HW221419   1.285   2.349   0.446
 3130SOL     OW21420   4.668   0.238   5.756
 3130SOL    HW121421   4.728   0.317   5.746
 3130SOL    HW221422   4.635   0.209   5.666
 3131SOL     OW21423   6.773   1.587   2.107
 3131SOL    HW121424   6.765   1.507   2.167
 3131SOL    HW221425   6.693   1.645   2.118
 3132SOL     OW21426   6.794   5.994   1.200
 3132SOL    HW121427   6.826   6.085   1.226
 3132SOL    HW221428   6.860   5.925   1.230
 3133SOL     OW21429   4.196   1.054   6.558
 3133SOL    HW121430   4.284   1.046   6.604
 3133SOL    HW221431   4.129   1.095   6.620
 3134SOL     OW21432   4.402   7.106   1.333
 3134SOL    HW121433   4.338   7.183   1.344
 3134SOL    HW221434   4.474   7.113   1.401
 3135SOL     OW21435   7.360   2.644   1.343
 3135SOL    HW121436   7.435   2.709   1.327
 3135SOL    HW221437   7.306   2.674   1.422
 3136SOL     OW21438   1.118   2.823   0.583
 3136SOL    HW121439   1.168   2.814   0.497
 3136SOL    HW221440   1.136   2.744   0.641
 3137SOL     OW21441   1.655   0.015   1.875
 3137SOL    HW121442   1.594  -0.063   1.888
 3137SOL    HW221443   1.750  -0.014   1.887
 3138SOL     OW21444   5.915   5.667   1.419
 3138SOL    HW121445   5.962   5.585   1.450
 3138SOL    HW221446   5.900   5.662   1.320
 3139SOL     OW21447   3.238   4.765   1.428
 3139SOL    HW121448   3.249   4.721   1.340
 3139SOL    HW221449   3.185   4.706   1.489
 3140SOL     OW21450   5.484   4.791   5.975
 3140SOL    HW121451   5.471   4.799   6.074
 3140SOL    HW221452   5.396   4.803   5.929
 3141SOL     OW21453   5.302   6.804   6.563
 3141SOL    HW121454   5.358   6.754   6.629
 3141SOL    HW221455   5.283   6.746   6.485
 3142SOL     OW21456   6.795   2.230   1.525
 3142SOL    HW121457   6.740   2.146   1.528
 3142SOL    HW221458   6.736   2.308   1.505
 3143SOL     OW21459   2.233   6.349   6.066
 3143SOL    HW121460   2.318   6.314   6.106
 3143SOL    HW221461   2.208   6.292   5.987
 3144SOL     OW21462   2.937   0.998   0.706
 3144SOL    HW121463   2.855   0.941   0.702
 3144SOL    HW221464   3.017   0.939   0.721
 3145SOL     OW21465   8.681   6.678   6.743
 3145SOL    HW121466   8.712   6.766   6.706
 3145SOL    HW221467   8.601   6.693   6.801
 3146SOL     OW21468   7.371   1.281   0.437
 3146SOL    HW121469   7.415   1.331   0.362
 3146SOL    HW221470   7.428   1.286   0.519
 3147SOL     OW21471   4.033   6.908   6.405
 3147SOL    HW121472   4.080   6.928   6.319
 3147SOL    HW221473   3.943   6.952   6.404
 3148SOL     OW21474   8.921   5.492   6.541
 3148SOL    HW121475   8.929   5.587   6.572
 3148SOL    HW221476   8.953   5.486   6.446
 3149SOL     OW21477   4.504   6.911   6.907
 3149SOL    HW121478   4.481   6.844   6.836
 3149SOL    HW221479   4.496   7.003   6.870
 3150SOL     OW21480   2.725   8.062   0.706
 3150SOL    HW121481   2.669   7.995   0.658
 3150SOL    HW221482   2.822   8.041   0.693
 3151SOL     OW21483   4.992   6.160   6.609
 3151SOL    HW121484   4.942   6.089   6.559
 3151SOL    HW221485   4.930   6.210   6.669
 3152SOL     OW21486   5.574   0.472   4.830
 3152SOL    HW121487   5.554   0.406   4.902
 3152SOL    HW221488   5.526   0.445   4.746
 3153SOL     OW21489   0.677   5.748   1.223
 3153SOL    HW121490   0.722   5.837   1.217
 3153SOL    HW221491   0.648   5.731   1.317
 3154SOL     OW21492   7.066   5.652   1.847
 3154SOL    HW121493   6.970   5.667   1.873
 3154SOL    HW221494   7.126   5.683   1.920
 3155SOL     OW21495   0.346   8.030   5.774
 3155SOL    HW121496   0.329   8.111   5.717
 3155SOL    HW221497   0.345   8.055   5.870
 3156SOL     OW21498   2.698   2.208   6.917
 3156SOL    HW121499   2.635   2.199   6.840
 3156SOL    HW221500   2.656   2.167   6.998
 3157SOL     OW21501   2.257   6.246   6.989
 3157SOL    HW121502   2.344   6.229   6.944
 3157SOL    HW221503   2.263   6.219   7.085
 3158SOL     OW21504   4.094   7.508   6.300
 3158SOL    HW121505   4.178   7.457   6.316
 3158SOL    HW221506   4.113   7.606   6.304
 3159SOL     OW21507   6.283   5.182   6.350
 3159SOL    HW121508   6.355   5.127   6.308
 3159SOL    HW221509   6.196   5.165   6.302
 3160SOL     OW21510   4.495   4.114   2.322
 3160SOL    HW121511   4.570   4.051   2.341
 3160SOL    HW221512   4.518   4.172   2.245
 3161SOL     OW21513   4.890   1.349   5.639
 3161SOL    HW121514   4.797   1.314   5.650
 3161SOL    HW221515   4.889   1.428   5.578
 3162SOL     OW21516   4.342   3.199   5.949
 3162SOL    HW121517   4.329   3.224   5.853
 3162SOL    HW221518   4.351   3.282   6.004
 3163SOL     OW21519   8.647   4.248   0.410
 3163SOL    HW121520   8.664   4.346   0.398
 3163SOL    HW221521   8.731   4.204   0.444
 3164SOL     OW21522   4.378   6.085   6.411
 3164SOL    HW121523   4.332   6.106   6.498
 3164SOL    HW221524   4.321   6.023   6.357
 3165SOL     OW21525   6.665   7.070   5.314
 3165SOL    HW121526   6.750   7.056   5.263
 3165SOL    HW221527   6.610   6.986   5.310
 3166SOL     OW21528   1.515   3.714   1.581
 3166SOL    HW121529   1.452   3.677   1.513
 3166SOL    HW221530   1.572   3.640   1.618
 3167SOL     OW21531   5.787   7.318   5.391
 3167SOL    HW121532   5.831   7.408   5.384
 3167SOL    HW221533   5.709   7.314   5.329
 3168SOL     OW21534   8.362   4.422   1.508
 3168SOL    HW121535   8.289   4.356   1.489
 3168SOL    HW221536   8.322   4.513   1.520
 3169SOL     OW21537   0.467   4.879   0.864
 3169SOL    HW121538   0.559   4.861   0.829
 3169SOL    HW221539   0.399   4.858   0.794
 3170SOL     OW21540   5.678   6.533   6.641
 3170SOL    HW121541   5.637   6.454   6.595
 3170SOL    HW221542   5.693   6.606   6.574
 3171SOL     OW21543   2.102   4.705   6.752
 3171SOL    HW121544   2.160   4.786   6.748
 3171SOL    HW221545   2.101   4.660   6.663
 3172SOL     OW21546   7.562   6.278   6.262
 3172SOL    HW121547   7.598   6.352   6.204
 3172SOL    HW221548   7.562   6.192   6.211
 3173SOL     OW21549   1.055   0.526   6.243
 3173SOL    HW121550   1.085   0.531   6.148
 3173SOL    HW221551   1.099   0.449   6.288
 3174SOL     OW21552   5.014   1.329   6.691
 3174SOL    HW121553   5.096   1.304   6.744
 3174SOL    HW221554   4.963   1.400   6.739
 3175SOL     OW21555   6.660   2.450   2.315
 3175SOL    HW121556   6.622   2.492   2.397
 3175SOL    HW221557   6.744   2.498   2.289
 3176SOL     OW21558   2.690   2.789   1.585
 3176SOL    HW121559   2.767   2.852   1.589
 3176SOL    HW221560   2.719   2.703   1.541
 3177SOL     OW21561   8.854   3.559   0.645
 3177SOL    HW121562   8.915   3.481   0.662
 3177SOL    HW221563   8.794   3.536   0.568
 3178SOL     OW21564   6.895   4.643   6.906
 3178SOL    HW121565   6.911   4.683   6.816
 3178SOL    HW221566   6.891   4.543   6.897
 3179SOL     OW21567   1.027   2.642   1.774
 3179SOL    HW121568   0.934   2.635   1.810
 3179SOL    HW221569   1.093   2.615   1.845
 3180SOL     OW21570   4.824   4.048   5.575
 3180SOL    HW121571   4.746   3.988   5.558
 3180SOL    HW221572   4.895   3.999   5.625
 3181SOL     OW21573   8.732   7.267   0.460
 3181SOL    HW121574   8.773   7.284   0.370
 3181SOL    HW221575   8.684   7.179   0.459
 3182SOL     OW21576   7.979   7.212   1.250
 3182SOL    HW121577   7.984   7.287   1.315
 3182SOL    HW221578   8.070   7.195   1.212
 3183SOL     OW21579   7.753   7.448   6.880
 3183SOL    HW121580   7.722   7.539   6.908
 3183SOL    HW221581   7.677   7.399   6.837
 3184SOL     OW21582   5.836   3.291   1.522
 3184SOL    HW121583   5.917   3.320   1.573
 3184SOL    HW221584   5.796   3.211   1.567
 3185SOL     OW21585   2.847   0.253   1.669
 3185SOL    HW121586   2.805   0.229   1.582
 3185SOL    HW221587   2.819   0.187   1.739
 3186SOL     OW21588   8.393   7.683   5.252
 3186SOL    HW121589   8.341   7.757   5.210
 3186SOL    HW221590   8.461   7.720   5.314
 3187SOL     OW21591   1.712   0.384   6.167
 3187SOL    HW121592   1.663   0.428   6.092
 3187SOL    HW221593   1.681   0.422   6.254
 3188SOL     OW21594   4.844   5.415   1.878
 3188SOL    HW121595   4.798   5.355   1.943
 3188SOL    HW221596   4.798   5.504   1.875
 3189SOL     OW21597   5.201   6.830   1.410
 3189SOL    HW121598   5.123   6.870   1.457
 3189SOL    HW221599   5.231   6.891   1.338
 3190SOL     OW21600   4.252   4.741   1.456
 3190SOL    HW121601   4.184   4.673   1.428
 3190SOL    HW221602   4.335   4.730   1.402
 3191SOL     OW21603   6.406   1.514   1.622
 3191SOL    HW121604   6.325   1.481   1.574
 3191SOL    HW221605   6.462   1.568   1.559
 3192SOL     OW21606   3.458   6.109   1.528
 3192SOL    HW121607   3.360   6.121   1.548
 3192SOL    HW221608   3.497   6.041   1.590
 3193SOL     OW21609   8.739   6.080   5.562
 3193SOL    HW121610   8.705   6.055   5.653
 3193SOL    HW221611   8.762   5.997   5.511
 3194SOL     OW21612   4.531   5.993   1.403
 3194SOL    HW121613   4.504   6.077   1.448
 3194SOL    HW221614   4.461   5.923   1.415
 3195SOL     OW21615   4.826   5.162   0.782
 3195SOL    HW121616   4.792   5.211   0.702
 3195SOL    HW221617   4.757   5.095   0.812
 3196SOL     OW21618   6.946   0.243   1.037
 3196SOL    HW121619   6.948   0.167   1.103
 3196SOL    HW221620   6.982   0.211   0.949
 3197SOL     OW21621   8.275   4.252   6.597
 3197SOL    HW121622   8.346   4.224   6.533
 3197SOL    HW221623   8.189   4.266   6.548
 3198SOL     OW21624   0.944   6.718   5.590
 3198SOL    HW121625   0.869   6.757   5.537
 3198SOL    HW221626   1.000   6.792   5.628
 3199SOL     OW21627   7.642   5.600   1.424
 3199SOL    HW121628   7.625   5.551   1.509
 3199SOL    HW221629   7.732   5.643   1.427
 3200SOL     OW21630   5.493   4.850   1.196
 3200SOL    HW121631   5.533   4.761   1.170
 3200SOL    HW221632   5.563   4.921   1.187
 3201SOL     OW21633   4.145   6.656   5.599
 3201SOL    HW121634   4.078   6.701   5.657
 3201SOL    HW221635   4.137   6.557   5.609
 3202SOL     OW21636   4.334   0.196   0.785
 3202SOL    HW121637   4.362   0.181   0.880
 3202SOL    HW221638   4.290   0.114   0.750
 3203SOL     OW21639   5.042   8.146   6.425
 3203SOL    HW121640   5.127   8.196   6.443
 3203SOL    HW221641   5.006   8.109   6.511
 3204SOL     OW21642   0.337   5.441   0.502
 3204SOL    HW121643   0.241   5.412   0.500
 3204SOL    HW221644   0.392   5.369   0.545
 3205SOL     OW21645   0.604   8.418   6.690
 3205SOL    HW121646   0.538   8.346   6.669
 3205SOL    HW221647   0.695   8.378   6.696
 3206SOL     OW21648   2.360   2.491   5.938
 3206SOL    HW121649   2.424   2.550   5.986
 3206SOL    HW221650   2.279   2.477   5.994
 3207SOL     OW21651   5.131  -0.032   0.769
 3207SOL    HW121652   5.120   0.010   0.859
 3207SOL    HW221653   5.041  -0.042   0.727
 3208SOL     OW21654   0.470   5.193   6.687
 3208SOL    HW121655   0.499   5.288   6.701
 3208SOL    HW221656   0.388   5.191   6.631
 3209SOL     OW21657   1.594   4.255   6.041
 3209SOL    HW121658   1.562   4.318   6.112
 3209SOL    HW221659   1.623   4.307   5.961
 3210SOL     OW21660   2.527   4.804   6.685
 3210SOL    HW121661   2.511   4.790   6.783
 3210SOL    HW221662   2.625   4.807   6.667
 3211SOL     OW21663   0.297   4.812   1.055
 3211SOL    HW121664   0.320   4.826   1.151
 3211SOL    HW221665   0.365   4.857   0.997
 3212SOL     OW21666   0.340   0.949   6.520
 3212SOL    HW121667   0.369   0.856   6.543
 3212SOL    HW221668   0.391   1.013   6.578
 3213SOL     OW21669   7.277   7.902   6.529
 3213SOL    HW121670   7.263   7.998   6.506
 3213SOL    HW221671   7.332   7.858   6.458
 3214SOL     OW21672   0.988   2.036   5.964
 3214SOL    HW121673   1.072   2.000   6.006
 3214SOL    HW221674   1.013   2.102   5.893
 3215SOL     OW21675   6.599   4.356   6.582
 3215SOL    HW121676   6.535   4.335   6.656
 3215SOL    HW221677   6.570   4.310   6.499
 3216SOL     OW21678   1.194   5.622   1.498
 3216SOL    HW121679   1.294   5.624   1.496
 3216SOL    HW221680   1.162   5.650   1.589
 3217SOL     OW21681   3.658   4.230   0.938
 3217SOL    HW121682   3.663   4.162   1.012
 3217SOL    HW221683   3.748   4.237   0.894
 3218SOL     OW21684   8.662   0.775   5.824
 3218SOL    HW121685   8.568   0.809   5.824
 3218SOL    HW221686   8.685   0.741   5.732
 3219SOL     OW21687   0.158   5.397   5.325
 3219SOL    HW121688   0.238   5.354   5.283
 3219SOL    HW221689   0.091   5.327   5.349
 3220SOL     OW21690   4.409   7.986   0.362
 3220SOL    HW121691   4.496   7.961   0.320
 3220SOL    HW221692   4.423   8.006   0.459
 3221SOL     OW21693   3.155   6.334   0.547
 3221SOL    HW121694   3.205   6.385   0.617
 3221SOL    HW221695   3.083   6.279   0.590
 3222SOL     OW21696   8.698   2.310   0.627
 3222SOL    HW121697   8.600   2.322   0.646
 3222SOL    HW221698   8.734   2.391   0.582
 3223SOL     OW21699   5.292   2.782   6.705
 3223SOL    HW121700   5.389   2.791   6.685
 3223SOL    HW221701   5.268   2.685   6.713
 3224SOL     OW21702   2.052   1.884   1.144
 3224SOL    HW121703   2.001   1.922   1.221
 3224SOL    HW221704   2.004   1.804   1.109
 3225SOL     OW21705   9.592   3.830   0.730
 3225SOL    HW121706   9.540   3.815   0.647
 3225SOL    HW221707   9.557   3.910   0.778
 3226SOL     OW21708   2.235   4.929   0.766
 3226SOL    HW121709   2.156   4.868   0.777
 3226SOL    HW221710   2.289   4.929   0.851
 3227SOL     OW21711   3.753   6.372   1.678
 3227SOL    HW121712   3.851   6.380   1.696
 3227SOL    HW221713   3.703   6.381   1.764
 3228SOL     OW21714   2.243   1.336   5.404
 3228SOL    HW121715   2.213   1.417   5.353
 3228SOL    HW221716   2.243   1.256   5.344
 3229SOL     OW21717   6.088   7.652   0.471
 3229SOL    HW121718   6.017   7.585   0.450
 3229SOL    HW221719   6.164   7.642   0.406
 3230SOL     OW21720   8.832   7.141   5.484
 3230SOL    HW121721   8.831   7.056   5.431
 3230SOL    HW221722   8.831   7.120   5.582
 3231SOL     OW21723   7.959   7.786   6.693
 3231SOL    HW121724   7.869   7.809   6.654
 3231SOL    HW221725   7.953   7.785   6.793
 3232SOL     OW21726   2.052   2.037   6.845
 3232SOL    HW121727   2.013   1.950   6.813
 3232SOL    HW221728   2.016   2.058   6.935
 3233SOL     OW21729   5.921   7.760   1.192
 3233SOL    HW121730   5.923   7.739   1.289
 3233SOL    HW221731   5.905   7.857   1.179
 3234SOL     OW21732   7.456   0.531   6.514
 3234SOL    HW121733   7.405   0.589   6.578
 3234SOL    HW221734   7.480   0.445   6.558
 3235SOL     OW21735   4.478   0.598   2.536
 3235SOL    HW121736   4.382   0.612   2.560
 3235SOL    HW221737   4.515   0.681   2.495
 3236SOL     OW21738   6.526   5.944   5.870
 3236SOL    HW121739   6.451   5.993   5.914
 3236SOL    HW221740   6.581   6.009   5.817
 3237SOL     OW21741   1.976   7.970   6.775
 3237SOL    HW121742   2.014   8.023   6.851
 3237SOL    HW221743   1.887   7.933   6.802
 3238SOL     OW21744   2.825   3.994   1.694
 3238SOL    HW121745   2.914   4.038   1.684
 3238SOL    HW221746   2.834   3.914   1.754
 3239SOL     OW21747   1.667   3.172   5.959
 3239SOL    HW121748   1.702   3.216   6.042
 3239SOL    HW221749   1.667   3.238   5.883
 3240SOL     OW21750   0.545   0.198   0.790
 3240SOL    HW121751   0.538   0.189   0.889
 3240SOL    HW221752   0.584   0.115   0.752
 3241SOL     OW21753   6.064   6.545   1.638
 3241SOL    HW121754   6.122   6.608   1.586
 3241SOL    HW221755   5.976   6.589   1.657
 3242SOL     OW21756   3.068   5.895   0.864
 3242SOL    HW121757   3.160   5.883   0.827
 3242SOL    HW221758   3.015   5.811   0.847
 3243SOL     OW21759   0.189   4.737   0.442
 3243SOL    HW121760   0.232   4.670   0.381
 3243SOL    HW221761   0.214   4.830   0.412
 3244SOL     OW21762   3.482   0.054   6.364
 3244SOL    HW121763   3.570   0.021   6.398
 3244SOL    HW221764   3.411  -0.014   6.384
 3245SOL     OW21765   4.642   5.503   1.504
 3245SOL    HW121766   4.655   5.495   1.405
 3245SOL    HW221767   4.708   5.443   1.551
 3246SOL     OW21768   7.252   1.008   6.601
 3246SOL    HW121769   7.178   0.943   6.582
 3246SOL    HW221770   7.270   1.011   6.699
 3247SOL     OW21771   4.124   6.246   0.453
 3247SOL    HW121772   4.051   6.187   0.419
 3247SOL    HW221773   4.193   6.259   0.382
 3248SOL     OW21774   2.982   1.672   0.852
 3248SOL    HW121775   3.009   1.669   0.948
 3248SOL    HW221776   3.057   1.709   0.798
 3249SOL     OW21777   1.165   3.815   0.831
 3249SOL    HW121778   1.144   3.728   0.874
 3249SOL    HW221779   1.082   3.870   0.824
 3250SOL     OW21780   7.227   3.278   5.590
 3250SOL    HW121781   7.228   3.373   5.559
 3250SOL    HW221782   7.305   3.230   5.552
 3251SOL     OW21783   3.343   5.859   0.752
 3251SOL    HW121784   3.337   5.760   0.762
 3251SOL    HW221785   3.356   5.882   0.656
 3252SOL     OW21786   1.126   0.092   6.184
 3252SOL    HW121787   1.099   0.033   6.260
 3252SOL    HW221788   1.044   0.120   6.133
 3253SOL     OW21789   5.553   7.354   6.633
 3253SOL    HW121790   5.582   7.324   6.542
 3253SOL    HW221791   5.488   7.288   6.671
 3254SOL     OW21792   8.069   6.576   6.065
 3254SOL    HW121793   8.164   6.560   6.094
 3254SOL    HW221794   8.009   6.512   6.112
 3255SOL     OW21795   8.516   3.704   6.180
 3255SOL    HW121796   8.490   3.764   6.104
 3255SOL    HW221797   8.434   3.678   6.232
 3256SOL     OW21798   4.857   7.919   5.322
 3256SOL    HW121799   4.796   7.936   5.244
 3256SOL    HW221800   4.802   7.898   5.403
 3257SOL     OW21801   5.340   7.711   1.241
 3257SOL    HW121802   5.282   7.680   1.317
 3257SOL    HW221803   5.304   7.674   1.155
 3258SOL     OW21804   2.228   6.001   1.640
 3258SOL    HW121805   2.261   6.068   1.706
 3258SOL    HW221806   2.294   5.926   1.631
 3259SOL     OW21807   0.821   8.385   6.307
 3259SOL    HW121808   0.812   8.286   6.319
 3259SOL    HW221809   0.905   8.415   6.354
 3260SOL     OW21810   5.345   4.923   1.434
 3260SOL    HW121811   5.391   5.011   1.440
 3260SOL    HW221812   5.399   4.861   1.377
 3261SOL     OW21813   2.058   8.086   1.159
 3261SOL    HW121814   2.058   7.995   1.117
 3261SOL    HW221815   2.042   8.078   1.257
 3262SOL     OW21816   6.579   5.524   6.440
 3262SOL    HW121817   6.589   5.520   6.340
 3262SOL    HW221818   6.568   5.431   6.476
 3263SOL     OW21819   4.895   1.473   5.004
 3263SOL    HW121820   4.833   1.452   5.079
 3263SOL    HW221821   4.861   1.553   4.954
 3264SOL     OW21822   2.785   6.154   5.712
 3264SOL    HW121823   2.845   6.102   5.773
 3264SOL    HW221824   2.799   6.124   5.618
 3265SOL     OW21825   1.446   0.502   0.417
 3265SOL    HW121826   1.421   0.409   0.390
 3265SOL    HW221827   1.461   0.505   0.516
 3266SOL     OW21828   6.010   4.437   5.881
 3266SOL    HW121829   5.918   4.443   5.842
 3266SOL    HW221830   6.004   4.401   5.974
 3267SOL     OW21831   3.982   1.767   5.600
 3267SOL    HW121832   3.997   1.852   5.549
 3267SOL    HW221833   4.025   1.691   5.551
 3268SOL     OW21834   6.645   0.278   5.460
 3268SOL    HW121835   6.658   0.317   5.369
 3268SOL    HW221836   6.552   0.241   5.468
 3269SOL     OW21837   4.898   6.767   0.647
 3269SOL    HW121838   4.912   6.690   0.586
 3269SOL    HW221839   4.825   6.826   0.612
 3270SOL     OW21840   2.036   5.826   0.765
 3270SOL    HW121841   1.996   5.850   0.676
 3270SOL    HW221842   2.125   5.872   0.774
 3271SOL     OW21843   4.285   4.124   1.978
 3271SOL    HW121844   4.368   4.090   1.935
 3271SOL    HW221845   4.267   4.072   2.061
 3272SOL     OW21846   8.610   3.839   6.798
 3272SOL    HW121847   8.651   3.797   6.879
 3272SOL    HW221848   8.652   3.928   6.782
 3273SOL     OW21849   4.371   0.333   0.370
 3273SOL    HW121850   4.414   0.362   0.285
 3273SOL    HW221851   4.404   0.390   0.445
 3274SOL     OW21852   5.279   6.298   5.618
 3274SOL    HW121853   5.268   6.261   5.711
 3274SOL    HW221854   5.367   6.346   5.612
 3275SOL     OW21855   5.772   4.428   1.248
 3275SOL    HW121856   5.768   4.357   1.177
 3275SOL    HW221857   5.824   4.394   1.326
 3276SOL     OW21858   7.375   7.832   0.644
 3276SOL    HW121859   7.301   7.803   0.583
 3276SOL    HW221860   7.384   7.765   0.719
 3277SOL     OW21861   6.999   4.357   0.657
 3277SOL    HW121862   7.093   4.326   0.672
 3277SOL    HW221863   6.959   4.305   0.581
 3278SOL     OW21864   2.190   3.338   6.245
 3278SOL    HW121865   2.267   3.391   6.281
 3278SOL    HW221866   2.209   3.313   6.150
 3279SOL     OW21867   0.946   0.413   2.061
 3279SOL    HW121868   0.940   0.513   2.052
 3279SOL    HW221869   1.035   0.389   2.099
 3280SOL     OW21870   4.911   1.638   6.596
 3280SOL    HW121871   4.843   1.703   6.563
 3280SOL    HW221872   4.997   1.686   6.617
 3281SOL     OW21873   1.904   2.123   0.995
 3281SOL    HW121874   1.938   2.139   0.902
 3281SOL    HW221875   1.805   2.110   0.992
 3282SOL     OW21876   4.001   5.667   1.184
 3282SOL    HW121877   4.027   5.757   1.150
 3282SOL    HW221878   3.930   5.628   1.126
 3283SOL     OW21879   3.762   7.185   6.693
 3283SOL    HW121880   3.692   7.154   6.757
 3283SOL    HW221881   3.852   7.158   6.728
 3284SOL     OW21882   1.637   2.252   0.512
 3284SOL    HW121883   1.631   2.296   0.422
 3284SOL    HW221884   1.703   2.301   0.569
 3285SOL     OW21885   5.426   3.357   6.470
 3285SOL    HW121886   5.339   3.408   6.473
 3285SOL    HW221887   5.500   3.420   6.445
 3286SOL     OW21888   5.015   7.983   1.198
 3286SOL    HW121889   5.001   7.889   1.169
 3286SOL    HW221890   4.926   8.029   1.204
 3287SOL     OW21891   5.275   1.410   6.144
 3287SOL    HW121892   5.332   1.473   6.092
 3287SOL    HW221893   5.220   1.355   6.081
 3288SOL     OW21894   6.855   0.948   1.061
 3288SOL    HW121895   6.875   0.917   0.968
 3288SOL    HW221896   6.757   0.944   1.077
 3289SOL     OW21897   5.531   5.998   0.708
 3289SOL    HW121898   5.615   5.958   0.744
 3289SOL    HW221899   5.552   6.054   0.628
 3290SOL     OW21900   2.177   2.222   0.687
 3290SOL    HW121901   2.212   2.225   0.594
 3290SOL    HW221902   2.246   2.180   0.747
 3291SOL     OW21903   6.986   7.435   5.667
 3291SOL    HW121904   6.947   7.399   5.582
 3291SOL    HW221905   7.037   7.518   5.647
 3292SOL     OW21906   8.602   1.328   6.799
 3292SOL    HW121907   8.560   1.317   6.889
 3292SOL    HW221908   8.574   1.252   6.740
 3293SOL     OW21909   3.999   7.432   1.270
 3293SOL    HW121910   3.910   7.461   1.305
 3293SOL    HW221911   3.991   7.413   1.172
 3294SOL     OW21912   0.218   6.883   6.417
 3294SOL    HW121913   0.235   6.944   6.494
 3294SOL    HW221914   0.175   6.799   6.450
 3295SOL     OW21915   4.566   7.185   6.871
 3295SOL    HW121916   4.601   7.247   6.941
 3295SOL    HW221917   4.550   7.237   6.786
 3296SOL     OW21918   3.876   0.008   1.256
 3296SOL    HW121919   3.946   0.078   1.268
 3296SOL    HW221920   3.879  -0.027   1.162
 3297SOL     OW21921   5.841   7.709   1.816
 3297SOL    HW121922   5.821   7.792   1.867
 3297SOL    HW221923   5.940   7.703   1.800
 3298SOL     OW21924   5.720   7.626   6.218
 3298SOL    HW121925   5.663   7.657   6.142
 3298SOL    HW221926   5.662   7.602   6.296
 3299SOL     OW21927   7.720   0.320   6.865
 3299SOL    HW121928   7.649   0.284   6.926
 3299SOL    HW221929   7.678   0.353   6.781
 3300SOL     OW21930   6.169   3.986   0.340
 3300SOL    HW121931   6.117   4.006   0.257
 3300SOL    HW221932   6.174   4.068   0.397
 3301SOL     OW21933   6.137   8.346   5.096
 3301SOL    HW121934   6.107   8.305   5.010
 3301SOL    HW221935   6.141   8.446   5.085
 3302SOL     OW21936   3.293   6.589   6.910
 3302SOL    HW121937   3.363   6.518   6.897
 3302SOL    HW221938   3.253   6.580   7.002
 3303SOL     OW21939   7.438   1.802   0.383
 3303SOL    HW121940   7.403   1.827   0.292
 3303SOL    HW221941   7.538   1.792   0.379
 3304SOL     OW21942   0.862   3.008   5.825
 3304SOL    HW121943   0.819   3.009   5.734
 3304SOL    HW221944   0.961   3.017   5.815
 3305SOL     OW21945   4.192   2.793   6.370
 3305SOL    HW121946   4.291   2.784   6.375
 3305SOL    HW221947   4.167   2.838   6.284
 3306SOL     OW21948   5.080   3.989   6.880
 3306SOL    HW121949   5.155   4.053   6.893
 3306SOL    HW221950   4.999   4.038   6.847
 3307SOL     OW21951   2.837   7.871   5.669
 3307SOL    HW121952   2.770   7.892   5.598
 3307SOL    HW221953   2.873   7.779   5.654
 3308SOL     OW21954   8.910   7.713   6.216
 3308SOL    HW121955   8.963   7.788   6.177
 3308SOL    HW221956   8.827   7.749   6.258
 3309SOL     OW21957   6.745   1.946   6.948
 3309SOL    HW121958   6.701   2.030   6.917
 3309SOL    HW221959   6.789   1.901   6.870
 3310SOL     OW21960   2.884   0.630   6.972
 3310SOL    HW121961   2.846   0.694   6.905
 3310SOL    HW221962   2.954   0.677   7.027
 3311SOL     OW21963   8.480   5.835   5.516
 3311SOL    HW121964   8.496   5.750   5.465
 3311SOL    HW221965   8.409   5.888   5.470
 3312SOL     OW21966   6.026   3.213   2.443
 3312SOL    HW121967   6.079   3.167   2.514
 3312SOL    HW221968   5.944   3.160   2.422
 3313SOL     OW21969   8.402   3.928   6.453
 3313SOL    HW121970   8.367   3.980   6.375
 3313SOL    HW221971   8.332   3.924   6.524
 3314SOL     OW21972   9.337   4.260   6.212
 3314SOL    HW121973   9.309   4.272   6.117
 3314SOL    HW221974   9.383   4.172   6.223
 3315SOL     OW21975   6.957   8.286   5.752
 3315SOL    HW121976   7.000   8.198   5.773
 3315SOL    HW221977   6.869   8.292   5.799
 3316SOL     OW21978   3.821   4.857   1.142
 3316SOL    HW121979   3.789   4.833   1.050
 3316SOL    HW221980   3.906   4.806   1.162
 3317SOL     OW21981   6.923   2.610   0.461
 3317SOL    HW121982   6.936   2.684   0.395
 3317SOL    HW221983   6.903   2.525   0.413
 3318SOL     OW21984   2.635   5.961   6.106
 3318SOL    HW121985   2.698   5.971   6.029
 3318SOL    HW221986   2.542   5.986   6.076
 3319SOL     OW21987   6.159   1.499   1.457
 3319SOL    HW121988   6.098   1.543   1.523
 3319SOL    HW221989   6.155   1.548   1.370
 3320SOL     OW21990   5.125   6.616   2.030
 3320SOL    HW121991   5.134   6.592   1.933
 3320SOL    HW221992   5.047   6.567   2.069
 3321SOL     OW21993   3.241   5.612   6.578
 3321SOL    HW121994   3.255   5.599   6.676
 3321SOL    HW221995   3.167   5.551   6.547
 3322SOL     OW21996   0.641   1.734   5.697
 3322SOL    HW121997   0.666   1.816   5.749
 3322SOL    HW221998   0.615   1.760   5.604
 3323SOL     OW21999   1.032   5.553   6.840
 3323SOL    HW122000   1.016   5.616   6.763
 3323SOL    HW222001   0.953   5.555   6.901
 3324SOL     OW22002   0.796   8.346   5.512
 3324SOL    HW122003   0.874   8.390   5.558
 3324SOL    HW222004   0.829   8.295   5.432
 3325SOL     OW22005   9.338   6.354   5.466
 3325SOL    HW122006   9.328   6.330   5.369
 3325SOL    HW222007   9.369   6.449   5.474
 3326SOL     OW22008   3.809   3.686   0.470
 3326SOL    HW122009   3.874   3.690   0.546
 3326SOL    HW222010   3.841   3.745   0.396
 3327SOL     OW22011   4.400   0.117   1.969
 3327SOL    HW122012   4.492   0.084   1.989
 3327SOL    HW222013   4.383   0.201   2.021
 3328SOL     OW22014   3.277   2.310   0.688
 3328SOL    HW122015   3.251   2.405   0.671
 3328SOL    HW222016   3.200   2.251   0.665
 3329SOL     OW22017   9.385   5.049   1.136
 3329SOL    HW122018   9.359   5.140   1.167
 3329SOL    HW222019   9.455   5.012   1.198
 3330SOL     OW22020   7.383   3.254   0.494
 3330SOL    HW122021   7.452   3.195   0.537
 3330SOL    HW222022   7.292   3.215   0.508
 3331SOL     OW22023   1.559   6.343   1.180
 3331SOL    HW122024   1.594   6.309   1.268
 3331SOL    HW222025   1.509   6.270   1.134
 3332SOL     OW22026   8.894   0.300   1.075
 3332SOL    HW122027   8.831   0.297   1.152
 3332SOL    HW222028   8.935   0.210   1.062
 3333SOL     OW22029   4.273   3.993   6.891
 3333SOL    HW122030   4.258   4.075   6.835
 3333SOL    HW222031   4.299   3.917   6.832
 3334SOL     OW22032   3.177   3.390   5.775
 3334SOL    HW122033   3.084   3.354   5.771
 3334SOL    HW222034   3.242   3.318   5.752
 3335SOL     OW22035   5.677   3.360   6.682
 3335SOL    HW122036   5.767   3.316   6.677
 3335SOL    HW222037   5.605   3.291   6.687
 3336SOL     OW22038   4.364   8.261   5.636
 3336SOL    HW122039   4.421   8.327   5.586
 3336SOL    HW222040   4.377   8.170   5.597
 3337SOL     OW22041   0.821   8.001   1.799
 3337SOL    HW122042   0.731   8.001   1.755
 3337SOL    HW222043   0.810   8.009   1.898
 3338SOL     OW22044   7.483   8.398   5.299
 3338SOL    HW122045   7.504   8.321   5.360
 3338SOL    HW222046   7.447   8.363   5.212
 3339SOL     OW22047   1.358   0.249   0.368
 3339SOL    HW122048   1.410   0.190   0.306
 3339SOL    HW222049   1.374   0.220   0.463
 3340SOL     OW22050   2.228   7.099   1.275
 3340SOL    HW122051   2.129   7.101   1.265
 3340SOL    HW222052   2.257   7.007   1.302
 3341SOL     OW22053   4.777   3.199   6.565
 3341SOL    HW122054   4.870   3.227   6.590
 3341SOL    HW222055   4.733   3.272   6.513
 3342SOL     OW22056   4.075   2.662   6.565
 3342SOL    HW122057   3.978   2.638   6.558
 3342SOL    HW222058   4.103   2.714   6.484
 3343SOL     OW22059   3.420   6.783   1.127
 3343SOL    HW122060   3.452   6.845   1.198
 3343SOL    HW222061   3.470   6.800   1.042
 3344SOL     OW22062   5.373   7.945   6.461
 3344SOL    HW122063   5.375   7.995   6.547
 3344SOL    HW222064   5.460   7.897   6.449
 3345SOL     OW22065   2.157   4.505   0.728
 3345SOL    HW122066   2.079   4.502   0.790
 3345SOL    HW222067   2.130   4.470   0.638
 3346SOL     OW22068   7.085   2.353   1.147
 3346SOL    HW122069   7.154   2.373   1.077
 3346SOL    HW222070   7.005   2.312   1.103
 3347SOL     OW22071   6.195   4.303   6.543
 3347SOL    HW122072   6.223   4.257   6.459
 3347SOL    HW222073   6.201   4.402   6.531
 3348SOL     OW22074   4.890   4.424   6.608
 3348SOL    HW122075   4.890   4.350   6.540
 3348SOL    HW222076   4.919   4.509   6.564
 3349SOL     OW22077   0.158   0.243   5.680
 3349SOL    HW122078   0.081   0.194   5.721
 3349SOL    HW222079   0.230   0.256   5.749
 3350SOL     OW22080   3.722   6.612   1.500
 3350SOL    HW122081   3.627   6.641   1.485
 3350SOL    HW222082   3.726   6.546   1.574
 3351SOL     OW22083   1.694   5.210   6.297
 3351SOL    HW122084   1.648   5.154   6.227
 3351SOL    HW222085   1.645   5.201   6.384
 3352SOL     OW22086   4.691   7.320   1.421
 3352SOL    HW122087   4.674   7.234   1.469
 3352SOL    HW222088   4.695   7.395   1.488
 3353SOL     OW22089   6.919   5.486   0.307
 3353SOL    HW122090   6.942   5.583   0.292
 3353SOL    HW222091   7.004   5.432   0.311
 3354SOL     OW22092   0.820   8.269   1.186
 3354SOL    HW122093   0.880   8.212   1.130
 3354SOL    HW222094   0.792   8.349   1.134
 3355SOL     OW22095   4.934   8.278   0.677
 3355SOL    HW122096   5.027   8.251   0.653
 3355SOL    HW222097   4.870   8.239   0.611
 3356SOL     OW22098   2.843   5.387   0.809
 3356SOL    HW122099   2.911   5.402   0.880
 3356SOL    HW222100   2.834   5.289   0.791
 3357SOL     OW22101   6.523   6.840   0.281
 3357SOL    HW122102   6.572   6.892   0.350
 3357SOL    HW222103   6.538   6.881   0.191
 3358SOL     OW22104   8.644   6.452   6.517
 3358SOL    HW122105   8.664   6.370   6.571
 3358SOL    HW222106   8.633   6.530   6.578
 3359SOL     OW22107   8.343   8.233   1.003
 3359SOL    HW122108   8.442   8.246   0.998
 3359SOL    HW222109   8.324   8.139   1.031
 3360SOL     OW22110   7.612   8.408   5.854
 3360SOL    HW122111   7.523   8.398   5.810
 3360SOL    HW222112   7.600   8.442   5.948
 3361SOL     OW22113   0.793   2.983   6.148
 3361SOL    HW122114   0.694   2.976   6.137
 3361SOL    HW222115   0.837   2.983   6.058
 3362SOL     OW22116   3.576   7.986   0.681
 3362SOL    HW122117   3.569   7.918   0.607
 3362SOL    HW222118   3.519   8.065   0.658
 3363SOL     OW22119   8.895   8.200   5.728
 3363SOL    HW122120   8.820   8.202   5.661
 3363SOL    HW222121   8.865   8.153   5.810
 3364SOL     OW22122   2.315   3.506   0.364
 3364SOL    HW122123   2.295   3.408   0.370
 3364SOL    HW222124   2.291   3.539   0.272
 3365SOL     OW22125   5.390   7.626   6.868
 3365SOL    HW122126   5.402   7.623   6.967
 3365SOL    HW222127   5.462   7.682   6.828
 3366SOL     OW22128   5.414  -0.012   2.145
 3366SOL    HW122129   5.435  -0.008   2.242
 3366SOL    HW222130   5.324   0.028   2.128
 3367SOL     OW22131   5.085   1.838   5.511
 3367SOL    HW122132   5.083   1.881   5.601
 3367SOL    HW222133   5.144   1.890   5.450
 3368SOL     OW22134   4.237   0.609   0.827
 3368SOL    HW122135   4.297   0.578   0.753
 3368SOL    HW222136   4.243   0.545   0.904
 3369SOL     OW22137   2.531   4.539   0.574
 3369SOL    HW122138   2.613   4.593   0.559
 3369SOL    HW222139   2.550   4.468   0.642
 3370SOL     OW22140   1.622   0.699   6.318
 3370SOL    HW122141   1.595   0.683   6.223
 3370SOL    HW222142   1.610   0.796   6.340
 3371SOL     OW22143   1.660   2.842   4.898
 3371SOL    HW122144   1.730   2.892   4.846
 3371SOL    HW222145   1.676   2.856   4.996
 3372SOL     OW22146   2.826   4.476   1.332
 3372SOL    HW122147   2.775   4.558   1.357
 3372SOL    HW222148   2.816   4.459   1.234
 3373SOL     OW22149   4.470   7.722   5.611
 3373SOL    HW122150   4.526   7.656   5.660
 3373SOL    HW222151   4.448   7.686   5.520
 3374SOL     OW22152   4.894   1.891   1.006
 3374SOL    HW122153   4.982   1.915   0.966
 3374SOL    HW222154   4.842   1.835   0.941
 3375SOL     OW22155   8.417   7.973   1.379
 3375SOL    HW122156   8.396   7.877   1.359
 3375SOL    HW222157   8.387   7.994   1.472
 3376SOL     OW22158   8.669   6.479   0.642
 3376SOL    HW122159   8.742   6.453   0.704
 3376SOL    HW222160   8.597   6.526   0.694
 3377SOL     OW22161   9.211   2.132   0.329
 3377SOL    HW122162   9.237   2.053   0.385
 3377SOL    HW222163   9.281   2.203   0.337
 3378SOL     OW22164   6.860   4.008   5.387
 3378SOL    HW122165   6.787   4.001   5.318
 3378SOL    HW222166   6.945   3.971   5.348
 3379SOL     OW22167   6.401   7.449   2.067
 3379SOL    HW122168   6.455   7.499   2.134
 3379SOL    HW222169   6.394   7.353   2.095
 3380SOL     OW22170   7.059   5.809   1.612
 3380SOL    HW122171   7.128   5.815   1.540
 3380SOL    HW222172   7.093   5.754   1.688
 3381SOL     OW22173   7.019   6.392   5.848
 3381SOL    HW122174   6.991   6.475   5.800
 3381SOL    HW222175   7.080   6.417   5.924
 3382SOL     OW22176   0.821   0.771   1.444
 3382SOL    HW122177   0.920   0.763   1.437
 3382SOL    HW222178   0.792   0.756   1.539
 3383SOL     OW22179   6.119   6.746   6.179
 3383SOL    HW122180   6.110   6.741   6.079
 3383SOL    HW222181   6.180   6.673   6.210
 3384SOL     OW22182   2.291   5.271   1.447
 3384SOL    HW122183   2.369   5.333   1.437
 3384SOL    HW222184   2.323   5.181   1.476
 3385SOL     OW22185   5.527   5.793   6.554
 3385SOL    HW122186   5.579   5.713   6.585
 3385SOL    HW222187   5.433   5.787   6.586
 3386SOL     OW22188   1.401   2.550   5.857
 3386SOL    HW122189   1.307   2.577   5.879
 3386SOL    HW222190   1.416   2.561   5.759
 3387SOL     OW22191   7.162   7.649   5.638
 3387SOL    HW122192   7.165   7.641   5.538
 3387SOL    HW222193   7.203   7.736   5.665
 3388SOL     OW22194   5.484   6.383   6.513
 3388SOL    HW122195   5.455   6.379   6.417
 3388SOL    HW222196   5.513   6.293   6.543
 3389SOL     OW22197   4.315   0.136   1.054
 3389SOL    HW122198   4.373   0.090   1.122
 3389SOL    HW222199   4.221   0.142   1.089
 3390SOL     OW22200   8.722   0.907   0.322
 3390SOL    HW122201   8.743   1.004   0.331
 3390SOL    HW222202   8.798   0.861   0.275
 3391SOL     OW22203   1.352   7.057   0.423
 3391SOL    HW122204   1.419   7.120   0.462
 3391SOL    HW222205   1.351   6.972   0.475
 3392SOL     OW22206   5.862   2.985   6.532
 3392SOL    HW122207   5.792   2.990   6.461
 3392SOL    HW222208   5.865   2.892   6.570
 3393SOL     OW22209   5.838   5.152   0.588
 3393SOL    HW122210   5.905   5.225   0.599
 3393SOL    HW222211   5.779   5.148   0.669
 3394SOL     OW22212   3.109   0.814   0.887
 3394SOL    HW122213   3.195   0.837   0.842
 3394SOL    HW222214   3.115   0.722   0.925
 3395SOL     OW22215   1.726   1.906   1.181
 3395SOL    HW122216   1.820   1.940   1.176
 3395SOL    HW222217   1.663   1.980   1.160
 3396SOL     OW22218   4.485   5.283   6.361
 3396SOL    HW122219   4.489   5.336   6.446
 3396SOL    HW222220   4.477   5.346   6.283
 3397SOL     OW22221   5.002   1.415   5.263
 3397SOL    HW122222   4.912   1.386   5.294
 3397SOL    HW222223   4.995   1.452   5.170
 3398SOL     OW22224   9.102   0.103   0.445
 3398SOL    HW122225   9.021   0.109   0.386
 3398SOL    HW222226   9.100   0.177   0.512
 3399SOL     OW22227   7.577   3.123   6.415
 3399SOL    HW122228   7.664   3.166   6.388
 3399SOL    HW222229   7.555   3.149   6.509
 3400SOL     OW22230   2.195   1.927   5.940
 3400SOL    HW122231   2.224   2.015   5.978
 3400SOL    HW222232   2.204   1.929   5.840
 3401SOL     OW22233   3.286   3.797   1.606
 3401SOL    HW122234   3.295   3.698   1.616
 3401SOL    HW222235   3.193   3.818   1.573
 3402SOL     OW22236   4.472   1.414   1.566
 3402SOL    HW122237   4.570   1.414   1.583
 3402SOL    HW222238   4.431   1.496   1.606
 3403SOL     OW22239   4.862   7.200   6.356
 3403SOL    HW122240   4.859   7.287   6.406
 3403SOL    HW222241   4.930   7.207   6.282
 3404SOL     OW22242   3.635   4.402   1.829
 3404SOL    HW122243   3.653   4.399   1.928
 3404SOL    HW222244   3.603   4.494   1.804
 3405SOL     OW22245   1.480   0.887   6.924
 3405SOL    HW122246   1.451   0.979   6.896
 3405SOL    HW222247   1.483   0.827   6.844
 3406SOL     OW22248   3.343   6.517   1.648
 3406SOL    HW122249   3.309   6.510   1.742
 3406SOL    HW222250   3.279   6.472   1.586
 3407SOL     OW22251   3.913   1.349   6.120
 3407SOL    HW122252   3.933   1.252   6.107
 3407SOL    HW222253   3.837   1.359   6.184
 3408SOL     OW22254   4.351   0.348   2.422
 3408SOL    HW122255   4.351   0.254   2.457
 3408SOL    HW222256   4.375   0.411   2.496
 3409SOL     OW22257   3.243   5.756   6.338
 3409SOL    HW122258   3.215   5.718   6.426
 3409SOL    HW222259   3.224   5.854   6.335
 3410SOL     OW22260   6.978   4.369   6.830
 3410SOL    HW122261   7.057   4.428   6.815
 3410SOL    HW222262   6.947   4.331   6.743
 3411SOL     OW22263   7.070   4.672   1.012
 3411SOL    HW122264   7.102   4.668   0.918
 3411SOL    HW222265   7.149   4.682   1.073
 3412SOL     OW22266   4.594  -0.002   5.926
 3412SOL    HW122267   4.644   0.008   6.012
 3412SOL    HW222268   4.619   0.074   5.865
 3413SOL     OW22269   2.108   4.545   6.530
 3413SOL    HW122270   2.101   4.456   6.575
 3413SOL    HW222271   2.016   4.576   6.505
 3414SOL     OW22272   4.532   3.224   6.980
 3414SOL    HW122273   4.562   3.151   6.919
 3414SOL    HW222274   4.610   3.281   7.005
 3415SOL     OW22275   6.154   2.301   1.310
 3415SOL    HW122276   6.119   2.305   1.216
 3415SOL    HW222277   6.159   2.205   1.339
 3416SOL     OW22278   4.611   5.954   0.431
 3416SOL    HW122279   4.569   5.982   0.517
 3416SOL    HW222280   4.599   6.027   0.363
 3417SOL     OW22281   2.530   6.144   0.908
 3417SOL    HW122282   2.570   6.095   0.831
 3417SOL    HW222283   2.522   6.083   0.987
 3418SOL     OW22284   6.233   2.480   0.430
 3418SOL    HW122285   6.316   2.441   0.391
 3418SOL    HW222286   6.252   2.572   0.464
 3419SOL     OW22287   3.276   0.774   0.585
 3419SOL    HW122288   3.287   0.682   0.547
 3419SOL    HW222289   3.351   0.792   0.649
 3420SOL     OW22290   4.429   7.383   6.046
 3420SOL    HW122291   4.410   7.398   6.143
 3420SOL    HW222292   4.382   7.452   5.991
 3421SOL     OW22293   7.646   5.798   6.889
 3421SOL    HW122294   7.616   5.789   6.984
 3421SOL    HW222295   7.626   5.889   6.855
 3422SOL     OW22296   1.285   5.174   0.929
 3422SOL    HW122297   1.233   5.093   0.955
 3422SOL    HW222298   1.249   5.254   0.977
 3423SOL     OW22299   3.603   4.707   0.872
 3423SOL    HW122300   3.653   4.629   0.909
 3423SOL    HW222301   3.668   4.773   0.833
 3424SOL     OW22302   3.885   6.626   5.410
 3424SOL    HW122303   3.904   6.554   5.344
 3424SOL    HW222304   3.963   6.638   5.471
 3425SOL     OW22305   1.929   2.143   0.613
 3425SOL    HW122306   2.026   2.155   0.638
 3425SOL    HW222307   1.876   2.219   0.650
 3426SOL     OW22308   2.521   6.584   5.186
 3426SOL    HW122309   2.507   6.505   5.128
 3426SOL    HW222310   2.575   6.652   5.137
 3427SOL     OW22311   7.978   1.290   6.812
 3427SOL    HW122312   7.946   1.253   6.725
 3427SOL    HW222313   8.006   1.215   6.872
 3428SOL     OW22314   4.933   5.785   1.717
 3428SOL    HW122315   4.951   5.866   1.772
 3428SOL    HW222316   4.856   5.734   1.756
 3429SOL     OW22317   5.716   4.037   1.348
 3429SOL    HW122318   5.762   4.017   1.435
 3429SOL    HW222319   5.659   4.119   1.359
 3430SOL     OW22320   2.473   1.844   1.867
 3430SOL    HW122321   2.470   1.855   1.966
 3430SOL    HW222322   2.384   1.867   1.829
 3431SOL     OW22323   4.753   1.657   1.203
 3431SOL    HW122324   4.707   1.569   1.212
 3431SOL    HW222325   4.699   1.718   1.145
 3432SOL     OW22326   5.082   5.237   2.257
 3432SOL    HW122327   5.137   5.215   2.337
 3432SOL    HW222328   5.045   5.153   2.217
 3433SOL     OW22329   0.526   5.604   0.395
 3433SOL    HW122330   0.494   5.618   0.301
 3433SOL    HW222331   0.462   5.544   0.443
 3434SOL     OW22332   3.001   5.708   5.934
 3434SOL    HW122333   2.990   5.627   5.877
 3434SOL    HW222334   3.017   5.681   6.029
 3435SOL     OW22335   3.902   2.442   6.845
 3435SOL    HW122336   3.828   2.391   6.801
 3435SOL    HW222337   3.865   2.493   6.922
 3436SOL     OW22338   4.414   4.971   0.862
 3436SOL    HW122339   4.498   5.005   0.904
 3436SOL    HW222340   4.419   4.871   0.854
 3437SOL     OW22341   1.330   6.767   5.609
 3437SOL    HW122342   1.393   6.745   5.534
 3437SOL    HW222343   1.271   6.843   5.581
 3438SOL     OW22344   5.621   7.949   1.454
 3438SOL    HW122345   5.537   8.005   1.455
 3438SOL    HW222346   5.598   7.855   1.480
 3439SOL     OW22347   1.548   7.402   6.771
 3439SOL    HW122348   1.579   7.368   6.682
 3439SOL    HW222349   1.476   7.470   6.757
 3440SOL     OW22350   0.791   7.039   6.702
 3440SOL    HW122351   0.762   6.944   6.686
 3440SOL    HW222352   0.719   7.088   6.752
 3441SOL     OW22353   1.657   0.551   1.672
 3441SOL    HW122354   1.735   0.533   1.731
 3441SOL    HW222355   1.573   0.551   1.726
 3442SOL     OW22356   7.469   3.989   6.289
 3442SOL    HW122357   7.533   4.066   6.290
 3442SOL    HW222358   7.483   3.935   6.207
 3443SOL     OW22359   5.702   1.271   6.829
 3443SOL    HW122360   5.606   1.277   6.855
 3443SOL    HW222361   5.710   1.265   6.729
 3444SOL     OW22362   5.875   3.188   6.726
 3444SOL    HW122363   5.867   3.119   6.655
 3444SOL    HW222364   5.917   3.149   6.807
 3445SOL     OW22365   8.927   7.035   0.584
 3445SOL    HW122366   8.943   6.956   0.643
 3445SOL    HW222367   8.839   7.025   0.538
 3446SOL     OW22368   4.401   1.583   0.892
 3446SOL    HW122369   4.311   1.568   0.933
 3446SOL    HW222370   4.461   1.506   0.915
 3447SOL     OW22371   6.832   1.913   0.471
 3447SOL    HW122372   6.842   1.816   0.493
 3447SOL    HW222373   6.825   1.924   0.372
 3448SOL     OW22374   7.561   1.350   6.216
 3448SOL    HW122375   7.490   1.284   6.193
 3448SOL    HW222376   7.583   1.344   6.313
 3449SOL     OW22377   9.442   2.726   6.947
 3449SOL    HW122378   9.470   2.685   7.034
 3449SOL    HW222379   9.400   2.657   6.889
 3450SOL     OW22380   8.043   2.552   6.975
 3450SOL    HW122381   8.079   2.598   6.894
 3450SOL    HW222382   8.026   2.620   7.047
 3451SOL     OW22383   0.764   6.802   2.166
 3451SOL    HW122384   0.761   6.799   2.266
 3451SOL    HW222385   0.854   6.770   2.135
 3452SOL     OW22386   5.532   0.169   6.353
 3452SOL    HW122387   5.597   0.173   6.278
 3452SOL    HW222388   5.472   0.090   6.342
 3453SOL     OW22389   3.896   1.640   6.182
 3453SOL    HW122390   3.906   1.566   6.115
 3453SOL    HW222391   3.977   1.644   6.240
 3454SOL     OW22392   0.671   0.137   5.288
 3454SOL    HW122393   0.692   0.060   5.228
 3454SOL    HW222394   0.705   0.221   5.247
 3455SOL     OW22395   5.991   6.976   6.271
 3455SOL    HW122396   6.058   7.018   6.333
 3455SOL    HW222397   6.029   6.894   6.230
 3456SOL     OW22398   5.437   6.571   0.329
 3456SOL    HW122399   5.353   6.624   0.341
 3456SOL    HW222400   5.508   6.604   0.391
 3457SOL     OW22401   5.357   5.813   1.206
 3457SOL    HW122402   5.308   5.863   1.277
 3457SOL    HW222403   5.345   5.858   1.118
 3458SOL     OW22404   4.395   6.734   2.109
 3458SOL    HW122405   4.383   6.818   2.162
 3458SOL    HW222406   4.347   6.742   2.021
 3459SOL     OW22407   2.070   7.813   5.909
 3459SOL    HW122408   2.125   7.734   5.937
 3459SOL    HW222409   2.122   7.897   5.926
 3460SOL     OW22410   2.028   4.143   6.493
 3460SOL    HW122411   2.017   4.119   6.589
 3460SOL    HW222412   1.941   4.131   6.445
 3461SOL     OW22413   4.450   6.160   6.807
 3461SOL    HW122414   4.531   6.189   6.857
 3461SOL    HW222415   4.463   6.066   6.775
 3462SOL     OW22416   0.289   4.699   6.051
 3462SOL    HW122417   0.282   4.789   6.094
 3462SOL    HW222418   0.266   4.706   5.954
 3463SOL     OW22419   6.081   8.111   1.067
 3463SOL    HW122420   6.138   8.136   1.145
 3463SOL    HW222421   6.131   8.048   1.008
 3464SOL     OW22422   3.775   5.663   0.971
 3464SOL    HW122423   3.729   5.742   0.930
 3464SOL    HW222424   3.858   5.642   0.921
 3465SOL     OW22425   6.082   7.663   1.699
 3465SOL    HW122426   6.169   7.701   1.666
 3465SOL    HW222427   6.100   7.604   1.777
 3466SOL     OW22428   1.301   4.224   1.128
 3466SOL    HW122429   1.320   4.231   1.226
 3466SOL    HW222430   1.360   4.287   1.078
 3467SOL     OW22431   1.659   1.679   1.307
 3467SOL    HW122432   1.709   1.759   1.272
 3467SOL    HW222433   1.638   1.617   1.232
 3468SOL     OW22434   1.211   1.685   6.314
 3468SOL    HW122435   1.200   1.784   6.307
 3468SOL    HW222436   1.126   1.640   6.288
 3469SOL     OW22437   2.891   1.191   2.668
 3469SOL    HW122438   2.869   1.128   2.593
 3469SOL    HW222439   2.866   1.148   2.755
 3470SOL     OW22440   3.898   3.309   1.620
 3470SOL    HW122441   3.876   3.257   1.537
 3470SOL    HW222442   3.824   3.298   1.687
 3471SOL     OW22443   1.338   5.675   6.667
 3471SOL    HW122444   1.384   5.696   6.581
 3471SOL    HW222445   1.400   5.624   6.727
 3472SOL     OW22446   8.728   6.437   4.729
 3472SOL    HW122447   8.821   6.403   4.742
 3472SOL    HW222448   8.664   6.379   4.779
 3473SOL     OW22449   9.260   7.338   5.372
 3473SOL    HW122450   9.289   7.362   5.280
 3473SOL    HW222451   9.160   7.336   5.376
 3474SOL     OW22452   8.425   3.416   0.832
 3474SOL    HW122453   8.346   3.461   0.874
 3474SOL    HW222454   8.444   3.330   0.880
 3475SOL     OW22455   9.382   5.156   0.706
 3475SOL    HW122456   9.403   5.069   0.660
 3475SOL    HW222457   9.283   5.169   0.708
 3476SOL     OW22458   3.423   6.918   0.545
 3476SOL    HW122459   3.492   6.985   0.571
 3476SOL    HW222460   3.385   6.942   0.456
 3477SOL     OW22461   4.531   1.075   1.776
 3477SOL    HW122462   4.528   1.040   1.870
 3477SOL    HW222463   4.582   1.161   1.775
 3478SOL     OW22464   4.000   8.324   6.674
 3478SOL    HW122465   4.073   8.332   6.742
 3478SOL    HW222466   3.992   8.228   6.645
 3479SOL     OW22467   4.974   0.508   6.851
 3479SOL    HW122468   4.965   0.413   6.823
 3479SOL    HW222469   4.911   0.526   6.927
 3480SOL     OW22470   7.301   8.338   6.238
 3480SOL    HW122471   7.249   8.319   6.155
 3480SOL    HW222472   7.330   8.252   6.280
 3481SOL     OW22473   6.710   4.233   1.750
 3481SOL    HW122474   6.651   4.191   1.818
 3481SOL    HW222475   6.691   4.332   1.746
 3482SOL     OW22476   1.723   1.873   6.567
 3482SOL    HW122477   1.801   1.844   6.622
 3482SOL    HW222478   1.754   1.937   6.496
 3483SOL     OW22479   6.733   2.106   0.642
 3483SOL    HW122480   6.803   2.052   0.596
 3483SOL    HW222481   6.724   2.073   0.737
 3484SOL     OW22482   7.720   6.457   0.753
 3484SOL    HW122483   7.782   6.522   0.797
 3484SOL    HW222484   7.673   6.403   0.823
 3485SOL     OW22485   4.451   1.403   0.290
 3485SOL    HW122486   4.488   1.452   0.369
 3485SOL    HW222487   4.518   1.336   0.259
 3486SOL     OW22488   2.969   6.476   5.906
 3486SOL    HW122489   2.887   6.420   5.919
 3486SOL    HW222490   2.956   6.565   5.949
 3487SOL     OW22491   6.731   3.973   5.643
 3487SOL    HW122492   6.783   3.994   5.560
 3487SOL    HW222493   6.669   4.048   5.664
 3488SOL     OW22494   7.156   3.012   6.436
 3488SOL    HW122495   7.188   3.096   6.481
 3488SOL    HW222496   7.231   2.946   6.431
 3489SOL     OW22497   6.161   7.731   5.538
 3489SOL    HW122498   6.227   7.805   5.549
 3489SOL    HW222499   6.110   7.745   5.453
 3490SOL     OW22500   6.428   3.304   6.283
 3490SOL    HW122501   6.477   3.242   6.221
 3490SOL    HW222502   6.475   3.392   6.287
 3491SOL     OW22503   5.103   0.305   4.889
 3491SOL    HW122504   5.075   0.218   4.931
 3491SOL    HW222505   5.154   0.287   4.805
 3492SOL     OW22506   1.336   4.473   0.419
 3492SOL    HW122507   1.299   4.471   0.326
 3492SOL    HW222508   1.435   4.460   0.415
 3493SOL     OW22509   9.139   4.989   6.767
 3493SOL    HW122510   9.088   5.041   6.835
 3493SOL    HW222511   9.224   5.038   6.745
 3494SOL     OW22512   6.265   4.171   6.314
 3494SOL    HW122513   6.349   4.225   6.308
 3494SOL    HW222514   6.253   4.119   6.229
 3495SOL     OW22515   8.062   3.735   1.889
 3495SOL    HW122516   8.040   3.698   1.979
 3495SOL    HW222517   7.981   3.729   1.830
 3496SOL     OW22518   3.922   8.309   6.188
 3496SOL    HW122519   3.957   8.391   6.142
 3496SOL    HW222520   3.929   8.231   6.125
 3497SOL     OW22521   0.653   5.959   5.840
 3497SOL    HW122522   0.612   6.019   5.771
 3497SOL    HW222523   0.586   5.940   5.912
 3498SOL     OW22524   1.316   2.602   6.329
 3498SOL    HW122525   1.320   2.680   6.392
 3498SOL    HW222526   1.254   2.623   6.254
 3499SOL     OW22527   7.747   0.347   5.314
 3499SOL    HW122528   7.754   0.411   5.237
 3499SOL    HW222529   7.738   0.399   5.399
 3500SOL     OW22530   8.241   1.420   0.586
 3500SOL    HW122531   8.303   1.483   0.540
 3500SOL    HW222532   8.172   1.387   0.522
 3501SOL     OW22533   8.117   4.460   1.348
 3501SOL    HW122534   8.172   4.413   1.279
 3501SOL    HW222535   8.079   4.393   1.412
 3502SOL     OW22536   1.126   7.319   4.504
 3502SOL    HW122537   1.194   7.322   4.577
 3502SOL    HW222538   1.149   7.389   4.436
 3503SOL     OW22539   4.874   5.492   5.433
 3503SOL    HW122540   4.926   5.428   5.489
 3503SOL    HW222541   4.924   5.510   5.348
 3504SOL     OW22542   6.487   6.638   1.320
 3504SOL    HW122543   6.441   6.654   1.232
 3504SOL    HW222544   6.542   6.717   1.344
 3505SOL     OW22545   1.683   2.068   0.824
 3505SOL    HW122546   1.724   2.105   0.741
 3505SOL    HW222547   1.589   2.039   0.804
 3506SOL     OW22548   6.196   4.065   6.072
 3506SOL    HW122549   6.273   4.032   6.018
 3506SOL    HW222550   6.113   4.017   6.043
 3507SOL     OW22551   2.049   5.024   0.518
 3507SOL    HW122552   2.077   4.934   0.482
 3507SOL    HW222553   2.114   5.052   0.589
 3508SOL     OW22554   6.395   0.332   6.977
 3508SOL    HW122555   6.423   0.310   7.071
 3508SOL    HW222556   6.300   0.303   6.963
 3509SOL     OW22557   7.130   7.582   5.908
 3509SOL    HW122558   7.138   7.627   5.819
 3509SOL    HW222559   7.034   7.556   5.923
 3510SOL     OW22560   2.389   6.742   0.384
 3510SOL    HW122561   2.322   6.756   0.457
 3510SOL    HW222562   2.345   6.752   0.295
 3511SOL     OW22563   8.454   8.321   1.262
 3511SOL    HW122564   8.413   8.274   1.183
 3511SOL    HW222565   8.395   8.309   1.342
 3512SOL     OW22566   8.900   0.945   5.338
 3512SOL    HW122567   8.942   0.951   5.248
 3512SOL    HW222568   8.800   0.949   5.328
 3513SOL     OW22569   6.810   7.047   0.724
 3513SOL    HW122570   6.891   7.055   0.666
 3513SOL    HW222571   6.790   7.135   0.766
 3514SOL     OW22572   9.575   8.368   5.535
 3514SOL    HW122573   9.515   8.336   5.462
 3514SOL    HW222574   9.528   8.438   5.589
 3515SOL     OW22575   8.514   2.731   0.285
 3515SOL    HW122576   8.548   2.638   0.271
 3515SOL    HW222577   8.572   2.778   0.351
 3516SOL     OW22578   4.529   6.686   1.341
 3516SOL    HW122579   4.623   6.687   1.374
 3516SOL    HW222580   4.488   6.596   1.357
 3517SOL     OW22581   4.791   7.207   5.282
 3517SOL    HW122582   4.861   7.172   5.344
 3517SOL    HW222583   4.820   7.294   5.244
 3518SOL     OW22584   8.525   7.664   1.098
 3518SOL    HW122585   8.456   7.708   1.156
 3518SOL    HW222586   8.489   7.652   1.006
 3519SOL     OW22587   2.836   7.728   6.252
 3519SOL    HW122588   2.822   7.762   6.346
 3519SOL    HW222589   2.869   7.633   6.256
 3520SOL     OW22590   6.915   7.601   0.431
 3520SOL    HW122591   6.879   7.509   0.448
 3520SOL    HW222592   6.864   7.668   0.486
 3521SOL     OW22593   5.790   2.481   6.748
 3521SOL    HW122594   5.861   2.543   6.783
 3521SOL    HW222595   5.833   2.402   6.704
 3522SOL     OW22596   6.641   4.482   1.768
 3522SOL    HW122597   6.697   4.532   1.834
 3522SOL    HW222598   6.545   4.502   1.785
 3523SOL     OW22599   7.850   6.613   6.512
 3523SOL    HW122600   7.781   6.673   6.471
 3523SOL    HW222601   7.929   6.606   6.450
 3524SOL     OW22602   6.641   4.257   1.256
 3524SOL    HW122603   6.564   4.290   1.310
 3524SOL    HW222604   6.621   4.270   1.158
 3525SOL     OW22605   7.012   1.840   0.851
 3525SOL    HW122606   6.937   1.774   0.860
 3525SOL    HW222607   7.049   1.835   0.758
 3526SOL     OW22608   8.275   6.250   1.240
 3526SOL    HW122609   8.370   6.253   1.271
 3526SOL    HW222610   8.233   6.165   1.270
 3527SOL     OW22611   9.137   2.278   6.835
 3527SOL    HW122612   9.148   2.232   6.923
 3527SOL    HW222613   9.100   2.370   6.850
 3528SOL     OW22614   5.948   8.379   1.696
 3528SOL    HW122615   6.005   8.305   1.661
 3528SOL    HW222616   5.969   8.393   1.793
 3529SOL     OW22617   7.401   6.007   6.891
 3529SOL    HW122618   7.380   6.065   6.970
 3529SOL    HW222619   7.417   6.065   6.811
 3530SOL     OW22620   7.029   1.226   1.521
 3530SOL    HW122621   7.087   1.195   1.596
 3530SOL    HW222622   6.993   1.317   1.542
 3531SOL     OW22623   6.914   0.068   1.257
 3531SOL    HW122624   7.011   0.085   1.276
 3531SOL    HW222625   6.898  -0.030   1.246
 3532SOL     OW22626   4.783   4.315   6.022
 3532SOL    HW122627   4.717   4.390   6.016
 3532SOL    HW222628   4.744   4.240   6.075
 3533SOL     OW22629   3.321   7.904   1.102
 3533SOL    HW122630   3.241   7.852   1.134
 3533SOL    HW222631   3.290   7.984   1.051
 3534SOL     OW22632   2.202   5.873   6.039
 3534SOL    HW122633   2.115   5.917   6.064
 3534SOL    HW222634   2.220   5.798   6.102
 3535SOL     OW22635   4.767   0.480   0.292
 3535SOL    HW122636   4.796   0.422   0.368
 3535SOL    HW222637   4.718   0.560   0.327
 3536SOL     OW22638   1.522   4.289   1.551
 3536SOL    HW122639   1.545   4.384   1.572
 3536SOL    HW222640   1.602   4.231   1.569
 3537SOL     OW22641   6.818   5.522   6.698
 3537SOL    HW122642   6.736   5.572   6.667
 3537SOL    HW222643   6.894   5.586   6.708
 3538SOL     OW22644   3.668   0.498   1.329
 3538SOL    HW122645   3.585   0.524   1.280
 3538SOL    HW222646   3.737   0.468   1.263
 3539SOL     OW22647   1.535   6.936   6.127
 3539SOL    HW122648   1.484   6.885   6.058
 3539SOL    HW222649   1.480   6.943   6.210
 3540SOL     OW22650   4.724   0.081   6.937
 3540SOL    HW122651   4.652   0.150   6.947
 3540SOL    HW222652   4.685  -0.004   6.903
 3541SOL     OW22653   4.562   0.329   6.916
 3541SOL    HW122654   4.633   0.393   6.946
 3541SOL    HW222655   4.577   0.306   6.819
 3542SOL     OW22656   6.231   8.263   5.349
 3542SOL    HW122657   6.239   8.166   5.324
 3542SOL    HW222658   6.196   8.314   5.270
 3543SOL     OW22659   8.686  -0.001   5.938
 3543SOL    HW122660   8.622   0.067   5.973
 3543SOL    HW222661   8.757  -0.018   6.006
 3544SOL     OW22662   2.502   2.690   6.069
 3544SOL    HW122663   2.527   2.770   6.015
 3544SOL    HW222664   2.466   2.720   6.158
 3545SOL     OW22665   4.493   6.229   1.996
 3545SOL    HW122666   4.504   6.132   1.976
 3545SOL    HW222667   4.466   6.241   2.092
 3546SOL     OW22668   6.282   0.595   1.465
 3546SOL    HW122669   6.378   0.581   1.441
 3546SOL    HW222670   6.276   0.618   1.562
 3547SOL     OW22671   8.929   7.659   6.538
 3547SOL    HW122672   8.849   7.684   6.483
 3547SOL    HW222673   8.907   7.579   6.594
 3548SOL     OW22674   5.120   3.199   6.038
 3548SOL    HW122675   5.050   3.222   5.970
 3548SOL    HW222676   5.183   3.275   6.049
 3549SOL     OW22677   5.545   6.280   0.875
 3549SOL    HW122678   5.581   6.280   0.782
 3549SOL    HW222679   5.488   6.199   0.889
 3550SOL     OW22680   2.567   4.324   6.566
 3550SOL    HW122681   2.486   4.330   6.508
 3550SOL    HW222682   2.636   4.390   6.535
 3551SOL     OW22683   0.831   3.294   6.773
 3551SOL    HW122684   0.861   3.304   6.868
 3551SOL    HW222685   0.734   3.273   6.770
 3552SOL     OW22686   0.496   2.498   1.029
 3552SOL    HW122687   0.591   2.468   1.030
 3552SOL    HW222688   0.492   2.598   1.022
 3553SOL     OW22689   9.231   0.876   5.900
 3553SOL    HW122690   9.257   0.861   5.995
 3553SOL    HW222691   9.185   0.794   5.865
 3554SOL     OW22692   7.306   6.379   1.333
 3554SOL    HW122693   7.317   6.445   1.258
 3554SOL    HW222694   7.213   6.385   1.368
 3555SOL     OW22695   3.286   5.610   0.489
 3555SOL    HW122696   3.306   5.707   0.500
 3555SOL    HW222697   3.238   5.596   0.402
 3556SOL     OW22698   6.208   6.913   6.676
 3556SOL    HW122699   6.146   6.839   6.648
 3556SOL    HW222700   6.223   6.908   6.774
 3557SOL     OW22701   0.801   3.550   0.988
 3557SOL    HW122702   0.775   3.520   1.080
 3557SOL    HW222703   0.835   3.472   0.936
 3558SOL     OW22704   1.998   7.232   0.909
 3558SOL    HW122705   1.913   7.180   0.900
 3558SOL    HW222706   1.980   7.318   0.956
 3559SOL     OW22707   2.438   0.264   5.573
 3559SOL    HW122708   2.382   0.251   5.491
 3559SOL    HW222709   2.524   0.308   5.547
 3560SOL     OW22710   2.086   7.935   6.271
 3560SOL    HW122711   2.160   7.991   6.306
 3560SOL    HW222712   1.998   7.979   6.292
 3561SOL     OW22713   8.412   3.411   0.302
 3561SOL    HW122714   8.411   3.479   0.229
 3561SOL    HW222715   8.406   3.320   0.262
 3562SOL     OW22716   6.110   3.128   6.883
 3562SOL    HW122717   6.116   3.074   6.799
 3562SOL    HW222718   6.196   3.177   6.898
 3563SOL     OW22719   1.571   2.691   6.080
 3563SOL    HW122720   1.593   2.789   6.084
 3563SOL    HW222721   1.499   2.676   6.012
 3564SOL     OW22722   4.109   2.349   1.254
 3564SOL    HW122723   4.011   2.370   1.254
 3564SOL    HW222724   4.148   2.372   1.344
 3565SOL     OW22725   2.138   1.360   1.956
 3565SOL    HW122726   2.196   1.402   1.886
 3565SOL    HW222727   2.123   1.425   2.031
 3566SOL     OW22728   6.116   0.004   6.726
 3566SOL    HW122729   6.214   0.011   6.705
 3566SOL    HW222730   6.075   0.095   6.722
 3567SOL     OW22731   5.678   6.205   5.742
 3567SOL    HW122732   5.769   6.235   5.714
 3567SOL    HW222733   5.651   6.127   5.686
 3568SOL     OW22734   4.950   0.897   6.918
 3568SOL    HW122735   4.978   0.898   6.822
 3568SOL    HW222736   5.005   0.830   6.968
 3569SOL     OW22737   6.782   6.227   5.924
 3569SOL    HW122738   6.708   6.221   5.856
 3569SOL    HW222739   6.845   6.300   5.897
 3570SOL     OW22740   1.190   0.358   5.181
 3570SOL    HW122741   1.116   0.392   5.123
 3570SOL    HW222742   1.266   0.328   5.124
 3571SOL     OW22743   9.421   0.795   5.681
 3571SOL    HW122744   9.361   0.843   5.745
 3571SOL    HW222745   9.516   0.809   5.708
 3572SOL     OW22746   2.591   0.322   0.486
 3572SOL    HW122747   2.599   0.421   0.474
 3572SOL    HW222748   2.536   0.303   0.568
 3573SOL     OW22749   2.205   4.284   6.664
 3573SOL    HW122750   2.253   4.302   6.578
 3573SOL    HW222751   2.114   4.248   6.643
 3574SOL     OW22752   8.032   6.398   0.373
 3574SOL    HW122753   8.106   6.458   0.341
 3574SOL    HW222754   8.060   6.303   0.361
 3575SOL     OW22755   3.356   6.474   1.323
 3575SOL    HW122756   3.271   6.467   1.376
 3575SOL    HW222757   3.429   6.425   1.370
 3576SOL     OW22758   2.081   3.418   1.564
 3576SOL    HW122759   2.101   3.380   1.655
 3576SOL    HW222760   2.016   3.359   1.517
 3577SOL     OW22761   2.935   3.814   5.475
 3577SOL    HW122762   2.895   3.726   5.450
 3577SOL    HW222763   3.015   3.798   5.533
 3578SOL     OW22764   8.136   6.809   1.293
 3578SOL    HW122765   8.152   6.724   1.243
 3578SOL    HW222766   8.156   6.886   1.232
 3579SOL     OW22767   3.007   1.168   1.770
 3579SOL    HW122768   3.044   1.184   1.679
 3579SOL    HW222769   3.063   1.100   1.818
 3580SOL     OW22770   1.430   2.104   5.900
 3580SOL    HW122771   1.473   2.175   5.844
 3580SOL    HW222772   1.476   2.101   5.989
 3581SOL     OW22773   1.282   3.929   6.858
 3581SOL    HW122774   1.351   3.898   6.792
 3581SOL    HW222775   1.209   3.977   6.809
 3582SOL     OW22776   0.426   0.653   1.393
 3582SOL    HW122777   0.427   0.733   1.453
 3582SOL    HW222778   0.352   0.592   1.421
 3583SOL     OW22779   6.497   4.930   0.756
 3583SOL    HW122780   6.459   5.019   0.732
 3583SOL    HW222781   6.425   4.860   0.752
 3584SOL     OW22782   7.335   5.714   1.696
 3584SOL    HW122783   7.282   5.640   1.737
 3584SOL    HW222784   7.313   5.721   1.598
 3585SOL     OW22785   8.562   8.314   5.533
 3585SOL    HW122786   8.637   8.249   5.517
 3585SOL    HW222787   8.577   8.396   5.479
 3586SOL     OW22788   2.917   2.105   6.795
 3586SOL    HW122789   2.859   2.163   6.851
 3586SOL    HW222790   2.891   2.009   6.809
 3587SOL     OW22791   0.581   8.001   0.459
 3587SOL    HW122792   0.504   7.942   0.485
 3587SOL    HW222793   0.574   8.024   0.362
 3588SOL     OW22794   3.462   6.118   0.814
 3588SOL    HW122795   3.542   6.136   0.757
 3588SOL    HW222796   3.386   6.088   0.757
 3589SOL     OW22797   3.906   0.931   0.992
 3589SOL    HW122798   3.844   0.860   1.026
 3589SOL    HW222799   3.991   0.889   0.962
 3590SOL     OW22800   8.945   0.042   6.673
 3590SOL    HW122801   8.885  -0.033   6.700
 3590SOL    HW222802   8.934   0.060   6.576
 3591SOL     OW22803   6.549   4.760   6.017
 3591SOL    HW122804   6.571   4.857   6.011
 3591SOL    HW222805   6.597   4.710   5.945
 3592SOL     OW22806   1.480   2.299   0.895
 3592SOL    HW122807   1.541   2.333   0.967
 3592SOL    HW222808   1.473   2.199   0.901
 3593SOL     OW22809   5.908   3.952   0.496
 3593SOL    HW122810   5.848   3.907   0.430
 3593SOL    HW222811   5.972   4.011   0.447
 3594SOL     OW22812   9.482   1.478   5.926
 3594SOL    HW122813   9.531   1.474   5.839
 3594SOL    HW222814   9.463   1.385   5.957
 3595SOL     OW22815   0.505   3.843   0.279
 3595SOL    HW122816   0.567   3.795   0.217
 3595SOL    HW222817   0.506   3.798   0.368
 3596SOL     OW22818   2.372   2.759   6.311
 3596SOL    HW122819   2.391   2.842   6.364
 3596SOL    HW222820   2.383   2.679   6.369
 3597SOL     OW22821   4.669   5.759   1.208
 3597SOL    HW122822   4.621   5.847   1.198
 3597SOL    HW222823   4.671   5.734   1.305
 3598SOL     OW22824   3.150   0.363   2.145
 3598SOL    HW122825   3.145   0.425   2.223
 3598SOL    HW222826   3.071   0.377   2.086
 3599SOL     OW22827   5.805   1.292   6.232
 3599SOL    HW122828   5.800   1.219   6.300
 3599SOL    HW222829   5.850   1.259   6.149
 3600SOL     OW22830   7.822   0.905   0.983
 3600SOL    HW122831   7.847   0.857   1.067
 3600SOL    HW222832   7.731   0.946   0.994
 3601SOL     OW22833   5.243  -0.057   0.299
 3601SOL    HW122834   5.339  -0.075   0.322
 3601SOL    HW222835   5.233  -0.054   0.199
 3602SOL     OW22836   5.962   8.375   6.214
 3602SOL    HW122837   6.029   8.437   6.255
 3602SOL    HW222838   5.883   8.367   6.274
 3603SOL     OW22839   6.932   3.518   1.628
 3603SOL    HW122840   6.976   3.449   1.686
 3603SOL    HW222841   6.964   3.609   1.656
 3604SOL     OW22842   5.056   8.291   2.263
 3604SOL    HW122843   4.983   8.293   2.331
 3604SOL    HW222844   5.132   8.234   2.296
 3605SOL     OW22845   8.076   7.677   5.997
 3605SOL    HW122846   8.111   7.621   5.922
 3605SOL    HW222847   8.149   7.694   6.063
 3606SOL     OW22848   1.731   6.317   5.790
 3606SOL    HW122849   1.688   6.408   5.793
 3606SOL    HW222850   1.662   6.248   5.769
 3607SOL     OW22851   6.887   2.926   5.887
 3607SOL    HW122852   6.907   2.865   5.810
 3607SOL    HW222853   6.895   3.021   5.858
 3608SOL     OW22854   1.418   6.846   5.846
 3608SOL    HW122855   1.421   6.945   5.829
 3608SOL    HW222856   1.388   6.799   5.763
 3609SOL     OW22857   4.902   0.293   5.258
 3609SOL    HW122858   4.973   0.225   5.240
 3609SOL    HW222859   4.893   0.354   5.179
 3610SOL     OW22860   6.644   1.061   1.732
 3610SOL    HW122861   6.579   1.001   1.685
 3610SOL    HW222862   6.714   1.091   1.667
 3611SOL     OW22863   0.765   4.152   5.438
 3611SOL    HW122864   0.741   4.059   5.409
 3611SOL    HW222865   0.824   4.195   5.369
 3612SOL     OW22866   7.211   6.737   5.983
 3612SOL    HW122867   7.279   6.805   6.011
 3612SOL    HW222868   7.168   6.766   5.898
 3613SOL     OW22869   3.679   1.433   1.751
 3613SOL    HW122870   3.681   1.415   1.850
 3613SOL    HW222871   3.719   1.523   1.734
 3614SOL     OW22872   8.199   6.587   0.290
 3614SOL    HW122873   8.262   6.587   0.212
 3614SOL    HW222874   8.120   6.644   0.270
 3615SOL     OW22875   2.063   1.950   6.293
 3615SOL    HW122876   1.993   1.882   6.316
 3615SOL    HW222877   2.093   1.997   6.376
 3616SOL     OW22878   3.952   6.710   6.839
 3616SOL    HW122879   3.856   6.704   6.864
 3616SOL    HW222880   4.004   6.640   6.888
 3617SOL     OW22881   6.564   5.178   1.094
 3617SOL    HW122882   6.525   5.264   1.061
 3617SOL    HW222883   6.541   5.166   1.190
 3618SOL     OW22884   3.840   3.185   6.537
 3618SOL    HW122885   3.923   3.136   6.559
 3618SOL    HW222886   3.819   3.174   6.440
 3619SOL     OW22887   3.799   7.574   5.460
 3619SOL    HW122888   3.714   7.523   5.447
 3619SOL    HW222889   3.876   7.521   5.425
 3620SOL     OW22890   3.584   5.817   5.678
 3620SOL    HW122891   3.654   5.888   5.684
 3620SOL    HW222892   3.529   5.831   5.595
 3621SOL     OW22893   8.247   1.301   6.248
 3621SOL    HW122894   8.343   1.296   6.273
 3621SOL    HW222895   8.205   1.210   6.258
 3622SOL     OW22896   2.393   7.889   6.908
 3622SOL    HW122897   2.327   7.912   6.836
 3622SOL    HW222898   2.401   7.966   6.971
 3623SOL     OW22899   3.105   8.114   1.835
 3623SOL    HW122900   3.151   8.136   1.921
 3623SOL    HW222901   3.057   8.195   1.801
 3624SOL     OW22902   2.880   8.430   1.407
 3624SOL    HW122903   2.848   8.524   1.397
 3624SOL    HW222904   2.928   8.421   1.495
 3625SOL     OW22905   3.221   3.844   6.762
 3625SOL    HW122906   3.162   3.921   6.786
 3625SOL    HW222907   3.209   3.822   6.665
 3626SOL     OW22908   2.011   3.639   6.977
 3626SOL    HW122909   1.938   3.614   6.914
 3626SOL    HW222910   1.976   3.702   7.046
 3627SOL     OW22911   6.475   0.444   6.753
 3627SOL    HW122912   6.454   0.393   6.837
 3627SOL    HW222913   6.508   0.380   6.683
 3628SOL     OW22914   5.580   5.026   6.155
 3628SOL    HW122915   5.565   5.052   6.060
 3628SOL    HW222916   5.638   4.945   6.159
 3629SOL     OW22917   1.267   4.398   6.900
 3629SOL    HW122918   1.170   4.423   6.900
 3629SOL    HW222919   1.276   4.299   6.909
 3630SOL     OW22920   6.003   5.801   6.153
 3630SOL    HW122921   5.955   5.780   6.238
 3630SOL    HW222922   6.102   5.788   6.166
 3631SOL     OW22923   8.790   1.374   0.422
 3631SOL    HW122924   8.862   1.443   0.433
 3631SOL    HW222925   8.704   1.409   0.459
 3632SOL     OW22926   5.810   6.078   6.151
 3632SOL    HW122927   5.731   6.107   6.096
 3632SOL    HW222928   5.781   6.007   6.215
 3633SOL     OW22929   1.058   1.554   1.011
 3633SOL    HW122930   1.089   1.463   1.041
 3633SOL    HW222931   1.008   1.545   0.925
 3634SOL     OW22932   9.017   1.088   6.020
 3634SOL    HW122933   9.021   1.183   6.051
 3634SOL    HW222934   9.109   1.049   6.021
 3635SOL     OW22935   9.318   1.945   0.914
 3635SOL    HW122936   9.343   2.033   0.953
 3635SOL    HW222937   9.263   1.894   0.980
 3636SOL     OW22938   7.900   3.546   0.333
 3636SOL    HW122939   7.968   3.618   0.343
 3636SOL    HW222940   7.828   3.558   0.401
 3637SOL     OW22941   2.304   0.425   6.160
 3637SOL    HW122942   2.299   0.499   6.094
 3637SOL    HW222943   2.257   0.451   6.245
 3638SOL     OW22944   8.837   6.935   1.124
 3638SOL    HW122945   8.849   6.979   1.214
 3638SOL    HW222946   8.756   6.974   1.080
 3639SOL     OW22947   1.793   8.100   6.588
 3639SOL    HW122948   1.824   8.177   6.644
 3639SOL    HW222949   1.807   8.015   6.640
 3640SOL     OW22950   3.100   0.049   6.612
 3640SOL    HW122951   3.179   0.110   6.606
 3640SOL    HW222952   3.016   0.103   6.602
 3641SOL     OW22953   1.537   7.215   6.117
 3641SOL    HW122954   1.550   7.116   6.123
 3641SOL    HW222955   1.506   7.239   6.025
 3642SOL     OW22956   0.461   2.771   1.023
 3642SOL    HW122957   0.425   2.787   1.115
 3642SOL    HW222958   0.458   2.856   0.970
 3643SOL     OW22959   1.781   1.428   1.610
 3643SOL    HW122960   1.683   1.414   1.622
 3643SOL    HW222961   1.826   1.426   1.700
 3644SOL     OW22962   6.707   4.707   0.364
 3644SOL    HW122963   6.770   4.679   0.291
 3644SOL    HW222964   6.730   4.800   0.394
 3645SOL     OW22965   6.560   2.143   6.097
 3645SOL    HW122966   6.530   2.106   6.009
 3645SOL    HW222967   6.572   2.242   6.089
 3646SOL     OW22968   1.841   2.607   5.964
 3646SOL    HW122969   1.763   2.591   6.025
 3646SOL    HW222970   1.808   2.639   5.876
 3647SOL     OW22971   8.727   3.344   6.949
 3647SOL    HW122972   8.668   3.356   6.869
 3647SOL    HW222973   8.823   3.347   6.920
 3648SOL     OW22974   1.392   6.549   0.829
 3648SOL    HW122975   1.473   6.490   0.834
 3648SOL    HW222976   1.413   6.629   0.772
 3649SOL     OW22977   1.285   5.770   4.814
 3649SOL    HW122978   1.351   5.793   4.742
 3649SOL    HW222979   1.260   5.674   4.805
 3650SOL     OW22980   2.858   6.069   6.710
 3650SOL    HW122981   2.785   6.016   6.753
 3650SOL    HW222982   2.818   6.147   6.662
 3651SOL     OW22983   4.971   7.141   5.513
 3651SOL    HW122984   4.944   7.045   5.522
 3651SOL    HW222985   5.071   7.146   5.503
 3652SOL     OW22986   5.867   5.797   6.643
 3652SOL    HW122987   5.795   5.798   6.712
 3652SOL    HW222988   5.933   5.725   6.665
 3653SOL     OW22989   0.153   3.989   6.115
 3653SOL    HW122990   0.219   3.916   6.131
 3653SOL    HW222991   0.174   4.066   6.175
 3654SOL     OW22992   9.127   6.248   5.615
 3654SOL    HW122993   9.120   6.300   5.699
 3654SOL    HW222994   9.213   6.271   5.569
 3655SOL     OW22995   7.978   6.730   6.960
 3655SOL    HW122996   7.938   6.765   7.044
 3655SOL    HW222997   7.910   6.676   6.911
 3656SOL     OW22998   7.748   2.317   1.988
 3656SOL    HW122999   7.708   2.249   2.049
 3656SOL    HW223000   7.720   2.409   2.016
 3657SOL     OW23001   7.835   5.602   6.128
 3657SOL    HW123002   7.754   5.638   6.173
 3657SOL    HW223003   7.860   5.662   6.052
 3658SOL     OW23004   7.843   7.151   6.943
 3658SOL    HW123005   7.781   7.085   6.900
 3658SOL    HW223006   7.937   7.134   6.912
 3659SOL     OW23007   2.230   5.917   0.479
 3659SOL    HW123008   2.131   5.906   0.492
 3659SOL    HW223009   2.266   5.838   0.429
 3660SOL     OW23010   5.503   2.841   1.522
 3660SOL    HW123011   5.527   2.923   1.573
 3660SOL    HW223012   5.429   2.862   1.457
 3661SOL     OW23013   0.555   8.162   1.169
 3661SOL    HW123014   0.497   8.138   1.247
 3661SOL    HW223015   0.640   8.203   1.202
 3662SOL     OW23016   0.903   7.596   0.610
 3662SOL    HW123017   0.983   7.610   0.668
 3662SOL    HW223018   0.925   7.530   0.538
 3663SOL     OW23019   2.449   7.186   0.436
 3663SOL    HW123020   2.524   7.249   0.418
 3663SOL    HW223021   2.484   7.092   0.437
 3664SOL     OW23022   3.367   0.564   5.572
 3664SOL    HW123023   3.430   0.594   5.644
 3664SOL    HW223024   3.418   0.548   5.487
 3665SOL     OW23025   3.404   1.543   6.748
 3665SOL    HW123026   3.387   1.620   6.809
 3665SOL    HW223027   3.495   1.505   6.767
 3666SOL     OW23028   3.236   5.606   0.750
 3666SOL    HW123029   3.248   5.527   0.810
 3666SOL    HW223030   3.271   5.584   0.659
 3667SOL     OW23031   3.988   2.744   0.688
 3667SOL    HW123032   4.010   2.790   0.602
 3667SOL    HW223033   3.900   2.698   0.679
 3668SOL     OW23034   7.914   4.194   6.166
 3668SOL    HW123035   7.951   4.109   6.204
 3668SOL    HW223036   7.960   4.272   6.208
 3669SOL     OW23037   4.316   2.405   5.955
 3669SOL    HW123038   4.251   2.460   6.007
 3669SOL    HW223039   4.291   2.406   5.858
 3670SOL     OW23040   2.905   5.422   0.543
 3670SOL    HW123041   2.882   5.411   0.639
 3670SOL    HW223042   2.946   5.512   0.529
 3671SOL     OW23043   8.342   0.304   0.484
 3671SOL    HW123044   8.265   0.338   0.429
 3671SOL    HW223045   8.307   0.250   0.560
 3672SOL     OW23046   3.138   7.198   1.076
 3672SOL    HW123047   3.101   7.223   1.166
 3672SOL    HW223048   3.102   7.109   1.048
 3673SOL     OW23049   3.063   3.739   1.229
 3673SOL    HW123050   3.035   3.809   1.294
 3673SOL    HW223051   3.134   3.681   1.270
 3674SOL     OW23052   6.620   3.874   5.857
 3674SOL    HW123053   6.664   3.910   5.775
 3674SOL    HW223054   6.645   3.778   5.870
 3675SOL     OW23055   7.687   7.557   6.264
 3675SOL    HW123056   7.661   7.461   6.273
 3675SOL    HW223057   7.627   7.603   6.198
 3676SOL     OW23058   3.826   3.364   6.757
 3676SOL    HW123059   3.840   3.311   6.673
 3676SOL    HW223060   3.748   3.326   6.806
 3677SOL     OW23061   8.263   6.192   6.249
 3677SOL    HW123062   8.211   6.189   6.334
 3677SOL    HW223063   8.347   6.244   6.263
 3678SOL     OW23064   2.381   3.046   6.100
 3678SOL    HW123065   2.281   3.034   6.098
 3678SOL    HW223066   2.403   3.140   6.076
 3679SOL     OW23067   6.636   0.895   6.228
 3679SOL    HW123068   6.595   0.864   6.142
 3679SOL    HW223069   6.733   0.914   6.213
 3680SOL     OW23070   2.155   2.308   5.640
 3680SOL    HW123071   2.196   2.227   5.600
 3680SOL    HW223072   2.128   2.289   5.734
 3681SOL     OW23073   5.154   1.012   0.490
 3681SOL    HW123074   5.082   1.071   0.526
 3681SOL    HW223075   5.134   0.916   0.513
 3682SOL     OW23076   0.270   5.026   5.779
 3682SOL    HW123077   0.182   4.984   5.800
 3682SOL    HW223078   0.285   5.023   5.680
 3683SOL     OW23079   8.668   3.070   5.325
 3683SOL    HW123080   8.661   3.157   5.373
 3683SOL    HW223081   8.585   3.054   5.271
 3684SOL     OW23082   6.892   1.148   0.750
 3684SOL    HW123083   6.915   1.107   0.662
 3684SOL    HW223084   6.802   1.115   0.780
 3685SOL     OW23085   4.963   3.123   0.928
 3685SOL    HW123086   4.994   3.029   0.915
 3685SOL    HW223087   4.964   3.146   1.025
 3686SOL     OW23088   9.414   0.751   0.523
 3686SOL    HW123089   9.376   0.737   0.615
 3686SOL    HW223090   9.511   0.728   0.523
 3687SOL     OW23091   5.224   6.251   6.946
 3687SOL    HW123092   5.164   6.331   6.943
 3687SOL    HW223093   5.283   6.257   7.026
 3688SOL     OW23094   8.656   3.174   6.261
 3688SOL    HW123095   8.617   3.220   6.341
 3688SOL    HW223096   8.694   3.086   6.287
 3689SOL     OW23097   3.153   1.668   1.367
 3689SOL    HW123098   3.250   1.661   1.391
 3689SOL    HW223099   3.097   1.655   1.449
 3690SOL     OW23100   1.074   7.753   5.467
 3690SOL    HW123101   0.986   7.708   5.446
 3690SOL    HW223102   1.073   7.846   5.430
 3691SOL     OW23103   6.811   4.439   5.700
 3691SOL    HW123104   6.776   4.516   5.753
 3691SOL    HW223105   6.911   4.435   5.710
 3692SOL     OW23106   4.721   2.934   6.447
 3692SOL    HW123107   4.803   2.886   6.415
 3692SOL    HW223108   4.747   3.001   6.517
 3693SOL     OW23109   5.586   6.210   5.996
 3693SOL    HW123110   5.514   6.270   6.031
 3693SOL    HW223111   5.604   6.231   5.900
 3694SOL     OW23112   6.018   0.777   0.788
 3694SOL    HW123113   5.986   0.812   0.876
 3694SOL    HW223114   5.973   0.827   0.714
 3695SOL     OW23115   8.177   7.033   1.103
 3695SOL    HW123116   8.226   7.120   1.106
 3695SOL    HW223117   8.227   6.969   1.045
 3696SOL     OW23118   7.843   2.439   0.767
 3696SOL    HW123119   7.801   2.433   0.677
 3696SOL    HW223120   7.875   2.533   0.783
 3697SOL     OW23121   9.052   7.173   6.908
 3697SOL    HW123122   9.079   7.113   6.983
 3697SOL    HW223123   9.132   7.193   6.851
 3698SOL     OW23124   0.937   4.787   6.306
 3698SOL    HW123125   0.855   4.842   6.288
 3698SOL    HW223126   0.960   4.735   6.223
 3699SOL     OW23127   8.695   6.703   1.218
 3699SOL    HW123128   8.728   6.665   1.304
 3699SOL    HW223129   8.745   6.787   1.197
 3700SOL     OW23130   1.602   3.730   6.006
 3700SOL    HW123131   1.633   3.753   5.914
 3700SOL    HW223132   1.541   3.802   6.040
 3701SOL     OW23133   7.018   0.443   6.424
 3701SOL    HW123134   7.036   0.541   6.430
 3701SOL    HW223135   7.092   0.400   6.372
 3702SOL     OW23136   1.492   1.453   0.453
 3702SOL    HW123137   1.556   1.526   0.429
 3702SOL    HW223138   1.406   1.494   0.483
 3703SOL     OW23139   0.123   0.051   4.996
 3703SOL    HW123140   0.157   0.045   4.902
 3703SOL    HW223141   0.076   0.138   5.009
 3704SOL     OW23142   1.081   2.456   1.232
 3704SOL    HW123143   0.996   2.508   1.244
 3704SOL    HW223144   1.089   2.427   1.136
 3705SOL     OW23145   9.008   1.570   0.459
 3705SOL    HW123146   8.978   1.634   0.388
 3705SOL    HW223147   9.031   1.621   0.541
 3706SOL     OW23148   5.644   4.840   6.997
 3706SOL    HW123149   5.607   4.928   7.029
 3706SOL    HW223150   5.661   4.781   7.076
 3707SOL     OW23151   4.107   4.740   0.866
 3707SOL    HW123152   4.094   4.836   0.842
 3707SOL    HW223153   4.052   4.719   0.948
 3708SOL     OW23154   0.593   0.421   5.490
 3708SOL    HW123155   0.568   0.427   5.393
 3708SOL    HW223156   0.541   0.488   5.543
 3709SOL     OW23157   7.138   6.697   6.714
 3709SOL    HW123158   7.109   6.791   6.732
 3709SOL    HW223159   7.225   6.698   6.663
 3710SOL     OW23160   9.084   4.173   0.441
 3710SOL    HW123161   9.051   4.246   0.381
 3710SOL    HW223162   9.183   4.183   0.454
 3711SOL     OW23163   6.126   2.483   6.858
 3711SOL    HW123164   6.119   2.388   6.830
 3711SOL    HW223165   6.095   2.492   6.953
 3712SOL     OW23166   3.128   2.809   1.395
 3712SOL    HW123167   3.152   2.856   1.480
 3712SOL    HW223168   3.051   2.855   1.351
 3713SOL     OW23169   3.675   4.010   0.773
 3713SOL    HW123170   3.653   4.076   0.844
 3713SOL    HW223171   3.721   4.056   0.697
 3714SOL     OW23172   6.159   1.860   1.376
 3714SOL    HW123173   6.132   1.793   1.445
 3714SOL    HW223174   6.138   1.952   1.410
 3715SOL     OW23175   7.613   5.601   5.629
 3715SOL    HW123176   7.609   5.616   5.530
 3715SOL    HW223177   7.560   5.672   5.675
 3716SOL     OW23178   8.415   4.292   0.288
 3716SOL    HW123179   8.504   4.260   0.321
 3716SOL    HW223180   8.382   4.230   0.217
 3717SOL     OW23181   9.018   5.987   5.687
 3717SOL    HW123182   8.966   5.937   5.618
 3717SOL    HW223183   9.073   6.058   5.643
 3718SOL     OW23184   2.948   5.689   5.297
 3718SOL    HW123185   2.923   5.695   5.201
 3718SOL    HW223186   2.945   5.594   5.327
 3719SOL     OW23187   0.220   4.025   0.396
 3719SOL    HW123188   0.293   4.016   0.328
 3719SOL    HW223189   0.244   4.098   0.460
 3720SOL     OW23190   3.405   4.659   2.045
 3720SOL    HW123191   3.427   4.574   2.093
 3720SOL    HW223192   3.402   4.735   2.110
 3721SOL     OW23193   2.078   5.137   6.859
 3721SOL    HW123194   2.094   5.115   6.763
 3721SOL    HW223195   2.042   5.230   6.867
 3722SOL     OW23196   6.208   4.973   5.986
 3722SOL    HW123197   6.299   4.952   6.022
 3722SOL    HW223198   6.215   4.997   5.889
 3723SOL     OW23199   1.879   1.278   0.673
 3723SOL    HW123200   1.781   1.278   0.654
 3723SOL    HW223201   1.896   1.241   0.764
 3724SOL     OW23202   2.041   0.605   6.531
 3724SOL    HW123203   2.115   0.649   6.481
 3724SOL    HW223204   2.043   0.506   6.513
 3725SOL     OW23205   7.659   7.544   5.474
 3725SOL    HW123206   7.600   7.620   5.444
 3725SOL    HW223207   7.743   7.544   5.420
 3726SOL     OW23208   0.450   8.082   1.990
 3726SOL    HW123209   0.424   7.986   1.976
 3726SOL    HW223210   0.501   8.091   2.075
 3727SOL     OW23211   1.960   3.424   6.362
 3727SOL    HW123212   1.928   3.350   6.422
 3727SOL    HW223213   2.040   3.393   6.311
 3728SOL     OW23214   3.441   4.628   6.829
 3728SOL    HW123215   3.427   4.683   6.746
 3728SOL    HW223216   3.407   4.679   6.908
 3729SOL     OW23217   3.686   7.480   6.214
 3729SOL    HW123218   3.706   7.548   6.285
 3729SOL    HW223219   3.760   7.414   6.209
 3730SOL     OW23220   2.862   1.495   6.734
 3730SOL    HW123221   2.812   1.446   6.663
 3730SOL    HW223222   2.856   1.444   6.820
 3731SOL     OW23223   9.284   4.444   0.516
 3731SOL    HW123224   9.312   4.399   0.431
 3731SOL    HW223225   9.192   4.483   0.504
 3732SOL     OW23226   7.616   2.893   5.974
 3732SOL    HW123227   7.674   2.837   6.032
 3732SOL    HW223228   7.646   2.989   5.980
 3733SOL     OW23229   4.419   0.586   1.201
 3733SOL    HW123230   4.416   0.507   1.262
 3733SOL    HW223231   4.368   0.567   1.118
 3734SOL     OW23232   9.074   6.972   0.348
 3734SOL    HW123233   9.153   6.931   0.393
 3734SOL    HW223234   9.013   7.011   0.418
 3735SOL     OW23235   2.220   6.261   0.994
 3735SOL    HW123236   2.225   6.300   0.902
 3735SOL    HW223237   2.229   6.162   0.989
 3736SOL     OW23238   5.847   5.776   6.381
 3736SOL    HW123239   5.760   5.818   6.357
 3736SOL    HW223240   5.851   5.761   6.480
 3737SOL     OW23241   0.635   1.975   1.132
 3737SOL    HW123242   0.621   1.922   1.216
 3737SOL    HW223243   0.733   1.992   1.119
 3738SOL     OW23244   4.672   6.773   1.121
 3738SOL    HW123245   4.600   6.734   1.178
 3738SOL    HW223246   4.632   6.812   1.038
 3739SOL     OW23247   9.169   1.331   0.500
 3739SOL    HW123248   9.135   1.418   0.463
 3739SOL    HW223249   9.114   1.256   0.464
 3740SOL     OW23250   6.661   0.633   6.722
 3740SOL    HW123251   6.588   0.566   6.731
 3740SOL    HW223252   6.632   0.721   6.761
 3741SOL     OW23253   1.546   3.182   6.991
 3741SOL    HW123254   1.512   3.186   6.897
 3741SOL    HW223255   1.575   3.089   7.011
 3742SOL     OW23256   8.550   3.725   6.556
 3742SOL    HW123257   8.571   3.754   6.649
 3742SOL    HW223258   8.530   3.804   6.499
 3743SOL     OW23259   8.176   6.714   1.548
 3743SOL    HW123260   8.139   6.776   1.617
 3743SOL    HW223261   8.149   6.745   1.457
 3744SOL     OW23262   8.496   5.776   6.968
 3744SOL    HW123263   8.498   5.875   6.982
 3744SOL    HW223264   8.467   5.731   7.052
 3745SOL     OW23265   2.536   1.093   1.441
 3745SOL    HW123266   2.525   1.000   1.405
 3745SOL    HW223267   2.459   1.150   1.412
 3746SOL     OW23268   0.919   5.146   6.797
 3746SOL    HW123269   0.958   5.107   6.713
 3746SOL    HW223270   0.993   5.163   6.863
 3747SOL     OW23271   1.055   4.336   1.493
 3747SOL    HW123272   0.991   4.269   1.530
 3747SOL    HW223273   1.059   4.415   1.554
 3748SOL     OW23274   3.323   2.684   5.859
 3748SOL    HW123275   3.339   2.636   5.773
 3748SOL    HW223276   3.303   2.780   5.840
 3749SOL     OW23277   6.609   7.546   2.253
 3749SOL    HW123278   6.670   7.621   2.227
 3749SOL    HW223279   6.663   7.466   2.278
 3750SOL     OW23280   2.216   6.763   5.937
 3750SOL    HW123281   2.283   6.831   5.906
 3750SOL    HW223282   2.263   6.682   5.970
 3751SOL     OW23283   5.651   2.304   2.216
 3751SOL    HW123284   5.719   2.364   2.258
 3751SOL    HW223285   5.690   2.260   2.135
 3752SOL     OW23286   1.569   4.767   6.962
 3752SOL    HW123287   1.667   4.743   6.966
 3752SOL    HW223288   1.552   4.825   6.883
 3753SOL     OW23289   5.515   3.248   0.345
 3753SOL    HW123290   5.607   3.222   0.372
 3753SOL    HW223291   5.493   3.338   0.383
 3754SOL     OW23292   8.596   6.297   1.608
 3754SOL    HW123293   8.555   6.370   1.663
 3754SOL    HW223294   8.684   6.328   1.571
 3755SOL     OW23295   7.233   5.587   0.300
 3755SOL    HW123296   7.175   5.665   0.324
 3755SOL    HW223297   7.209   5.508   0.356
 3756SOL     OW23298   3.869   7.163   5.593
 3756SOL    HW123299   3.917   7.185   5.508
 3756SOL    HW223300   3.858   7.246   5.648
 3757SOL     OW23301   2.958   0.186   1.152
 3757SOL    HW123302   3.008   0.101   1.137
 3757SOL    HW223303   3.022   0.257   1.183
 3758SOL     OW23304   5.059   2.308   6.299
 3758SOL    HW123305   5.068   2.366   6.218
 3758SOL    HW223306   4.972   2.326   6.344
 3759SOL     OW23307   2.358   4.007   1.419
 3759SOL    HW123308   2.379   4.027   1.324
 3759SOL    HW223309   2.436   4.033   1.477
 3760SOL     OW23310   2.428   2.953   6.460
 3760SOL    HW123311   2.510   3.009   6.464
 3760SOL    HW223312   2.349   3.011   6.441
 3761SOL     OW23313   5.065   5.886   0.834
 3761SOL    HW123314   5.164   5.883   0.847
 3761SOL    HW223315   5.019   5.882   0.923
 3762SOL     OW23316   1.693   0.015   1.217
 3762SOL    HW123317   1.788   0.031   1.244
 3762SOL    HW223318   1.640  -0.014   1.297
 3763SOL     OW23319   7.056   1.453   5.725
 3763SOL    HW123320   6.987   1.385   5.748
 3763SOL    HW223321   7.147   1.412   5.731
 3764SOL     OW23322   1.099   2.332   1.749
 3764SOL    HW123323   1.128   2.420   1.787
 3764SOL    HW223324   1.049   2.280   1.819
 3765SOL     OW23325   5.937   1.514   1.200
 3765SOL    HW123326   5.871   1.459   1.252
 3765SOL    HW223327   5.991   1.454   1.141
 3766SOL     OW23328   8.051   8.025   6.463
 3766SOL    HW123329   8.066   8.022   6.562
 3766SOL    HW223330   7.964   8.070   6.444
 3767SOL     OW23331   7.840   7.507   0.669
 3767SOL    HW123332   7.760   7.520   0.728
 3767SOL    HW223333   7.908   7.451   0.716
 3768SOL     OW23334   6.804   6.371   4.947
 3768SOL    HW123335   6.721   6.382   4.892
 3768SOL    HW223336   6.832   6.275   4.946
 3769SOL     OW23337   7.651   4.151   6.115
 3769SOL    HW123338   7.740   4.161   6.161
 3769SOL    HW223339   7.637   4.055   6.092
 3770SOL     OW23340   1.183   0.434   5.469
 3770SOL    HW123341   1.145   0.366   5.533
 3770SOL    HW223342   1.190   0.393   5.378
 3771SOL     OW23343   3.918   1.347   6.518
 3771SOL    HW123344   3.849   1.310   6.456
 3771SOL    HW223345   4.002   1.367   6.467
 3772SOL     OW23346   3.901   6.557   1.307
 3772SOL    HW123347   3.826   6.592   1.363
 3772SOL    HW223348   3.916   6.460   1.328
 3773SOL     OW23349   8.579   6.999   0.988
 3773SOL    HW123350   8.639   6.970   0.913
 3773SOL    HW223351   8.510   6.929   1.004
 3774SOL     OW23352   6.226   5.685   5.881
 3774SOL    HW123353   6.178   5.606   5.921
 3774SOL    HW223354   6.270   5.737   5.954
 3775SOL     OW23355   1.896   0.269   1.040
 3775SOL    HW123356   1.881   0.194   1.104
 3775SOL    HW223357   1.871   0.240   0.948
 3776SOL     OW23358   6.408   8.024   0.368
 3776SOL    HW123359   6.470   7.952   0.398
 3776SOL    HW223360   6.426   8.108   0.419
 3777SOL     OW23361   9.022   1.188   6.790
 3777SOL    HW123362   8.955   1.179   6.864
 3777SOL    HW223363   9.091   1.116   6.799
 3778SOL     OW23364   1.919   7.690   0.398
 3778SOL    HW123365   1.843   7.662   0.339
 3778SOL    HW223366   1.894   7.773   0.448
 3779SOL     OW23367   2.686   3.665   1.530
 3779SOL    HW123368   2.591   3.696   1.545
 3779SOL    HW223369   2.726   3.638   1.617
 3780SOL     OW23370   6.617  -0.027   0.675
 3780SOL    HW123371   6.531  -0.012   0.626
 3780SOL    HW223372   6.610   0.007   0.768
 3781SOL     OW23373   7.520   4.820   0.344
 3781SOL    HW123374   7.616   4.846   0.347
 3781SOL    HW223375   7.488   4.800   0.437
 3782SOL     OW23376   0.923   7.370   4.340
 3782SOL    HW123377   0.970   7.457   4.326
 3782SOL    HW223378   0.980   7.309   4.395
 3783SOL     OW23379   6.314   6.318   6.854
 3783SOL    HW123380   6.397   6.354   6.899
 3783SOL    HW223381   6.307   6.220   6.871
 3784SOL     OW23382   2.168   3.339   1.103
 3784SOL    HW123383   2.218   3.421   1.075
 3784SOL    HW223384   2.211   3.258   1.062
 3785SOL     OW23385   5.379   4.766   6.574
 3785SOL    HW123386   5.476   4.765   6.549
 3785SOL    HW223387   5.347   4.672   6.586
 3786SOL     OW23388   5.027   1.699   2.010
 3786SOL    HW123389   5.086   1.650   2.073
 3786SOL    HW223390   4.961   1.753   2.061
 3787SOL     OW23391   8.946   1.766   6.791
 3787SOL    HW123392   8.886   1.686   6.783
 3787SOL    HW223393   9.023   1.757   6.728
 3788SOL     OW23394   7.624   1.365   6.489
 3788SOL    HW123395   7.717   1.329   6.494
 3788SOL    HW223396   7.612   1.435   6.559
 3789SOL     OW23397   8.843   5.224   5.439
 3789SOL    HW123398   8.891   5.174   5.367
 3789SOL    HW223399   8.801   5.306   5.401
 3790SOL     OW23400   1.429   6.579   1.132
 3790SOL    HW123401   1.405   6.560   1.037
 3790SOL    HW223402   1.496   6.512   1.163
 3791SOL     OW23403   3.242   2.942   0.735
 3791SOL    HW123404   3.246   2.928   0.834
 3791SOL    HW223405   3.321   2.996   0.706
 3792SOL     OW23406   4.046   1.667   6.846
 3792SOL    HW123407   4.093   1.695   6.763
 3792SOL    HW223408   4.057   1.736   6.917
 3793SOL     OW23409   0.531   6.836   6.449
 3793SOL    HW123410   0.585   6.920   6.455
 3793SOL    HW223411   0.444   6.849   6.496
 3794SOL     OW23412   4.277   3.230   1.969
 3794SOL    HW123413   4.259   3.296   1.895
 3794SOL    HW223414   4.344   3.163   1.938
 3795SOL     OW23415   5.226   2.361   0.517
 3795SOL    HW123416   5.272   2.276   0.490
 3795SOL    HW223417   5.295   2.432   0.533
 3796SOL     OW23418   9.265   2.840   1.987
 3796SOL    HW123419   9.309   2.928   2.002
 3796SOL    HW223420   9.169   2.845   2.016
 3797SOL     OW23421   1.689   8.010   4.419
 3797SOL    HW123422   1.626   8.088   4.413
 3797SOL    HW223423   1.693   7.978   4.514
 3798SOL     OW23424   1.674   2.926   5.762
 3798SOL    HW123425   1.689   3.013   5.808
 3798SOL    HW223426   1.627   2.941   5.675
 3799SOL     OW23427   2.804   6.548   6.502
 3799SOL    HW123428   2.854   6.629   6.473
 3799SOL    HW223429   2.779   6.557   6.598
 3800SOL     OW23430   8.303   8.268   0.318
 3800SOL    HW123431   8.284   8.182   0.270
 3800SOL    HW223432   8.267   8.263   0.411
 3801SOL     OW23433   1.672   3.752   5.718
 3801SOL    HW123434   1.723   3.733   5.634
 3801SOL    HW223435   1.600   3.684   5.730
 3802SOL     OW23436   3.822   0.078   6.920
 3802SOL    HW123437   3.750   0.108   6.983
 3802SOL    HW223438   3.902   0.047   6.973
 3803SOL     OW23439   2.496   1.638   1.638
 3803SOL    HW123440   2.404   1.676   1.646
 3803SOL    HW223441   2.559   1.693   1.693
 3804SOL     OW23442   7.323   7.797   6.816
 3804SOL    HW123443   7.315   7.823   6.720
 3804SOL    HW223444   7.232   7.779   6.854
 3805SOL     OW23445   3.117   8.094   6.742
 3805SOL    HW123446   3.128   8.069   6.646
 3805SOL    HW223447   3.057   8.174   6.748
 3806SOL     OW23448   1.572   3.403   6.650
 3806SOL    HW123449   1.548   3.458   6.570
 3806SOL    HW223450   1.517   3.320   6.651
 3807SOL     OW23451   6.438   4.406   5.995
 3807SOL    HW123452   6.520   4.388   6.049
 3807SOL    HW223453   6.409   4.501   6.008
 3808SOL     OW23454   0.791   1.837   5.252
 3808SOL    HW123455   0.806   1.752   5.202
 3808SOL    HW223456   0.847   1.910   5.211
 3809SOL     OW23457   4.560   0.138   5.512
 3809SOL    HW123458   4.628   0.091   5.457
 3809SOL    HW223459   4.472   0.091   5.504
 3810SOL     OW23460   0.405   4.630   5.568
 3810SOL    HW123461   0.389   4.610   5.472
 3810SOL    HW223462   0.498   4.663   5.581
 3811SOL     OW23463   7.734   2.699   1.021
 3811SOL    HW123464   7.733   2.675   1.118
 3811SOL    HW223465   7.827   2.690   0.985
 3812SOL     OW23466   1.134   6.083   6.054
 3812SOL    HW123467   1.087   6.171   6.062
 3812SOL    HW223468   1.083   6.014   6.105
 3813SOL     OW23469   3.068   8.431   5.604
 3813SOL    HW123470   3.122   8.362   5.556
 3813SOL    HW223471   2.996   8.386   5.657
 3814SOL     OW23472   0.736   5.815   5.321
 3814SOL    HW123473   0.773   5.779   5.406
 3814SOL    HW223474   0.811   5.850   5.264
 3815SOL     OW23475   2.293   0.089   5.793
 3815SOL    HW123476   2.273   0.026   5.718
 3815SOL    HW223477   2.390   0.110   5.795
 3816SOL     OW23478   5.293   6.349   5.929
 3816SOL    HW123479   5.301   6.355   6.029
 3816SOL    HW223480   5.201   6.377   5.902
 3817SOL     OW23481   5.539   0.517   1.766
 3817SOL    HW123482   5.549   0.582   1.841
 3817SOL    HW223483   5.625   0.510   1.716
 3818SOL     OW23484   5.152   3.912   0.971
 3818SOL    HW123485   5.145   3.815   0.947
 3818SOL    HW223486   5.188   3.921   1.064
 3819SOL     OW23487   2.495   0.169   1.065
 3819SOL    HW123488   2.416   0.128   1.110
 3819SOL    HW223489   2.468   0.255   1.021
 3820SOL     OW23490   5.270   5.670   5.613
 3820SOL    HW123491   5.312   5.760   5.628
 3820SOL    HW223492   5.218   5.671   5.528
 3821SOL     OW23493   4.815   7.746   6.780
 3821SOL    HW123494   4.852   7.710   6.694
 3821SOL    HW223495   4.866   7.829   6.805
 3822SOL     OW23496   1.043   4.891   4.926
 3822SOL    HW123497   1.092   4.827   4.987
 3822SOL    HW223498   1.109   4.953   4.883
 3823SOL     OW23499   1.968   3.244   6.065
 3823SOL    HW123500   2.029   3.318   6.035
 3823SOL    HW223501   1.908   3.278   6.137
 3824SOL     OW23502   0.123   0.213   5.971
 3824SOL    HW123503   0.203   0.165   6.006
 3824SOL    HW223504   0.051   0.146   5.951
 3825SOL     OW23505   0.628   0.961   1.426
 3825SOL    HW123506   0.694   0.888   1.408
 3825SOL    HW223507   0.548   0.922   1.472
 3826SOL     OW23508   1.259   1.900   5.968
 3826SOL    HW123509   1.296   1.807   5.969
 3826SOL    HW223510   1.330   1.964   5.937
 3827SOL     OW23511   6.332   5.744   6.755
 3827SOL    HW123512   6.286   5.809   6.695
 3827SOL    HW223513   6.265   5.701   6.815
 3828SOL     OW23514   3.165   6.605   0.405
 3828SOL    HW123515   3.072   6.640   0.418
 3828SOL    HW223516   3.175   6.517   0.453
 3829SOL     OW23517   0.126   5.431   1.631
 3829SOL    HW123518   0.143   5.482   1.547
 3829SOL    HW223519   0.137   5.492   1.710
 3830SOL     OW23520   6.757   0.399   6.540
 3830SOL    HW123521   6.817   0.408   6.461
 3830SOL    HW223522   6.756   0.484   6.592
 3831SOL     OW23523   0.829   6.703   0.514
 3831SOL    HW123524   0.864   6.742   0.428
 3831SOL    HW223525   0.847   6.767   0.589
 3832SOL     OW23526   6.805   2.700   1.251
 3832SOL    HW123527   6.827   2.603   1.268
 3832SOL    HW223528   6.886   2.746   1.214
 3833SOL     OW23529   2.852   0.824   0.995
 3833SOL    HW123530   2.775   0.859   0.940
 3833SOL    HW223531   2.932   0.813   0.937
 3834SOL     OW23532   7.727   1.807   6.593
 3834SOL    HW123533   7.655   1.738   6.586
 3834SOL    HW223534   7.797   1.777   6.657
 3835SOL     OW23535   5.115   1.957   0.870
 3835SOL    HW123536   5.192   2.004   0.916
 3835SOL    HW223537   5.080   2.015   0.797
 3836SOL     OW23538   0.616   6.281   1.481
 3836SOL    HW123539   0.644   6.377   1.478
 3836SOL    HW223540   0.608   6.251   1.576
 3837SOL     OW23541   6.213   6.360   6.283
 3837SOL    HW123542   6.255   6.441   6.323
 3837SOL    HW223543   6.212   6.368   6.184
 3838SOL     OW23544   6.464   0.827   0.827
 3838SOL    HW123545   6.392   0.863   0.886
 3838SOL    HW223546   6.434   0.830   0.731
 3839SOL     OW23547   9.142   5.749   0.837
 3839SOL    HW123548   9.145   5.849   0.838
 3839SOL    HW223549   9.047   5.718   0.848
 3840SOL     OW23550   9.171   7.053   5.248
 3840SOL    HW123551   9.160   7.138   5.300
 3840SOL    HW223552   9.264   7.049   5.211
 3841SOL     OW23553   9.365   8.144   6.708
 3841SOL    HW123554   9.290   8.203   6.738
 3841SOL    HW223555   9.354   8.122   6.611
 3842SOL     OW23556   5.546   1.157   5.944
 3842SOL    HW123557   5.548   1.199   6.034
 3842SOL    HW223558   5.553   1.058   5.953
 3843SOL     OW23559   2.677   8.124   6.113
 3843SOL    HW123560   2.704   8.055   6.045
 3843SOL    HW223561   2.750   8.191   6.124
 3844SOL     OW23562   0.946   3.246   5.183
 3844SOL    HW123563   0.904   3.337   5.177
 3844SOL    HW223564   1.019   3.248   5.252
 3845SOL     OW23565   8.133   6.510   5.784
 3845SOL    HW123566   8.231   6.490   5.788
 3845SOL    HW223567   8.088   6.476   5.866
 3846SOL     OW23568   8.471   0.654   6.598
 3846SOL    HW123569   8.459   0.595   6.679
 3846SOL    HW223570   8.423   0.740   6.613
 3847SOL     OW23571   1.373   7.213   6.413
 3847SOL    HW123572   1.438   7.177   6.481
 3847SOL    HW223573   1.417   7.216   6.323
 3848SOL     OW23574   1.338   6.964   0.788
 3848SOL    HW123575   1.343   7.016   0.873
 3848SOL    HW223576   1.421   6.910   0.777
 3849SOL     OW23577   8.484   3.110   1.203
 3849SOL    HW123578   8.450   3.198   1.169
 3849SOL    HW223579   8.583   3.113   1.209
 3850SOL     OW23580   7.007   4.544   5.409
 3850SOL    HW123581   7.059   4.513   5.489
 3850SOL    HW223582   7.037   4.493   5.328
 3851SOL     OW23583   2.116   3.279   5.681
 3851SOL    HW123584   2.047   3.228   5.629
 3851SOL    HW223585   2.193   3.218   5.703
 3852SOL     OW23586   7.842   4.677   6.141
 3852SOL    HW123587   7.762   4.629   6.105
 3852SOL    HW223588   7.892   4.720   6.066
 3853SOL     OW23589   0.209   4.646   6.624
 3853SOL    HW123590   0.287   4.709   6.620
 3853SOL    HW223591   0.130   4.693   6.664
 3854SOL     OW23592   7.413   3.983   0.324
 3854SOL    HW123593   7.456   4.044   0.257
 3854SOL    HW223594   7.316   4.005   0.331
 3855SOL     OW23595   3.728   2.279   6.019
 3855SOL    HW123596   3.743   2.237   5.929
 3855SOL    HW223597   3.783   2.233   6.088
 3856SOL     OW23598   4.006   0.800   6.804
 3856SOL    HW123599   4.088   0.840   6.844
 3856SOL    HW223600   3.991   0.841   6.713
 3857SOL     OW23601   2.135   4.268   5.477
 3857SOL    HW123602   2.216   4.327   5.475
 3857SOL    HW223603   2.097   4.260   5.385
 3858SOL     OW23604   8.478   0.924   1.436
 3858SOL    HW123605   8.519   0.856   1.376
 3858SOL    HW223606   8.527   1.010   1.428
 3859SOL     OW23607   5.926   8.111   0.677
 3859SOL    HW123608   5.906   8.177   0.605
 3859SOL    HW223609   5.850   8.109   0.742
 3860SOL     OW23610   3.511   6.125   2.095
 3860SOL    HW123611   3.573   6.047   2.104
 3860SOL    HW223612   3.432   6.111   2.155
 3861SOL     OW23613   6.720   7.407   6.164
 3861SOL    HW123614   6.727   7.309   6.147
 3861SOL    HW223615   6.724   7.425   6.262
 3862SOL     OW23616   5.472   8.234   6.047
 3862SOL    HW123617   5.485   8.286   5.963
 3862SOL    HW223618   5.560   8.208   6.084
 3863SOL     OW23619   4.425   0.436   0.655
 3863SOL    HW123620   4.518   0.466   0.676
 3863SOL    HW223621   4.405   0.352   0.706
 3864SOL     OW23622   2.609   0.678   1.642
 3864SOL    HW123623   2.531   0.736   1.620
 3864SOL    HW223624   2.584   0.613   1.713
 3865SOL     OW23625   3.582   0.078   0.681
 3865SOL    HW123626   3.588   0.026   0.766
 3865SOL    HW223627   3.673   0.092   0.644
 3866SOL     OW23628   6.756   1.257   6.353
 3866SOL    HW123629   6.841   1.280   6.306
 3866SOL    HW223630   6.764   1.166   6.394
 3867SOL     OW23631   6.445   5.478   0.641
 3867SOL    HW123632   6.511   5.487   0.716
 3867SOL    HW223633   6.385   5.559   0.640
 3868SOL     OW23634   7.467   3.516   0.464
 3868SOL    HW123635   7.437   3.580   0.535
 3868SOL    HW223636   7.413   3.432   0.470
 3869SOL     OW23637   4.867   5.776   6.073
 3869SOL    HW123638   4.913   5.721   6.004
 3869SOL    HW223639   4.892   5.872   6.061
 3870SOL     OW23640   9.138   4.197   6.596
 3870SOL    HW123641   9.153   4.275   6.535
 3870SOL    HW223642   9.045   4.199   6.632
 3871SOL     OW23643   3.646   1.772   0.762
 3871SOL    HW123644   3.704   1.694   0.786
 3871SOL    HW223645   3.616   1.764   0.668
 3872SOL     OW23646   5.289   5.394   1.424
 3872SOL    HW123647   5.341   5.311   1.445
 3872SOL    HW223648   5.345   5.474   1.445
 3873SOL     OW23649   2.858   4.062   5.529
 3873SOL    HW123650   2.881   3.965   5.519
 3873SOL    HW223651   2.771   4.071   5.576
 3874SOL     OW23652   0.937   5.133   6.148
 3874SOL    HW123653   0.892   5.094   6.228
 3874SOL    HW223654   0.877   5.204   6.108
 3875SOL     OW23655   0.924   0.293   6.962
 3875SOL    HW123656   0.851   0.261   6.902
 3875SOL    HW223657   0.892   0.290   7.057
 3876SOL     OW23658   8.161   3.567   1.352
 3876SOL    HW123659   8.231   3.553   1.422
 3876SOL    HW223660   8.107   3.483   1.342
 3877SOL     OW23661   8.438   7.587   6.735
 3877SOL    HW123662   8.342   7.607   6.718
 3877SOL    HW223663   8.447   7.528   6.815
 3878SOL     OW23664   6.668   6.848   1.414
 3878SOL    HW123665   6.702   6.843   1.508
 3878SOL    HW223666   6.592   6.912   1.409
 3879SOL     OW23667   9.543   7.351   0.986
 3879SOL    HW123668   9.508   7.266   1.026
 3879SOL    HW223669   9.642   7.357   1.002
 3880SOL     OW23670   1.919   2.541   0.350
 3880SOL    HW123671   1.945   2.466   0.288
 3880SOL    HW223672   1.829   2.575   0.324
 3881SOL     OW23673   5.059   6.428   5.819
 3881SOL    HW123674   4.979   6.393   5.867
 3881SOL    HW223675   5.042   6.427   5.721
 3882SOL     OW23676   5.344   6.096   6.161
 3882SOL    HW123677   5.348   6.053   6.071
 3882SOL    HW223678   5.335   6.026   6.232
 3883SOL     OW23679   0.678  -0.013   2.016
 3883SOL    HW123680   0.764  -0.056   2.045
 3883SOL    HW223681   0.685   0.086   2.029
 3884SOL     OW23682   6.119   0.723   6.917
 3884SOL    HW123683   6.119   0.628   6.947
 3884SOL    HW223684   6.118   0.727   6.818
 3885SOL     OW23685   3.938   7.779   6.550
 3885SOL    HW123686   4.019   7.744   6.504
 3885SOL    HW223687   3.938   7.748   6.645
 3886SOL     OW23688   6.268   7.949   0.934
 3886SOL    HW123689   6.315   7.884   0.993
 3886SOL    HW223690   6.263   7.913   0.841
 3887SOL     OW23691   5.780   4.810   1.023
 3887SOL    HW123692   5.722   4.735   1.053
 3887SOL    HW223693   5.788   4.807   0.923
 3888SOL     OW23694   4.160   1.697   6.586
 3888SOL    HW123695   4.231   1.767   6.593
 3888SOL    HW223696   4.189   1.625   6.524
 3889SOL     OW23697   1.943   1.538   0.720
 3889SOL    HW123698   1.910   1.447   0.698
 3889SOL    HW223699   1.873   1.586   0.774
 3890SOL     OW23700   9.162   3.488   5.560
 3890SOL    HW123701   9.078   3.453   5.518
 3890SOL    HW223702   9.235   3.490   5.492
 3891SOL     OW23703   4.499   6.310   5.620
 3891SOL    HW123704   4.423   6.253   5.592
 3891SOL    HW223705   4.581   6.285   5.568
 3892SOL     OW23706   7.366   3.876   1.572
 3892SOL    HW123707   7.359   3.893   1.670
 3892SOL    HW223708   7.342   3.959   1.522
 3893SOL     OW23709   6.635   0.028   6.514
 3893SOL    HW123710   6.706   0.086   6.474
 3893SOL    HW223711   6.672  -0.065   6.525
 3894SOL     OW23712   2.229   7.087   6.875
 3894SOL    HW123713   2.175   7.052   6.952
 3894SOL    HW223714   2.267   7.176   6.898
 3895SOL     OW23715   5.723   0.662   5.917
 3895SOL    HW123716   5.712   0.616   6.005
 3895SOL    HW223717   5.753   0.595   5.848
 3896SOL     OW23718   8.666   2.926   0.839
 3896SOL    HW123719   8.581   2.978   0.850
 3896SOL    HW223720   8.716   2.960   0.760
 3897SOL     OW23721   6.141   0.687   0.533
 3897SOL    HW123722   6.147   0.787   0.524
 3897SOL    HW223723   6.224   0.645   0.498
 3898SOL     OW23724   8.796   0.819   0.706
 3898SOL    HW123725   8.718   0.845   0.762
 3898SOL    HW223726   8.765   0.800   0.612
 3899SOL     OW23727   6.562   6.856   6.377
 3899SOL    HW123728   6.518   6.823   6.461
 3899SOL    HW223729   6.648   6.808   6.363
 3900SOL     OW23730   0.183   0.600   1.171
 3900SOL    HW123731   0.281   0.620   1.174
 3900SOL    HW223732   0.157   0.552   1.255
 3901SOL     OW23733   3.505   1.073   2.220
 3901SOL    HW123734   3.526   1.011   2.296
 3901SOL    HW223735   3.590   1.098   2.174
 3902SOL     OW23736   7.451   1.192   6.646
 3902SOL    HW123737   7.485   1.241   6.567
 3902SOL    HW223738   7.375   1.132   6.618
 3903SOL     OW23739   6.588   2.316   6.379
 3903SOL    HW123740   6.666   2.378   6.384
 3903SOL    HW223741   6.564   2.300   6.283
 3904SOL     OW23742   5.450   0.906   6.292
 3904SOL    HW123743   5.390   0.966   6.240
 3904SOL    HW223744   5.535   0.953   6.313
 3905SOL     OW23745   2.430   7.432   1.844
 3905SOL    HW123746   2.502   7.452   1.910
 3905SOL    HW223747   2.359   7.377   1.887
 3906SOL     OW23748   9.230   2.451   5.877
 3906SOL    HW123749   9.324   2.482   5.865
 3906SOL    HW223750   9.182   2.457   5.789
 3907SOL     OW23751   3.783   2.534   0.335
 3907SOL    HW123752   3.755   2.439   0.350
 3907SOL    HW223753   3.725   2.595   0.389
 3908SOL     OW23754   8.149   3.863   1.135
 3908SOL    HW123755   8.092   3.782   1.125
 3908SOL    HW223756   8.179   3.871   1.230
 3909SOL     OW23757   8.905   3.750   6.581
 3909SOL    HW123758   8.963   3.767   6.660
 3909SOL    HW223759   8.915   3.825   6.516
 3910SOL     OW23760   8.851   7.150   5.067
 3910SOL    HW123761   8.891   7.107   4.987
 3910SOL    HW223762   8.890   7.241   5.080
 3911SOL     OW23763   3.137   3.410   0.358
 3911SOL    HW123764   3.229   3.445   0.376
 3911SOL    HW223765   3.117   3.420   0.260
 3912SOL     OW23766   5.877   5.949   5.481
 3912SOL    HW123767   5.791   5.923   5.526
 3912SOL    HW223768   5.857   5.999   5.397
 3913SOL     OW23769   8.484   4.392   0.973
 3913SOL    HW123770   8.490   4.316   0.908
 3913SOL    HW223771   8.575   4.427   0.992
 3914SOL     OW23772   0.524   3.012   5.905
 3914SOL    HW123773   0.472   3.072   5.844
 3914SOL    HW223774   0.511   3.041   5.999
 3915SOL     OW23775   1.132   0.879   6.882
 3915SOL    HW123776   1.158   0.783   6.868
 3915SOL    HW223777   1.055   0.883   6.945
 3916SOL     OW23778   2.033   6.383   6.249
 3916SOL    HW123779   1.977   6.464   6.229
 3916SOL    HW223780   2.089   6.361   6.169
 3917SOL     OW23781   4.885   0.428   5.012
 3917SOL    HW123782   4.952   0.387   4.950
 3917SOL    HW223783   4.896   0.528   5.010
 3918SOL     OW23784   5.813   4.723   1.345
 3918SOL    HW123785   5.740   4.727   1.413
 3918SOL    HW223786   5.773   4.715   1.254
 3919SOL     OW23787   8.883   1.920   0.940
 3919SOL    HW123788   8.902   1.934   0.843
 3919SOL    HW223789   8.838   2.002   0.977
 3920SOL     OW23790   3.856   7.661   0.978
 3920SOL    HW123791   3.790   7.591   0.947
 3920SOL    HW223792   3.814   7.715   1.051
 3921SOL     OW23793   8.764   4.417   0.940
 3921SOL    HW123794   8.845   4.402   0.883
 3921SOL    HW223795   8.745   4.335   0.994
 3922SOL     OW23796   6.713   4.719   1.059
 3922SOL    HW123797   6.743   4.641   1.114
 3922SOL    HW223798   6.766   4.722   0.974
 3923SOL     OW23799   6.245   0.728   1.060
 3923SOL    HW123800   6.195   0.707   0.976
 3923SOL    HW223801   6.269   0.825   1.062
 3924SOL     OW23802   8.549   6.609   4.998
 3924SOL    HW123803   8.639   6.644   4.972
 3924SOL    HW223804   8.482   6.682   4.992
 3925SOL     OW23805   0.954   1.661   1.258
 3925SOL    HW123806   0.858   1.689   1.260
 3925SOL    HW223807   0.980   1.636   1.165
 3926SOL     OW23808   2.074   2.263   5.921
 3926SOL    HW123809   2.033   2.205   5.991
 3926SOL    HW223810   2.088   2.355   5.958
 3927SOL     OW23811   1.742   3.249   6.217
 3927SOL    HW123812   1.752   3.248   6.316
 3927SOL    HW223813   1.673   3.317   6.191
 3928SOL     OW23814   5.540   6.466   5.501
 3928SOL    HW123815   5.612   6.406   5.466
 3928SOL    HW223816   5.468   6.476   5.432
 3929SOL     OW23817   5.139   0.128   5.247
 3929SOL    HW123818   5.230   0.116   5.206
 3929SOL    HW223819   5.072   0.075   5.196
 3930SOL     OW23820   1.666   0.092   6.066
 3930SOL    HW123821   1.712   0.141   5.992
 3930SOL    HW223822   1.726   0.085   6.145
 3931SOL     OW23823   1.785   7.480   5.630
 3931SOL    HW123824   1.803   7.577   5.646
 3931SOL    HW223825   1.706   7.470   5.570
 3932SOL     OW23826   3.555   2.959   5.575
 3932SOL    HW123827   3.597   3.002   5.654
 3932SOL    HW223828   3.455   2.966   5.582
 3933SOL     OW23829   2.921   2.264   6.329
 3933SOL    HW123830   2.898   2.167   6.340
 3933SOL    HW223831   2.852   2.320   6.374
 3934SOL     OW23832   0.764   8.122   6.322
 3934SOL    HW123833   0.848   8.083   6.362
 3934SOL    HW223834   0.754   8.089   6.228
 3935SOL     OW23835   3.850   5.138   1.110
 3935SOL    HW123836   3.861   5.042   1.085
 3935SOL    HW223837   3.754   5.163   1.108
 3936SOL     OW23838   7.401   6.704   1.423
 3936SOL    HW123839   7.389   6.725   1.520
 3936SOL    HW223840   7.470   6.633   1.412
 3937SOL     OW23841   7.532   1.298   5.837
 3937SOL    HW123842   7.440   1.270   5.810
 3937SOL    HW223843   7.533   1.396   5.855
 3938SOL     OW23844   5.629   4.818   6.480
 3938SOL    HW123845   5.716   4.861   6.503
 3938SOL    HW223846   5.602   4.845   6.388
 3939SOL     OW23847   3.238   5.215   0.790
 3939SOL    HW123848   3.263   5.293   0.847
 3939SOL    HW223849   3.238   5.131   0.844
 3940SOL     OW23850   0.794   8.138   4.834
 3940SOL    HW123851   0.738   8.056   4.824
 3940SOL    HW223852   0.749   8.214   4.787
 3941SOL     OW23853   0.668   5.038   6.725
 3941SOL    HW123854   0.585   5.092   6.718
 3941SOL    HW223855   0.745   5.097   6.751
 3942SOL     OW23856   4.593   6.877   6.037
 3942SOL    HW123857   4.518   6.834   5.987
 3942SOL    HW223858   4.561   6.964   6.076
 3943SOL     OW23859   1.942   5.996   6.111
 3943SOL    HW123860   1.929   6.081   6.060
 3943SOL    HW223861   1.852   5.961   6.141
 3944SOL     OW23862   3.055   3.968   5.790
 3944SOL    HW123863   3.050   3.982   5.889
 3944SOL    HW223864   3.100   4.046   5.748
 3945SOL     OW23865   8.700   6.836   5.394
 3945SOL    HW123866   8.792   6.799   5.380
 3945SOL    HW223867   8.675   6.894   5.317
 3946SOL     OW23868   4.106   0.160   5.048
 3946SOL    HW123869   4.026   0.174   4.990
 3946SOL    HW223870   4.185   0.137   4.991
 3947SOL     OW23871   5.332   6.129   1.028
 3947SOL    HW123872   5.253   6.186   1.050
 3947SOL    HW223873   5.411   6.159   1.082
 3948SOL     OW23874   6.263   5.689   1.876
 3948SOL    HW123875   6.283   5.787   1.877
 3948SOL    HW223876   6.221   5.662   1.962
 3949SOL     OW23877   2.747   5.187   6.795
 3949SOL    HW123878   2.706   5.243   6.723
 3949SOL    HW223879   2.838   5.224   6.817
 3950SOL     OW23880   3.623   5.180   1.850
 3950SOL    HW123881   3.529   5.182   1.885
 3950SOL    HW223882   3.681   5.127   1.911
 3951SOL     OW23883   1.038   2.857   6.690
 3951SOL    HW123884   0.939   2.844   6.699
 3951SOL    HW223885   1.079   2.772   6.657
 3952SOL     OW23886   2.487   0.578   6.931
 3952SOL    HW123887   2.397   0.612   6.957
 3952SOL    HW223888   2.546   0.576   7.012
 3953SOL     OW23889   4.345   4.426   0.540
 3953SOL    HW123890   4.321   4.503   0.480
 3953SOL    HW223891   4.367   4.346   0.484
 3954SOL     OW23892   3.007   2.573   1.328
 3954SOL    HW123893   2.922   2.576   1.381
 3954SOL    HW223894   3.063   2.653   1.351
 3955SOL     OW23895   8.280   8.007   1.130
 3955SOL    HW123896   8.325   8.023   1.218
 3955SOL    HW223897   8.193   7.959   1.144
 3956SOL     OW23898   6.684   2.058   5.657
 3956SOL    HW123899   6.764   2.087   5.604
 3956SOL    HW223900   6.656   1.967   5.627
 3957SOL     OW23901   8.257   7.185   0.285
 3957SOL    HW123902   8.315   7.266   0.275
 3957SOL    HW223903   8.279   7.139   0.371
 3958SOL     OW23904   5.791   0.370   6.452
 3958SOL    HW123905   5.788   0.435   6.527
 3958SOL    HW223906   5.749   0.284   6.481
 3959SOL     OW23907   1.638   6.576   6.085
 3959SOL    HW123908   1.705   6.504   6.103
 3959SOL    HW223909   1.577   6.585   6.163
 3960SOL     OW23910   6.084   8.094   6.417
 3960SOL    HW123911   6.035   8.146   6.347
 3960SOL    HW223912   6.091   8.150   6.500
 3961SOL     OW23913   7.388   6.470   5.874
 3961SOL    HW123914   7.427   6.562   5.888
 3961SOL    HW223915   7.322   6.451   5.946
 3962SOL     OW23916   4.149   6.392   5.573
 3962SOL    HW123917   4.128   6.405   5.476
 3962SOL    HW223918   4.207   6.311   5.583
 3963SOL     OW23919   6.466   7.062   0.632
 3963SOL    HW123920   6.514   7.118   0.700
 3963SOL    HW223921   6.532   7.030   0.564
 3964SOL     OW23922   1.460   5.369   5.688
 3964SOL    HW123923   1.439   5.389   5.784
 3964SOL    HW223924   1.461   5.455   5.636
 3965SOL     OW23925   2.658   7.330   0.399
 3965SOL    HW123926   2.694   7.361   0.486
 3965SOL    HW223927   2.695   7.240   0.378
 3966SOL     OW23928   2.864   7.158   2.319
 3966SOL    HW123929   2.846   7.206   2.405
 3966SOL    HW223930   2.835   7.215   2.242
 3967SOL     OW23931   5.203   7.052   0.386
 3967SOL    HW123932   5.193   7.150   0.371
 3967SOL    HW223933   5.280   7.017   0.332
 3968SOL     OW23934   5.960   0.792   6.448
 3968SOL    HW123935   5.977   0.886   6.479
 3968SOL    HW223936   6.002   0.778   6.359
 3969SOL     OW23937   5.187   0.009   5.511
 3969SOL    HW123938   5.275   0.055   5.502
 3969SOL    HW223939   5.118   0.058   5.457
 3970SOL     OW23940   1.414   4.731   5.775
 3970SOL    HW123941   1.476   4.738   5.853
 3970SOL    HW223942   1.422   4.640   5.734
 3971SOL     OW23943   1.759   5.886   5.188
 3971SOL    HW123944   1.745   5.788   5.179
 3971SOL    HW223945   1.809   5.920   5.109
 3972SOL     OW23946   8.468   8.226   5.768
 3972SOL    HW123947   8.522   8.228   5.852
 3972SOL    HW223948   8.513   8.283   5.699
 3973SOL     OW23949   4.437   8.285   5.980
 3973SOL    HW123950   4.363   8.272   5.913
 3973SOL    HW223951   4.492   8.365   5.954
 3974SOL     OW23952   8.268   4.532   6.624
 3974SOL    HW123953   8.290   4.438   6.600
 3974SOL    HW223954   8.205   4.533   6.702
 3975SOL     OW23955   4.558   5.365   6.845
 3975SOL    HW123956   4.589   5.299   6.914
 3975SOL    HW223957   4.627   5.371   6.772
 3976SOL     OW23958   2.422   2.182   0.866
 3976SOL    HW123959   2.488   2.108   0.874
 3976SOL    HW223960   2.333   2.150   0.899
 3977SOL     OW23961   2.033   1.503   6.038
 3977SOL    HW123962   1.966   1.431   6.056
 3977SOL    HW223963   2.123   1.462   6.028
 3978SOL     OW23964   5.657   6.248   6.318
 3978SOL    HW123965   5.621   6.331   6.275
 3978SOL    HW223966   5.750   6.231   6.287
 3979SOL     OW23967   7.382   8.192   5.115
 3979SOL    HW123968   7.431   8.105   5.125
 3979SOL    HW223969   7.291   8.184   5.156
 3980SOL     OW23970   2.414   8.398   0.344
 3980SOL    HW123971   2.341   8.404   0.276
 3980SOL    HW223972   2.376   8.414   0.435
 3981SOL     OW23973   8.273   1.176   6.642
 3981SOL    HW123974   8.270   1.133   6.733
 3981SOL    HW223975   8.194   1.145   6.589
 3982SOL     OW23976   0.870   0.450   5.530
 3982SOL    HW123977   0.776   0.434   5.502
 3982SOL    HW223978   0.877   0.541   5.573
 3983SOL     OW23979   3.834   4.226   6.221
 3983SOL    HW123980   3.922   4.228   6.269
 3983SOL    HW223981   3.826   4.139   6.172
 3984SOL     OW23982   2.658   3.025   6.135
 3984SOL    HW123983   2.682   2.938   6.179
 3984SOL    HW223984   2.563   3.022   6.104
 3985SOL     OW23985   3.686   3.059   1.885
 3985SOL    HW123986   3.745   2.994   1.838
 3985SOL    HW223987   3.664   3.025   1.976
 3986SOL     OW23988   3.062   4.769   1.076
 3986SOL    HW123989   3.085   4.716   0.994
 3986SOL    HW223990   3.110   4.731   1.155
 3987SOL     OW23991   2.177   6.243   5.792
 3987SOL    HW123992   2.266   6.202   5.772
 3987SOL    HW223993   2.178   6.340   5.767
 3988SOL     OW23994   8.768   3.940   6.250
 3988SOL    HW123995   8.778   3.872   6.177
 3988SOL    HW223996   8.679   3.930   6.293
 3989SOL     OW23997   1.939   6.206   5.923
 3989SOL    HW123998   1.891   6.266   5.859
 3989SOL    HW223999   2.031   6.188   5.888
 3990SOL     OW24000   6.198   6.297   1.089
 3990SOL    HW124001   6.129   6.341   1.032
 3990SOL    HW224002   6.171   6.203   1.108
 3991SOL     OW24003   2.929   2.002   1.035
 3991SOL    HW124004   3.027   1.985   1.025
 3991SOL    HW224005   2.914   2.095   1.068
 3992SOL     OW24006   8.002   2.404   2.261
 3992SOL    HW124007   7.937   2.413   2.336
 3992SOL    HW224008   8.095   2.413   2.296
 3993SOL     OW24009   3.203   2.870   1.028
 3993SOL    HW124010   3.124   2.931   1.024
 3993SOL    HW224011   3.200   2.816   1.112
 3994SOL     OW24012   6.217   6.359   5.995
 3994SOL    HW124013   6.277   6.374   5.916
 3994SOL    HW224014   6.161   6.277   5.980
 3995SOL     OW24015   2.329   4.337   6.422
 3995SOL    HW124016   2.282   4.412   6.375
 3995SOL    HW224017   2.306   4.250   6.377
 3996SOL     OW24018   4.408   5.410   1.005
 3996SOL    HW124019   4.318   5.415   1.048
 3996SOL    HW224020   4.401   5.362   0.917
 3997SOL     OW24021   1.968   5.205   5.851
 3997SOL    HW124022   1.925   5.229   5.765
 3997SOL    HW224023   1.998   5.109   5.849
 3998SOL     OW24024   0.856   5.676   0.975
 3998SOL    HW124025   0.929   5.629   1.025
 3998SOL    HW224026   0.781   5.697   1.037
 3999SOL     OW24027   4.493   1.065   6.225
 3999SOL    HW124028   4.512   1.104   6.315
 3999SOL    HW224029   4.505   0.965   6.228
 4000SOL     OW24030   8.569   5.936   5.745
 4000SOL    HW124031   8.473   5.934   5.771
 4000SOL    HW224032   8.589   5.859   5.684
 4001SOL     OW24033   2.693   1.193   0.539
 4001SOL    HW124034   2.614   1.245   0.570
 4001SOL    HW224035   2.772   1.215   0.596
 4002SOL     OW24036   8.910   2.696   5.340
 4002SOL    HW124037   9.005   2.683   5.367
 4002SOL    HW224038   8.874   2.612   5.301
 4003SOL     OW24039   5.500   8.377   5.809
 4003SOL    HW124040   5.401   8.383   5.797
 4003SOL    HW224041   5.545   8.450   5.758
 4004SOL     OW24042   0.306   3.647   0.720
 4004SOL    HW124043   0.221   3.700   0.722
 4004SOL    HW224044   0.320   3.604   0.809
 4005SOL     OW24045   2.421   4.381   1.770
 4005SOL    HW124046   2.442   4.461   1.714
 4005SOL    HW224047   2.492   4.311   1.757
 4006SOL     OW24048   5.487   3.185   6.650
 4006SOL    HW124049   5.464   3.251   6.579
 4006SOL    HW224050   5.403   3.142   6.683
 4007SOL     OW24051   1.040   4.644   6.079
 4007SOL    HW124052   1.049   4.586   5.998
 4007SOL    HW224053   1.124   4.698   6.091
 4008SOL     OW24054   4.366   2.119   5.509
 4008SOL    HW124055   4.451   2.133   5.458
 4008SOL    HW224056   4.386   2.112   5.606
 4009SOL     OW24057   5.006   2.996   6.498
 4009SOL    HW124058   5.079   2.953   6.446
 4009SOL    HW224059   5.035   3.087   6.528
 4010SOL     OW24060   2.433   2.048   1.197
 4010SOL    HW124061   2.519   2.050   1.247
 4010SOL    HW224062   2.415   2.138   1.157
 4011SOL     OW24063   4.304   7.613   0.776
 4011SOL    HW124064   4.318   7.537   0.840
 4011SOL    HW224065   4.381   7.676   0.783
 4012SOL     OW24066   7.572   0.714   5.837
 4012SOL    HW124067   7.509   0.761   5.775
 4012SOL    HW224068   7.665   0.748   5.821
 4013SOL     OW24069   8.499   0.234   6.777
 4013SOL    HW124070   8.400   0.249   6.767
 4013SOL    HW224071   8.515   0.147   6.823
 4014SOL     OW24072   4.935   2.157   5.924
 4014SOL    HW124073   4.951   2.111   6.012
 4014SOL    HW224074   4.979   2.247   5.926
 4015SOL     OW24075   2.175   5.869   1.275
 4015SOL    HW124076   2.115   5.792   1.252
 4015SOL    HW224077   2.256   5.835   1.322
 4016SOL     OW24078   2.336   0.439   1.398
 4016SOL    HW124079   2.318   0.466   1.493
 4016SOL    HW224080   2.341   0.521   1.341
 4017SOL     OW24081   3.504   3.247   1.512
 4017SOL    HW124082   3.546   3.241   1.603
 4017SOL    HW224083   3.522   3.163   1.462
 4018SOL     OW24084   4.936   7.630   6.217
 4018SOL    HW124085   4.973   7.714   6.258
 4018SOL    HW224086   4.989   7.552   6.249
 4019SOL     OW24087   5.611   8.360   1.991
 4019SOL    HW124088   5.587   8.370   1.895
 4019SOL    HW224089   5.531   8.379   2.048
 4020SOL     OW24090   3.289   6.721   5.103
 4020SOL    HW124091   3.336   6.717   5.191
 4020SOL    HW224092   3.316   6.804   5.055
 4021SOL     OW24093   3.883   0.885   0.473
 4021SOL    HW124094   3.836   0.854   0.391
 4021SOL    HW224095   3.883   0.985   0.475
 4022SOL     OW24096   2.235   8.041   5.969
 4022SOL    HW124097   2.304   8.112   5.984
 4022SOL    HW224098   2.144   8.083   5.969
 4023SOL     OW24099   1.710   2.655   0.543
 4023SOL    HW124100   1.746   2.745   0.567
 4023SOL    HW224101   1.773   2.585   0.575
 4024SOL     OW24102   2.306   7.475   1.270
 4024SOL    HW124103   2.234   7.409   1.249
 4024SOL    HW224104   2.334   7.523   1.187
 4025SOL     OW24105   3.841   5.513   1.788
 4025SOL    HW124106   3.772   5.575   1.749
 4025SOL    HW224107   3.814   5.487   1.880
 4026SOL     OW24108   1.875   8.337   6.699
 4026SOL    HW124109   1.931   8.372   6.624
 4026SOL    HW224110   1.882   8.398   6.777
 4027SOL     OW24111   3.781  -0.006   1.888
 4027SOL    HW124112   3.799   0.006   1.790
 4027SOL    HW224113   3.786  -0.103   1.911
 4028SOL     OW24114   4.751   5.554   6.962
 4028SOL    HW124115   4.840   5.509   6.972
 4028SOL    HW224116   4.685   5.488   6.925
 4029SOL     OW24117   6.938   0.835   6.680
 4029SOL    HW124118   6.846   0.870   6.663
 4029SOL    HW224119   6.933   0.757   6.742
 4030SOL     OW24120   8.554   7.070   5.884
 4030SOL    HW124121   8.505   7.143   5.836
 4030SOL    HW224122   8.590   7.005   5.818
 4031SOL     OW24123   7.192   3.927   0.604
 4031SOL    HW124124   7.165   3.837   0.639
 4031SOL    HW224125   7.177   3.931   0.506
 4032SOL     OW24126   4.312   4.850   6.874
 4032SOL    HW124127   4.269   4.811   6.956
 4032SOL    HW224128   4.260   4.823   6.793
 4033SOL     OW24129   2.534   0.269   5.954
 4033SOL    HW124130   2.632   0.275   5.975
 4033SOL    HW224131   2.487   0.220   6.028
 4034SOL     OW24132   7.529   6.613   0.614
 4034SOL    HW124133   7.466   6.655   0.678
 4034SOL    HW224134   7.602   6.566   0.664
 4035SOL     OW24135   5.481   5.266   0.899
 4035SOL    HW124136   5.461   5.322   0.819
 4035SOL    HW224137   5.417   5.189   0.904
 4036SOL     OW24138   8.388   0.837   5.345
 4036SOL    HW124139   8.405   0.872   5.253
 4036SOL    HW224140   8.297   0.796   5.349
 4037SOL     OW24141   3.405   4.774   1.079
 4037SOL    HW124142   3.465   4.766   1.000
 4037SOL    HW224143   3.459   4.791   1.161
 4038SOL     OW24144   8.725   5.743   0.791
 4038SOL    HW124145   8.766   5.683   0.860
 4038SOL    HW224146   8.626   5.745   0.802
 4039SOL     OW24147   0.982   4.433   6.957
 4039SOL    HW124148   0.954   4.364   7.024
 4039SOL    HW224149   0.973   4.524   6.997
 4040SOL     OW24150   8.447   7.472   5.417
 4040SOL    HW124151   8.544   7.456   5.404
 4040SOL    HW224152   8.416   7.542   5.353
 4041SOL     OW24153   3.378   1.727   0.927
 4041SOL    HW124154   3.474   1.735   0.901
 4041SOL    HW224155   3.348   1.633   0.914
 4042SOL     OW24156   1.600   1.694   6.038
 4042SOL    HW124157   1.500   1.685   6.034
 4042SOL    HW224158   1.638   1.622   6.095
 4043SOL     OW24159   8.663   6.653   5.734
 4043SOL    HW124160   8.652   6.746   5.697
 4043SOL    HW224161   8.754   6.644   5.774
 4044SOL     OW24162   2.372   1.138   6.190
 4044SOL    HW124163   2.458   1.149   6.141
 4044SOL    HW224164   2.390   1.099   6.280
 4045SOL     OW24165   5.327   5.875   0.921
 4045SOL    HW124166   5.378   5.831   0.847
 4045SOL    HW224167   5.332   5.974   0.910
 4046SOL     OW24168   7.637   2.770   1.451
 4046SOL    HW124169   7.688   2.854   1.469
 4046SOL    HW224170   7.607   2.729   1.537
 4047SOL     OW24171   5.339   5.063   6.831
 4047SOL    HW124172   5.429   5.045   6.790
 4047SOL    HW224173   5.293   4.976   6.849
 4048SOL     OW24174   0.586   4.333   6.453
 4048SOL    HW124175   0.680   4.360   6.476
 4048SOL    HW224176   0.556   4.260   6.515
 4049SOL     OW24177   5.861   1.018   6.822
 4049SOL    HW124178   5.959   1.002   6.837
 4049SOL    HW224179   5.842   1.116   6.827
 4050SOL     OW24180   3.242   1.457   5.444
 4050SOL    HW124181   3.296   1.422   5.368
 4050SOL    HW224182   3.259   1.555   5.455
 4051SOL     OW24183   2.757   2.806   0.585
 4051SOL    HW124184   2.745   2.831   0.489
 4051SOL    HW224185   2.854   2.816   0.610
 4052SOL     OW24186   2.606   2.381   1.973
 4052SOL    HW124187   2.696   2.398   2.013
 4052SOL    HW224188   2.547   2.461   1.988
 4053SOL     OW24189   6.905   5.137   6.342
 4053SOL    HW124190   6.890   5.230   6.309
 4053SOL    HW224191   6.997   5.128   6.379
 4054SOL     OW24192   1.322   8.187   6.527
 4054SOL    HW124193   1.244   8.215   6.582
 4054SOL    HW224194   1.336   8.088   6.535
 4055SOL     OW24195   4.901   4.823   6.679
 4055SOL    HW124196   4.905   4.805   6.778
 4055SOL    HW224197   4.938   4.914   6.661
 4056SOL     OW24198   2.449   1.626   0.671
 4056SOL    HW124199   2.429   1.717   0.636
 4056SOL    HW224200   2.379   1.599   0.736
 4057SOL     OW24201   7.392   1.982   6.651
 4057SOL    HW124202   7.303   2.015   6.680
 4057SOL    HW224203   7.427   2.041   6.578
 4058SOL     OW24204   9.578   2.423   0.697
 4058SOL    HW124205   9.496   2.467   0.661
 4058SOL    HW224206   9.560   2.388   0.789
 4059SOL     OW24207   1.294   1.465   5.626
 4059SOL    HW124208   1.235   1.420   5.560
 4059SOL    HW224209   1.263   1.443   5.719
 4060SOL     OW24210   3.917   0.259   1.539
 4060SOL    HW124211   3.882   0.325   1.605
 4060SOL    HW224212   3.862   0.175   1.542
 4061SOL     OW24213   7.946   1.561   1.214
 4061SOL    HW124214   7.948   1.548   1.115
 4061SOL    HW224215   7.904   1.480   1.257
 4062SOL     OW24216   3.273   5.849   1.060
 4062SOL    HW124217   3.302   5.938   1.024
 4062SOL    HW224218   3.178   5.832   1.033
 4063SOL     OW24219   8.646   7.408   6.091
 4063SOL    HW124220   8.684   7.365   6.009
 4063SOL    HW224221   8.709   7.395   6.168
 4064SOL     OW24222   4.486   1.135   2.303
 4064SOL    HW124223   4.535   1.132   2.391
 4064SOL    HW224224   4.418   1.062   2.301
 4065SOL     OW24225   3.807   2.852   6.169
 4065SOL    HW124226   3.848   2.871   6.080
 4065SOL    HW224227   3.730   2.914   6.184
 4066SOL     OW24228   5.296   3.203   6.949
 4066SOL    HW124229   5.304   3.144   6.869
 4066SOL    HW224230   5.387   3.229   6.981
 4067SOL     OW24231   4.517   5.627   6.481
 4067SOL    HW124232   4.429   5.597   6.444
 4067SOL    HW224233   4.581   5.643   6.405
 4068SOL     OW24234   1.895   2.214   1.869
 4068SOL    HW124235   1.798   2.206   1.847
 4068SOL    HW224236   1.906   2.216   1.968
 4069SOL     OW24237   8.158   7.556   5.763
 4069SOL    HW124238   8.179   7.461   5.788
 4069SOL    HW224239   8.207   7.580   5.678
 4070SOL     OW24240   4.646   0.263   0.963
 4070SOL    HW124241   4.558   0.220   0.981
 4070SOL    HW224242   4.701   0.205   0.904
 4071SOL     OW24243   0.718   4.845   6.114
 4071SOL    HW124244   0.787   4.880   6.051
 4071SOL    HW224245   0.643   4.804   6.062
 4072SOL     OW24246   8.643   1.063   5.259
 4072SOL    HW124247   8.622   0.997   5.187
 4072SOL    HW224248   8.672   1.149   5.217
 4073SOL     OW24249   4.895   8.429   6.645
 4073SOL    HW124250   4.953   8.509   6.629
 4073SOL    HW224251   4.847   8.406   6.560
 4074SOL     OW24252   0.720   4.362   1.660
 4074SOL    HW124253   0.761   4.305   1.731
 4074SOL    HW224254   0.627   4.387   1.686
 4075SOL     OW24255   6.590   3.522   6.330
 4075SOL    HW124256   6.619   3.567   6.415
 4075SOL    HW224257   6.549   3.590   6.269
 4076SOL     OW24258   2.939   0.197   4.977
 4076SOL    HW124259   2.874   0.148   4.919
 4076SOL    HW224260   3.015   0.137   5.001
 4077SOL     OW24261   0.639   2.287   0.873
 4077SOL    HW124262   0.642   2.187   0.863
 4077SOL    HW224263   0.702   2.315   0.946
 4078SOL     OW24264   2.527   5.410   1.427
 4078SOL    HW124265   2.493   5.485   1.485
 4078SOL    HW224266   2.619   5.431   1.396
 4079SOL     OW24267   4.336   3.428   1.395
 4079SOL    HW124268   4.289   3.370   1.461
 4079SOL    HW224269   4.310   3.400   1.302
 4080SOL     OW24270   1.537   5.285   1.040
 4080SOL    HW124271   1.568   5.339   0.962
 4080SOL    HW224272   1.499   5.198   1.008
 4081SOL     OW24273   5.192   4.422   1.911
 4081SOL    HW124274   5.247   4.394   1.990
 4081SOL    HW224275   5.158   4.341   1.864
 4082SOL     OW24276   3.169   0.242   0.343
 4082SOL    HW124277   3.133   0.148   0.338
 4082SOL    HW224278   3.151   0.279   0.434
 4083SOL     OW24279   6.197   3.180   1.547
 4083SOL    HW124280   6.166   3.275   1.557
 4083SOL    HW224281   6.138   3.120   1.600
 4084SOL     OW24282   0.908   6.721   6.166
 4084SOL    HW124283   0.939   6.737   6.072
 4084SOL    HW224284   0.881   6.625   6.176
 4085SOL     OW24285   2.442   8.090   1.860
 4085SOL    HW124286   2.504   8.028   1.909
 4085SOL    HW224287   2.400   8.153   1.926
 4086SOL     OW24288   3.289   5.001   1.554
 4086SOL    HW124289   3.286   4.919   1.497
 4086SOL    HW224290   3.373   5.053   1.534
 4087SOL     OW24291   2.629   6.577   5.819
 4087SOL    HW124292   2.624   6.649   5.888
 4087SOL    HW224293   2.540   6.531   5.812
 4088SOL     OW24294   9.053   0.172   6.108
 4088SOL    HW124295   9.084   0.170   6.203
 4088SOL    HW224296   9.095   0.250   6.062
 4089SOL     OW24297   5.809   4.778   6.736
 4089SOL    HW124298   5.736   4.737   6.791
 4089SOL    HW224299   5.897   4.763   6.780
 4090SOL     OW24300   8.806   7.501   5.759
 4090SOL    HW124301   8.710   7.530   5.763
 4090SOL    HW224302   8.813   7.405   5.786
 4091SOL     OW24303   2.106   3.758   6.571
 4091SOL    HW124304   2.132   3.841   6.520
 4091SOL    HW224305   2.181   3.732   6.632
 4092SOL     OW24306   1.762   1.120   5.390
 4092SOL    HW124307   1.811   1.115   5.303
 4092SOL    HW224308   1.670   1.083   5.379
 4093SOL     OW24309   5.944   0.413   0.947
 4093SOL    HW124310   5.889   0.334   0.920
 4093SOL    HW224311   5.908   0.495   0.902
 4094SOL     OW24312   8.122   6.044   1.349
 4094SOL    HW124313   8.034   6.067   1.309
 4094SOL    HW224314   8.112   5.964   1.409
 4095SOL     OW24315   3.249   6.255   1.958
 4095SOL    HW124316   3.252   6.215   2.050
 4095SOL    HW224317   3.270   6.353   1.964
 4096SOL     OW24318   0.452   4.305   6.934
 4096SOL    HW124319   0.384   4.250   6.885
 4096SOL    HW224320   0.535   4.251   6.947
 4097SOL     OW24321   5.092   3.370   6.861
 4097SOL    HW124322   5.157   3.299   6.887
 4097SOL    HW224323   5.065   3.423   6.942
 4098SOL     OW24324   3.560   7.896   1.692
 4098SOL    HW124325   3.613   7.977   1.718
 4098SOL    HW224326   3.492   7.876   1.762
 4099SOL     OW24327   6.845   2.234   6.964
 4099SOL    HW124328   6.879   2.248   7.057
 4099SOL    HW224329   6.920   2.208   6.904
 4100SOL     OW24330   8.848   6.733   6.394
 4100SOL    HW124331   8.876   6.764   6.303
 4100SOL    HW224332   8.748   6.736   6.401
 4101SOL     OW24333   9.218   4.089   6.839
 4101SOL    HW124334   9.212   4.138   6.752
 4101SOL    HW224335   9.314   4.082   6.867
 4102SOL     OW24336   5.196   1.109   1.175
 4102SOL    HW124337   5.197   1.014   1.207
 4102SOL    HW224338   5.133   1.117   1.097
 4103SOL     OW24339   1.720   7.582   1.294
 4103SOL    HW124340   1.809   7.539   1.283
 4103SOL    HW224341   1.730   7.671   1.337
 4104SOL     OW24342   8.820   5.577   0.982
 4104SOL    HW124343   8.893   5.543   0.923
 4104SOL    HW224344   8.855   5.591   1.074
 4105SOL     OW24345   4.851   0.752   0.889
 4105SOL    HW124346   4.789   0.812   0.839
 4105SOL    HW224347   4.804   0.715   0.970
 4106SOL     OW24348   7.590   4.389   0.691
 4106SOL    HW124349   7.607   4.293   0.669
 4106SOL    HW224350   7.673   4.442   0.677
 4107SOL     OW24351   8.402   5.125   0.842
 4107SOL    HW124352   8.490   5.107   0.886
 4107SOL    HW224353   8.415   5.187   0.765
 4108SOL     OW24354   4.181   8.130   0.310
 4108SOL    HW124355   4.257   8.070   0.336
 4108SOL    HW224356   4.211   8.188   0.234
 4109SOL     OW24357   0.365   3.249   0.705
 4109SOL    HW124358   0.310   3.174   0.668
 4109SOL    HW224359   0.340   3.265   0.801
 4110SOL     OW24360   7.237   6.381   6.679
 4110SOL    HW124361   7.171   6.308   6.662
 4110SOL    HW224362   7.307   6.380   6.607
 4111SOL     OW24363   4.705   5.765   2.072
 4111SOL    HW124364   4.802   5.788   2.073
 4111SOL    HW224365   4.686   5.697   2.143
 4112SOL     OW24366   1.007   6.686   2.150
 4112SOL    HW124367   1.092   6.715   2.105
 4112SOL    HW224368   0.977   6.599   2.111
 4113SOL     OW24369   6.246   3.362   6.506
 4113SOL    HW124370   6.300   3.324   6.431
 4113SOL    HW224371   6.306   3.393   6.579
 4114SOL     OW24372   8.077   8.325   5.580
 4114SOL    HW124373   8.152   8.305   5.517
 4114SOL    HW224374   7.996   8.353   5.528
 4115SOL     OW24375   7.422   0.242   0.647
 4115SOL    HW124376   7.425   0.340   0.668
 4115SOL    HW224377   7.439   0.190   0.730
 4116SOL     OW24378   5.974   6.194   0.687
 4116SOL    HW124379   5.995   6.142   0.770
 4116SOL    HW224380   6.038   6.270   0.678
 4117SOL     OW24381   8.939   5.126   1.098
 4117SOL    HW124382   8.951   5.211   1.148
 4117SOL    HW224383   8.867   5.072   1.141
 4118SOL     OW24384   7.237   3.729   5.746
 4118SOL    HW124385   7.166   3.693   5.807
 4118SOL    HW224386   7.240   3.674   5.663
 4119SOL     OW24387   8.201   3.878   1.403
 4119SOL    HW124388   8.262   3.803   1.428
 4119SOL    HW224389   8.108   3.858   1.435
 4120SOL     OW24390   5.477   5.502   0.351
 4120SOL    HW124391   5.466   5.433   0.421
 4120SOL    HW224392   5.457   5.592   0.389
 4121SOL     OW24393   4.065   5.461   0.587
 4121SOL    HW124394   4.132   5.388   0.567
 4121SOL    HW224395   4.015   5.484   0.504
 4122SOL     OW24396   5.977   8.281   6.959
 4122SOL    HW124397   5.987   8.349   6.886
 4122SOL    HW224398   6.058   8.222   6.960
 4123SOL     OW24399   7.547   1.107   6.891
 4123SOL    HW124400   7.513   1.158   6.812
 4123SOL    HW224401   7.495   1.023   6.902
 4124SOL     OW24402   3.285   2.541   0.419
 4124SOL    HW124403   3.274   2.638   0.396
 4124SOL    HW224404   3.206   2.490   0.386
 4125SOL     OW24405   6.796   1.607   6.293
 4125SOL    HW124406   6.720   1.621   6.356
 4125SOL    HW224407   6.771   1.539   6.224
 4126SOL     OW24408   1.581   6.616   6.697
 4126SOL    HW124409   1.523   6.553   6.645
 4126SOL    HW224410   1.662   6.638   6.643
 4127SOL     OW24411   0.181   1.909   6.229
 4127SOL    HW124412   0.103   1.972   6.237
 4127SOL    HW224413   0.174   1.859   6.142
 4128SOL     OW24414   2.569   1.231   0.864
 4128SOL    HW124415   2.644   1.262   0.806
 4128SOL    HW224416   2.601   1.225   0.959
 4129SOL     OW24417   6.949   6.627   5.707
 4129SOL    HW124418   6.906   6.692   5.645
 4129SOL    HW224419   7.048   6.641   5.708
 4130SOL     OW24420   5.504   4.626   2.156
 4130SOL    HW124421   5.461   4.716   2.148
 4130SOL    HW224422   5.439   4.555   2.126
 4131SOL     OW24423   4.217   6.525   6.836
 4131SOL    HW124424   4.242   6.540   6.740
 4131SOL    HW224425   4.272   6.450   6.873
 4132SOL     OW24426   3.593   6.557   0.450
 4132SOL    HW124427   3.642   6.640   0.478
 4132SOL    HW224428   3.523   6.580   0.382
 4133SOL     OW24429   6.744   4.285   6.936
 4133SOL    HW124430   6.834   4.327   6.929
 4133SOL    HW224431   6.674   4.356   6.936
 4134SOL     OW24432   7.294  -0.063   5.547
 4134SOL    HW124433   7.199  -0.081   5.523
 4134SOL    HW224434   7.350  -0.061   5.464
 4135SOL     OW24435   1.010   6.064   6.766
 4135SOL    HW124436   1.036   5.969   6.780
 4135SOL    HW224437   0.933   6.069   6.702
 4136SOL     OW24438   3.525   0.806   1.426
 4136SOL    HW124439   3.493   0.870   1.356
 4136SOL    HW224440   3.454   0.739   1.445
 4137SOL     OW24441   6.130   7.288   5.964
 4137SOL    HW124442   6.176   7.215   5.912
 4137SOL    HW224443   6.032   7.284   5.945
 4138SOL     OW24444   4.418   1.012   5.802
 4138SOL    HW124445   4.359   1.006   5.883
 4138SOL    HW224446   4.403   0.933   5.743
 4139SOL     OW24447   1.196   5.216   6.150
 4139SOL    HW124448   1.209   5.297   6.093
 4139SOL    HW224449   1.099   5.190   6.149
 4140SOL     OW24450   1.917   6.641   5.707
 4140SOL    HW124451   1.856   6.640   5.787
 4140SOL    HW224452   1.873   6.591   5.632
 4141SOL     OW24453   5.417   7.989   5.903
 4141SOL    HW124454   5.447   8.079   5.936
 4141SOL    HW224455   5.371   8.000   5.816
 4142SOL     OW24456   3.696   6.921   6.215
 4142SOL    HW124457   3.763   6.849   6.230
 4142SOL    HW224458   3.627   6.888   6.150
 4143SOL     OW24459   8.909   6.030   5.273
 4143SOL    HW124460   8.845   5.984   5.335
 4143SOL    HW224461   8.963   5.962   5.224
 4144SOL     OW24462   3.164   4.331   0.709
 4144SOL    HW124463   3.086   4.385   0.677
 4144SOL    HW224464   3.224   4.310   0.632
 4145SOL     OW24465   3.190   4.892   6.877
 4145SOL    HW124466   3.101   4.908   6.921
 4145SOL    HW224467   3.243   4.827   6.931
 4146SOL     OW24468   6.257   2.397   6.236
 4146SOL    HW124469   6.204   2.335   6.180
 4146SOL    HW224470   6.224   2.395   6.330
 4147SOL     OW24471   1.222   3.895   0.514
 4147SOL    HW124472   1.322   3.893   0.505
 4147SOL    HW224473   1.196   3.866   0.606
 4148SOL     OW24474   0.561   7.990   1.711
 4148SOL    HW124475   0.535   8.085   1.729
 4148SOL    HW224476   0.525   7.932   1.784
 4149SOL     OW24477   2.398   7.782   5.271
 4149SOL    HW124478   2.473   7.837   5.232
 4149SOL    HW224479   2.355   7.728   5.199
 4150SOL     OW24480   0.877   1.528   6.038
 4150SOL    HW124481   0.882   1.624   6.011
 4150SOL    HW224482   0.803   1.516   6.104
 4151SOL     OW24483   0.933   4.110   1.624
 4151SOL    HW124484   0.895   4.127   1.714
 4151SOL    HW224485   0.944   4.011   1.610
 4152SOL     OW24486   3.266   4.982   6.645
 4152SOL    HW124487   3.354   5.027   6.660
 4152SOL    HW224488   3.232   4.946   6.732
 4153SOL     OW24489   1.745   8.266   5.813
 4153SOL    HW124490   1.767   8.306   5.723
 4153SOL    HW224491   1.830   8.250   5.863
 4154SOL     OW24492   0.315   4.980   5.517
 4154SOL    HW124493   0.281   4.997   5.425
 4154SOL    HW224494   0.272   4.898   5.555
 4155SOL     OW24495   6.704   5.261   6.767
 4155SOL    HW124496   6.625   5.281   6.825
 4155SOL    HW224497   6.757   5.345   6.751
 4156SOL     OW24498   3.464   3.072   6.627
 4156SOL    HW124499   3.448   3.083   6.725
 4156SOL    HW224500   3.546   3.017   6.613
 4157SOL     OW24501   0.383   6.368   4.914
 4157SOL    HW124502   0.397   6.450   4.859
 4157SOL    HW224503   0.466   6.312   4.914
 4158SOL     OW24504   9.271   5.001   5.645
 4158SOL    HW124505   9.180   5.038   5.626
 4158SOL    HW224506   9.309   4.960   5.562
 4159SOL     OW24507   4.371   7.699   1.128
 4159SOL    HW124508   4.325   7.634   1.189
 4159SOL    HW224509   4.307   7.732   1.060
 4160SOL     OW24510   7.821   2.832   6.852
 4160SOL    HW124511   7.920   2.838   6.869
 4160SOL    HW224512   7.805   2.811   6.756
 4161SOL     OW24513   2.885   6.947   6.007
 4161SOL    HW124514   2.851   6.956   6.101
 4161SOL    HW224515   2.849   7.023   5.952
 4162SOL     OW24516   3.572   2.998   2.145
 4162SOL    HW124517   3.525   3.084   2.126
 4162SOL    HW224518   3.529   2.953   2.224
 4163SOL     OW24519   2.495   7.427   1.033
 4163SOL    HW124520   2.428   7.483   0.985
 4163SOL    HW224521   2.455   7.337   1.054
 4164SOL     OW24522   4.079   5.411   1.627
 4164SOL    HW124523   4.001   5.444   1.681
 4164SOL    HW224524   4.109   5.322   1.662
 4165SOL     OW24525   8.581   2.365   1.346
 4165SOL    HW124526   8.486   2.350   1.375
 4165SOL    HW224527   8.622   2.437   1.401
 4166SOL     OW24528   6.863   5.697   1.093
 4166SOL    HW124529   6.773   5.731   1.065
 4166SOL    HW224530   6.863   5.597   1.092
 4167SOL     OW24531   7.889   3.608   6.197
 4167SOL    HW124532   7.953   3.586   6.123
 4167SOL    HW224533   7.806   3.649   6.158
 4168SOL     OW24534   5.865   8.383   1.252
 4168SOL    HW124535   5.845   8.472   1.210
 4168SOL    HW224536   5.955   8.385   1.294
 4169SOL     OW24537   5.185   6.556   1.775
 4169SOL    HW124538   5.252   6.485   1.751
 4169SOL    HW224539   5.217   6.645   1.743
 4170SOL     OW24540   1.318   5.618   0.296
 4170SOL    HW124541   1.260   5.577   0.225
 4170SOL    HW224542   1.347   5.709   0.266
 4171SOL     OW24543   2.162   0.259   1.252
 4171SOL    HW124544   2.229   0.314   1.303
 4171SOL    HW224545   2.072   0.267   1.295
 4172SOL     OW24546   4.513   0.407   6.350
 4172SOL    HW124547   4.506   0.490   6.295
 4172SOL    HW224548   4.568   0.339   6.302
 4173SOL     OW24549   8.306   7.602   0.863
 4173SOL    HW124550   8.354   7.573   0.781
 4173SOL    HW224551   8.293   7.702   0.861
 4174SOL     OW24552   0.875   6.525   4.788
 4174SOL    HW124553   0.878   6.428   4.762
 4174SOL    HW224554   0.924   6.537   4.875
 4175SOL     OW24555   2.277   7.619   6.324
 4175SOL    HW124556   2.294   7.714   6.299
 4175SOL    HW224557   2.185   7.593   6.293
 4176SOL     OW24558   4.919   3.654   1.962
 4176SOL    HW124559   4.863   3.588   2.012
 4176SOL    HW224560   4.996   3.682   2.020
 4177SOL     OW24561   2.127   1.234   0.296
 4177SOL    HW124562   2.112   1.327   0.264
 4177SOL    HW224563   2.218   1.227   0.337
 4178SOL     OW24564   2.619   2.699   1.142
 4178SOL    HW124565   2.579   2.765   1.078
 4178SOL    HW224566   2.545   2.647   1.185
 4179SOL     OW24567   6.460   3.849   6.441
 4179SOL    HW124568   6.440   3.907   6.520
 4179SOL    HW224569   6.389   3.863   6.371
 4180SOL     OW24570   3.820   7.794   6.930
 4180SOL    HW124571   3.790   7.703   6.961
 4180SOL    HW224572   3.770   7.818   6.847
 4181SOL     OW24573   3.328   1.359   5.910
 4181SOL    HW124574   3.302   1.315   5.824
 4181SOL    HW224575   3.251   1.413   5.944
 4182SOL     OW24576   4.213   2.236   6.375
 4182SOL    HW124577   4.189   2.272   6.285
 4182SOL    HW224578   4.162   2.152   6.393
 4183SOL     OW24579   7.151   0.338   0.384
 4183SOL    HW124580   7.183   0.268   0.319
 4183SOL    HW224581   7.218   0.412   0.388
 4184SOL     OW24582   6.295   6.598   6.378
 4184SOL    HW124583   6.323   6.693   6.380
 4184SOL    HW224584   6.253   6.573   6.466
 4185SOL     OW24585   4.355   2.409   1.486
 4185SOL    HW124586   4.416   2.484   1.460
 4185SOL    HW224587   4.407   2.324   1.492
 4186SOL     OW24588   0.831   3.188   0.581
 4186SOL    HW124589   0.887   3.199   0.663
 4186SOL    HW224590   0.742   3.231   0.595
 4187SOL     OW24591   8.966   2.567   1.274
 4187SOL    HW124592   9.063   2.590   1.259
 4187SOL    HW224593   8.959   2.473   1.306
 4188SOL     OW24594   8.974   6.782   0.677
 4188SOL    HW124595   8.981   6.695   0.629
 4188SOL    HW224596   8.948   6.766   0.772
 4189SOL     OW24597   9.001   7.761   0.643
 4189SOL    HW124598   9.034   7.854   0.626
 4189SOL    HW224599   9.037   7.729   0.731
 4190SOL     OW24600   8.804   4.158   6.077
 4190SOL    HW124601   8.771   4.101   6.152
 4190SOL    HW224602   8.773   4.119   5.990
 4191SOL     OW24603   9.032   3.663   5.842
 4191SOL    HW124604   9.005   3.593   5.776
 4191SOL    HW224605   9.101   3.723   5.802
 4192SOL     OW24606   1.799   6.700   6.570
 4192SOL    HW124607   1.797   6.796   6.599
 4192SOL    HW224608   1.756   6.693   6.480
 4193SOL     OW24609   7.360   6.076   5.942
 4193SOL    HW124610   7.346   5.988   5.897
 4193SOL    HW224611   7.377   6.146   5.873
 4194SOL     OW24612   7.077   5.469   0.745
 4194SOL    HW124613   7.149   5.450   0.811
 4194SOL    HW224614   7.018   5.389   0.736
 4195SOL     OW24615   3.069   4.873   0.385
 4195SOL    HW124616   3.115   4.801   0.437
 4195SOL    HW224617   2.994   4.910   0.439
 4196SOL     OW24618   5.780   6.653   2.462
 4196SOL    HW124619   5.811   6.746   2.479
 4196SOL    HW224620   5.858   6.590   2.463
 4197SOL     OW24621   1.453   7.966   6.259
 4197SOL    HW124622   1.447   8.065   6.249
 4197SOL    HW224623   1.424   7.922   6.174
 4198SOL     OW24624   1.887   3.576   6.045
 4198SOL    HW124625   1.875   3.515   5.967
 4198SOL    HW224626   1.829   3.657   6.034
 4199SOL     OW24627   5.053   6.884   6.667
 4199SOL    HW124628   5.033   6.916   6.760
 4199SOL    HW224629   5.148   6.853   6.662
 4200SOL     OW24630   0.173   2.604   6.791
 4200SOL    HW124631   0.186   2.510   6.821
 4200SOL    HW224632   0.092   2.610   6.733
 4201SOL     OW24633   5.814   1.542   6.719
 4201SOL    HW124634   5.821   1.642   6.717
 4201SOL    HW224635   5.904   1.503   6.742
 4202SOL     OW24636   9.445   2.086   6.572
 4202SOL    HW124637   9.438   2.167   6.514
 4202SOL    HW224638   9.515   2.101   6.642
 4203SOL     OW24639   1.076   1.761   6.727
 4203SOL    HW124640   1.090   1.685   6.790
 4203SOL    HW224641   1.009   1.735   6.658
 4204SOL     OW24642   8.651   6.994   0.450
 4204SOL    HW124643   8.711   6.935   0.395
 4204SOL    HW224644   8.557   6.963   0.442
 4205SOL     OW24645   8.399   2.280   1.035
 4205SOL    HW124646   8.370   2.215   0.965
 4205SOL    HW224647   8.495   2.263   1.058
 4206SOL     OW24648   4.267   2.754   0.278
 4206SOL    HW124649   4.207   2.698   0.222
 4206SOL    HW224650   4.362   2.726   0.265
 4207SOL     OW24651   2.901   2.288   1.357
 4207SOL    HW124652   2.857   2.366   1.401
 4207SOL    HW224653   2.928   2.313   1.264
 4208SOL     OW24654   2.250   3.380   6.601
 4208SOL    HW124655   2.292   3.444   6.536
 4208SOL    HW224656   2.292   3.290   6.590
 4209SOL     OW24657   4.319   5.403   2.108
 4209SOL    HW124658   4.326   5.303   2.101
 4209SOL    HW224659   4.253   5.427   2.179
 4210SOL     OW24660   5.317   0.353   0.566
 4210SOL    HW124661   5.238   0.412   0.552
 4210SOL    HW224662   5.289   0.257   0.563
 4211SOL     OW24663   8.051   6.354   0.834
 4211SOL    HW124664   7.990   6.275   0.825
 4211SOL    HW224665   8.122   6.333   0.902
 4212SOL     OW24666   8.073   2.441   0.938
 4212SOL    HW124667   8.158   2.470   0.896
 4212SOL    HW224668   8.017   2.393   0.870
 4213SOL     OW24669   7.042   6.575   1.223
 4213SOL    HW124670   7.084   6.611   1.140
 4213SOL    HW224671   6.944   6.564   1.209
 4214SOL     OW24672   7.251   0.269   1.021
 4214SOL    HW124673   7.323   0.224   0.967
 4214SOL    HW224674   7.166   0.271   0.968
 4215SOL     OW24675   3.631   6.829   1.915
 4215SOL    HW124676   3.720   6.862   1.885
 4215SOL    HW224677   3.642   6.775   1.998
 4216SOL     OW24678   9.295   7.774   5.782
 4216SOL    HW124679   9.317   7.870   5.798
 4216SOL    HW224680   9.204   7.755   5.818
 4217SOL     OW24681   3.541   7.349   6.412
 4217SOL    HW124682   3.544   7.252   6.389
 4217SOL    HW224683   3.579   7.403   6.336
 4218SOL     OW24684   5.451   1.138   0.416
 4218SOL    HW124685   5.369   1.089   0.444
 4218SOL    HW224686   5.532   1.086   0.442
 4219SOL     OW24687   0.432   7.520   5.046
 4219SOL    HW124688   0.422   7.605   4.995
 4219SOL    HW224689   0.519   7.476   5.021
 4220SOL     OW24690   7.406   4.807   0.583
 4220SOL    HW124691   7.332   4.865   0.550
 4220SOL    HW224692   7.420   4.823   0.680
 4221SOL     OW24693   4.561   5.516   0.480
 4221SOL    HW124694   4.650   5.530   0.437
 4221SOL    HW224695   4.567   5.441   0.545
 4222SOL     OW24696   3.437   1.729   5.954
 4222SOL    HW124697   3.426   1.760   5.859
 4222SOL    HW224698   3.513   1.779   5.996
 4223SOL     OW24699   8.760   0.640   6.676
 4223SOL    HW124700   8.792   0.553   6.640
 4223SOL    HW224701   8.670   0.661   6.638
 4224SOL     OW24702   3.387   3.917   1.374
 4224SOL    HW124703   3.342   3.870   1.450
 4224SOL    HW224704   3.370   3.868   1.289
 4225SOL     OW24705   4.529   7.702   2.432
 4225SOL    HW124706   4.544   7.795   2.466
 4225SOL    HW224707   4.526   7.704   2.332
 4226SOL     OW24708   3.706   4.950   5.204
 4226SOL    HW124709   3.697   4.952   5.105
 4226SOL    HW224710   3.653   5.024   5.245
 4227SOL     OW24711   8.633   5.552   0.342
 4227SOL    HW124712   8.613   5.471   0.287
 4227SOL    HW224713   8.627   5.634   0.285
 4228SOL     OW24714   6.279   2.866   6.461
 4228SOL    HW124715   6.378   2.865   6.443
 4228SOL    HW224716   6.233   2.801   6.400
 4229SOL     OW24717   0.430   2.520   0.368
 4229SOL    HW124718   0.382   2.599   0.330
 4229SOL    HW224719   0.364   2.457   0.407
 4230SOL     OW24720   1.234   4.838   6.080
 4230SOL    HW124721   1.261   4.873   5.990
 4230SOL    HW224722   1.188   4.911   6.131
 4231SOL     OW24723   1.393   0.238   1.064
 4231SOL    HW124724   1.345   0.273   0.983
 4231SOL    HW224725   1.469   0.181   1.036
 4232SOL     OW24726   6.769   7.702   1.657
 4232SOL    HW124727   6.827   7.705   1.738
 4232SOL    HW224728   6.765   7.609   1.622
 4233SOL     OW24729   5.346   7.051   6.387
 4233SOL    HW124730   5.395   6.993   6.453
 4233SOL    HW224731   5.408   7.076   6.313
 4234SOL     OW24732   5.766   6.250   1.012
 4234SOL    HW124733   5.669   6.264   0.993
 4234SOL    HW224734   5.806   6.192   0.941
 4235SOL     OW24735   7.038   6.100   1.545
 4235SOL    HW124736   7.135   6.080   1.552
 4235SOL    HW224737   6.987   6.015   1.529
 4236SOL     OW24738   8.297   8.260   1.518
 4236SOL    HW124739   8.355   8.254   1.599
 4236SOL    HW224740   8.207   8.295   1.543
 4237SOL     OW24741   2.464   7.138   6.658
 4237SOL    HW124742   2.396   7.075   6.620
 4237SOL    HW224743   2.421   7.197   6.726
 4238SOL     OW24744   0.688   6.400   4.565
 4238SOL    HW124745   0.716   6.387   4.470
 4238SOL    HW224746   0.767   6.387   4.625
 4239SOL     OW24747   5.869   5.872   2.078
 4239SOL    HW124748   5.856   5.774   2.097
 4239SOL    HW224749   5.966   5.894   2.078
 4240SOL     OW24750   2.360   8.073   0.376
 4240SOL    HW124751   2.412   8.013   0.437
 4240SOL    HW224752   2.373   8.168   0.403
 4241SOL     OW24753   6.894   0.949   6.373
 4241SOL    HW124754   6.835   0.883   6.418
 4241SOL    HW224755   6.987   0.911   6.366
 4242SOL     OW24756   4.092   0.007   6.016
 4242SOL    HW124757   4.047   0.096   6.025
 4242SOL    HW224758   4.114  -0.009   5.920
 4243SOL     OW24759   3.053   2.175   0.615
 4243SOL    HW124760   3.044   2.142   0.521
 4243SOL    HW224761   3.006   2.113   0.677
 4244SOL     OW24762   1.164   1.900   6.996
 4244SOL    HW124763   1.083   1.923   6.943
 4244SOL    HW224764   1.155   1.808   7.034
 4245SOL     OW24765   0.410   8.008   6.284
 4245SOL    HW124766   0.329   7.956   6.315
 4245SOL    HW224767   0.432   8.078   6.352
 4246SOL     OW24768   5.423   0.116   5.403
 4246SOL    HW124769   5.382   0.134   5.314
 4246SOL    HW224770   5.465   0.199   5.438
 4247SOL     OW24771   4.660   0.850   0.302
 4247SOL    HW124772   4.742   0.864   0.246
 4247SOL    HW224773   4.643   0.932   0.357
 4248SOL     OW24774   3.900   3.066   0.461
 4248SOL    HW124775   3.938   2.974   0.454
 4248SOL    HW224776   3.955   3.129   0.406
 4249SOL     OW24777   8.794   4.819   6.724
 4249SOL    HW124778   8.856   4.781   6.792
 4249SOL    HW224779   8.766   4.911   6.752
 4250SOL     OW24780   6.079   1.500   6.202
 4250SOL    HW124781   6.001   1.438   6.198
 4250SOL    HW224782   6.093   1.541   6.112
 4251SOL     OW24783   3.920   6.255   6.050
 4251SOL    HW124784   3.994   6.225   5.991
 4251SOL    HW224785   3.934   6.352   6.074
 4252SOL     OW24786   0.387   5.481   5.891
 4252SOL    HW124787   0.383   5.581   5.901
 4252SOL    HW224788   0.481   5.453   5.872
 4253SOL     OW24789   3.764   1.959   1.048
 4253SOL    HW124790   3.803   2.005   0.968
 4253SOL    HW224791   3.828   1.889   1.080
 4254SOL     OW24792   2.441   4.770   6.959
 4254SOL    HW124793   2.526   4.804   7.000
 4254SOL    HW224794   2.374   4.844   6.954
 4255SOL     OW24795   8.419   6.525   5.810
 4255SOL    HW124796   8.496   6.583   5.784
 4255SOL    HW224797   8.453   6.433   5.831
 4256SOL     OW24798   9.306   7.873   6.345
 4256SOL    HW124799   9.387   7.854   6.289
 4256SOL    HW224800   9.292   7.971   6.351
 4257SOL     OW24801   8.580   0.040   1.087
 4257SOL    HW124802   8.616   0.092   1.164
 4257SOL    HW224803   8.505  -0.018   1.119
 4258SOL     OW24804   8.355   6.851   1.005
 4258SOL    HW124805   8.360   6.793   1.086
 4258SOL    HW224806   8.307   6.802   0.932
 4259SOL     OW24807   9.317   3.446   1.655
 4259SOL    HW124808   9.273   3.372   1.707
 4259SOL    HW224809   9.287   3.534   1.692
 4260SOL     OW24810   5.919   6.787   1.354
 4260SOL    HW124811   5.917   6.768   1.452
 4260SOL    HW224812   5.954   6.707   1.305
 4261SOL     OW24813   4.639   7.611   1.061
 4261SOL    HW124814   4.547   7.643   1.083
 4261SOL    HW224815   4.639   7.511   1.059
 4262SOL     OW24816   4.452   1.783   1.952
 4262SOL    HW124817   4.478   1.858   2.012
 4262SOL    HW224818   4.393   1.719   2.001
 4263SOL     OW24819   7.634   0.091   6.058
 4263SOL    HW124820   7.625   0.180   6.013
 4263SOL    HW224821   7.578   0.090   6.140
 4264SOL     OW24822   9.339   5.481   5.109
 4264SOL    HW124823   9.415   5.479   5.044
 4264SOL    HW224824   9.254   5.502   5.060
 4265SOL     OW24825   4.617   5.186   1.052
 4265SOL    HW124826   4.555   5.249   1.005
 4265SOL    HW224827   4.603   5.193   1.151
 4266SOL     OW24828   0.694   1.231   6.607
 4266SOL    HW124829   0.632   1.230   6.528
 4266SOL    HW224830   0.780   1.187   6.582
 4267SOL     OW24831   3.857   6.016   0.837
 4267SOL    HW124832   3.911   6.098   0.849
 4267SOL    HW224833   3.780   6.016   0.902
 4268SOL     OW24834   8.853   6.279   6.070
 4268SOL    HW124835   8.815   6.194   6.107
 4268SOL    HW224836   8.938   6.302   6.119
 4269SOL     OW24837   3.885   7.334   2.665
 4269SOL    HW124838   3.916   7.239   2.663
 4269SOL    HW224839   3.898   7.372   2.757
 4270SOL     OW24840   7.067   5.520   5.392
 4270SOL    HW124841   7.076   5.503   5.490
 4270SOL    HW224842   7.016   5.605   5.377
 4271SOL     OW24843   4.587   5.235   1.320
 4271SOL    HW124844   4.490   5.214   1.332
 4271SOL    HW224845   4.601   5.333   1.333
 4272SOL     OW24846   6.213   4.636   5.925
 4272SOL    HW124847   6.165   4.560   5.881
 4272SOL    HW224848   6.198   4.633   6.024
 4273SOL     OW24849   0.497   0.159   6.557
 4273SOL    HW124850   0.557   0.085   6.589
 4273SOL    HW224851   0.453   0.202   6.635
 4274SOL     OW24852   2.971   0.809   5.993
 4274SOL    HW124853   2.919   0.784   5.911
 4274SOL    HW224854   3.022   0.729   6.026
 4275SOL     OW24855   2.908   6.796   6.444
 4275SOL    HW124856   2.973   6.823   6.514
 4275SOL    HW224857   2.889   6.874   6.384
 4276SOL     OW24858   0.899   6.124   5.079
 4276SOL    HW124859   0.924   6.058   5.150
 4276SOL    HW224860   0.974   6.133   5.014
 4277SOL     OW24861   5.905   3.720   6.638
 4277SOL    HW124862   5.937   3.639   6.589
 4277SOL    HW224863   5.836   3.693   6.705
 4278SOL     OW24864   3.569   7.201   6.966
 4278SOL    HW124865   3.638   7.134   6.993
 4278SOL    HW224866   3.566   7.275   7.033
 4279SOL     OW24867   3.764   7.534   1.368
 4279SOL    HW124868   3.698   7.497   1.303
 4279SOL    HW224869   3.747   7.631   1.381
 4280SOL     OW24870   4.574   4.516   1.190
 4280SOL    HW124871   4.570   4.548   1.095
 4280SOL    HW224872   4.640   4.441   1.196
 4281SOL     OW24873   5.422   4.121   1.122
 4281SOL    HW124874   5.470   4.185   1.183
 4281SOL    HW224875   5.466   4.121   1.032
 4282SOL     OW24876   4.155   0.858   0.905
 4282SOL    HW124877   4.237   0.914   0.893
 4282SOL    HW224878   4.164   0.775   0.851
 4283SOL     OW24879   6.216   0.128   1.312
 4283SOL    HW124880   6.293   0.065   1.296
 4283SOL    HW224881   6.186   0.165   1.224
 4284SOL     OW24882   6.219   2.171   5.732
 4284SOL    HW124883   6.296   2.228   5.707
 4284SOL    HW224884   6.144   2.185   5.667
 4285SOL     OW24885   8.342   7.196   0.635
 4285SOL    HW124886   8.321   7.098   0.637
 4285SOL    HW224887   8.366   7.227   0.727
 4286SOL     OW24888   3.712   5.876   0.278
 4286SOL    HW124889   3.705   5.942   0.353
 4286SOL    HW224890   3.655   5.906   0.202
 4287SOL     OW24891   8.760   2.203   6.989
 4287SOL    HW124892   8.795   2.290   6.953
 4287SOL    HW224893   8.723   2.149   6.914
 4288SOL     OW24894   7.182   2.092   6.940
 4288SOL    HW124895   7.113   2.030   6.903
 4288SOL    HW224896   7.179   2.178   6.889
 4289SOL     OW24897   0.778   5.459   6.251
 4289SOL    HW124898   0.773   5.410   6.338
 4289SOL    HW224899   0.829   5.544   6.263
 4290SOL     OW24900   5.222   1.522   6.401
 4290SOL    HW124901   5.275   1.459   6.344
 4290SOL    HW224902   5.130   1.486   6.415
 4291SOL     OW24903   1.437   3.770   0.920
 4291SOL    HW124904   1.342   3.783   0.889
 4291SOL    HW224905   1.462   3.844   0.982
 4292SOL     OW24906   7.146   2.339   6.858
 4292SOL    HW124907   7.239   2.350   6.822
 4292SOL    HW224908   7.129   2.408   6.927
 4293SOL     OW24909   2.351   3.838   5.966
 4293SOL    HW124910   2.445   3.830   5.934
 4293SOL    HW224911   2.292   3.781   5.909
 4294SOL     OW24912   8.148   0.714   5.351
 4294SOL    HW124913   8.072   0.671   5.399
 4294SOL    HW224914   8.182   0.653   5.280
 4295SOL     OW24915   6.599   7.465   1.275
 4295SOL    HW124916   6.504   7.443   1.296
 4295SOL    HW224917   6.604   7.515   1.188
 4296SOL     OW24918   4.256   7.069   0.819
 4296SOL    HW124919   4.271   6.981   0.775
 4296SOL    HW224920   4.162   7.099   0.803
 4297SOL     OW24921   2.725   5.824   6.349
 4297SOL    HW124922   2.667   5.895   6.308
 4297SOL    HW224923   2.817   5.861   6.363
 4298SOL     OW24924   3.132   0.532   0.967
 4298SOL    HW124925   3.049   0.489   0.931
 4298SOL    HW224926   3.186   0.464   1.018
 4299SOL     OW24927   4.965   7.898   6.295
 4299SOL    HW124928   4.974   7.938   6.387
 4299SOL    HW224929   5.035   7.938   6.235
 4300SOL     OW24930   7.321   3.825   1.108
 4300SOL    HW124931   7.308   3.779   1.196
 4300SOL    HW224932   7.418   3.848   1.096
 4301SOL     OW24933   3.073   6.889   5.807
 4301SOL    HW124934   2.988   6.879   5.858
 4301SOL    HW224935   3.058   6.949   5.728
 4302SOL     OW24936   2.562   7.228   0.743
 4302SOL    HW124937   2.614   7.309   0.715
 4302SOL    HW224938   2.466   7.254   0.758
 4303SOL     OW24939   4.696   5.641   6.261
 4303SOL    HW124940   4.764   5.679   6.198
 4303SOL    HW224941   4.722   5.548   6.286
 4304SOL     OW24942   6.065   4.588   1.349
 4304SOL    HW124943   5.985   4.648   1.353
 4304SOL    HW224944   6.071   4.535   1.433
 4305SOL     OW24945   3.515   3.869   1.814
 4305SOL    HW124946   3.553   3.952   1.774
 4305SOL    HW224947   3.423   3.854   1.778
 4306SOL     OW24948   4.633   1.420   1.258
 4306SOL    HW124949   4.721   1.391   1.296
 4306SOL    HW224950   4.558   1.379   1.310
 4307SOL     OW24951   7.584   6.712   0.364
 4307SOL    HW124952   7.500   6.712   0.309
 4307SOL    HW224953   7.565   6.674   0.454
 4308SOL     OW24954   9.463   7.445   0.753
 4308SOL    HW124955   9.501   7.405   0.836
 4308SOL    HW224956   9.384   7.391   0.723
 4309SOL     OW24957   8.109   0.439   0.662
 4309SOL    HW124958   8.139   0.460   0.569
 4309SOL    HW224959   8.101   0.523   0.714
 4310SOL     OW24960   6.047   2.276   0.398
 4310SOL    HW124961   6.099   2.359   0.419
 4310SOL    HW224962   6.081   2.200   0.453
 4311SOL     OW24963   8.692   1.353   6.403
 4311SOL    HW124964   8.755   1.307   6.466
 4311SOL    HW224965   8.601   1.312   6.411
 4312SOL     OW24966   3.301   6.127   1.057
 4312SOL    HW124967   3.322   6.133   0.960
 4312SOL    HW224968   3.234   6.196   1.081
 4313SOL     OW24969   6.608   6.009   5.547
 4313SOL    HW124970   6.644   6.000   5.455
 4313SOL    HW224971   6.658   5.947   5.608
 4314SOL     OW24972   5.336   1.514   1.464
 4314SOL    HW124973   5.378   1.447   1.526
 4314SOL    HW224974   5.312   1.470   1.378
 4315SOL     OW24975   7.992   4.648   0.465
 4315SOL    HW124976   8.022   4.726   0.410
 4315SOL    HW224977   7.950   4.579   0.405
 4316SOL     OW24978   7.269   0.307   6.662
 4316SOL    HW124979   7.171   0.299   6.640
 4316SOL    HW224980   7.281   0.360   6.745
 4317SOL     OW24981   1.014   2.308   6.961
 4317SOL    HW124982   1.102   2.262   6.950
 4317SOL    HW224983   1.029   2.406   6.974
 4318SOL     OW24984   7.374   5.401   1.416
 4318SOL    HW124985   7.359   5.344   1.497
 4318SOL    HW224986   7.463   5.446   1.422
 4319SOL     OW24987   6.311   4.727   6.309
 4319SOL    HW124988   6.381   4.670   6.351
 4319SOL    HW224989   6.352   4.812   6.276
 4320SOL     OW24990   5.402   7.357   6.323
 4320SOL    HW124991   5.373   7.270   6.283
 4320SOL    HW224992   5.499   7.354   6.344
 4321SOL     OW24993   9.389   5.174   6.787
 4321SOL    HW124994   9.310   5.223   6.825
 4321SOL    HW224995   9.472   5.203   6.834
 4322SOL     OW24996   0.473   4.588   1.030
 4322SOL    HW124997   0.494   4.683   1.053
 4322SOL    HW224998   0.403   4.584   0.959
 4323SOL     OW24999   7.474   8.401   4.962
 4323SOL    HW125000   7.538   8.441   5.027
 4323SOL    HW225001   7.430   8.321   5.003
 4324SOL     OW25002   7.793   4.613   6.578
 4324SOL    HW125003   7.804   4.657   6.667
 4324SOL    HW225004   7.861   4.649   6.514
 4325SOL     OW25005   1.766   6.575   0.815
 4325SOL    HW125006   1.810   6.577   0.725
 4325SOL    HW225007   1.810   6.643   0.874
 4326SOL     OW25008   5.152   6.932   0.629
 4326SOL    HW125009   5.066   6.909   0.674
 4326SOL    HW225010   5.133   6.974   0.540
 4327SOL     OW25011   0.865   4.552   5.509
 4327SOL    HW125012   0.960   4.532   5.530
 4327SOL    HW225013   0.847   4.531   5.412
 4328SOL     OW25014   1.850   3.383   5.841
 4328SOL    HW125015   1.783   3.336   5.783
 4328SOL    HW225016   1.889   3.318   5.906
 4329SOL     OW25017   8.931   7.920   1.638
 4329SOL    HW125018   8.840   7.961   1.629
 4329SOL    HW225019   8.972   7.949   1.724
 4330SOL     OW25020   2.026   8.378   0.788
 4330SOL    HW125021   2.121   8.383   0.817
 4330SOL    HW225022   2.016   8.314   0.712
 4331SOL     OW25023   7.182   6.414   0.438
 4331SOL    HW125024   7.183   6.320   0.472
 4331SOL    HW225025   7.124   6.419   0.356
 4332SOL     OW25026   3.997   7.020   0.341
 4332SOL    HW125027   4.091   7.036   0.308
 4332SOL    HW225028   3.991   6.930   0.382
 4333SOL     OW25029   2.325   7.109   6.195
 4333SOL    HW125030   2.264   7.127   6.272
 4333SOL    HW225031   2.284   7.145   6.111
 4334SOL     OW25032   7.463   4.513   0.910
 4334SOL    HW125033   7.411   4.587   0.868
 4334SOL    HW225034   7.538   4.487   0.850
 4335SOL     OW25035   1.303   6.327   1.490
 4335SOL    HW125036   1.337   6.421   1.501
 4335SOL    HW225037   1.267   6.316   1.397
 4336SOL     OW25038   6.108   8.376   1.387
 4336SOL    HW125039   6.102   8.320   1.469
 4336SOL    HW225040   6.158   8.460   1.407
 4337SOL     OW25041   6.790   3.072   1.145
 4337SOL    HW125042   6.869   3.087   1.086
 4337SOL    HW225043   6.812   3.003   1.214
 4338SOL     OW25044   4.761   8.340   6.431
 4338SOL    HW125045   4.673   8.371   6.394
 4338SOL    HW225046   4.777   8.246   6.404
 4339SOL     OW25047   8.017   2.848   1.372
 4339SOL    HW125048   8.018   2.758   1.329
 4339SOL    HW225049   7.951   2.849   1.447
 4340SOL     OW25050   1.490   7.598   5.474
 4340SOL    HW125051   1.565   7.555   5.423
 4340SOL    HW225052   1.410   7.607   5.415
 4341SOL     OW25053   4.647   8.336   1.301
 4341SOL    HW125054   4.682   8.429   1.289
 4341SOL    HW225055   4.671   8.303   1.392
 4342SOL     OW25056   2.325   1.696   6.012
 4342SOL    HW125057   2.310   1.794   6.021
 4342SOL    HW225058   2.307   1.669   5.917
 4343SOL     OW25059   9.223   3.684   1.794
 4343SOL    HW125060   9.171   3.767   1.770
 4343SOL    HW225061   9.231   3.677   1.893
 4344SOL     OW25062   5.244   1.779   1.563
 4344SOL    HW125063   5.233   1.798   1.660
 4344SOL    HW225064   5.272   1.683   1.551
 4345SOL     OW25065   3.349   7.849   1.854
 4345SOL    HW125066   3.355   7.839   1.953
 4345SOL    HW225067   3.286   7.780   1.818
 4346SOL     OW25068   2.899   2.141   1.809
 4346SOL    HW125069   2.841   2.078   1.861
 4346SOL    HW225070   2.920   2.101   1.720
 4347SOL     OW25071   0.549   8.310   5.957
 4347SOL    HW125072   0.498   8.352   6.032
 4347SOL    HW225073   0.503   8.226   5.928
 4348SOL     OW25074   6.001   8.266   5.635
 4348SOL    HW125075   5.986   8.346   5.693
 4348SOL    HW225076   6.099   8.256   5.616
 4349SOL     OW25077   0.969   0.852   2.199
 4349SOL    HW125078   1.052   0.876   2.249
 4349SOL    HW225079   0.899   0.922   2.217
 4350SOL     OW25080   5.679   2.737   5.865
 4350SOL    HW125081   5.608   2.793   5.822
 4350SOL    HW225082   5.647   2.643   5.874
 4351SOL     OW25083   4.206   0.990   6.008
 4351SOL    HW125084   4.206   1.084   5.973
 4351SOL    HW225085   4.250   0.988   6.098
 4352SOL     OW25086   0.242   3.862   6.879
 4352SOL    HW125087   0.213   3.769   6.856
 4352SOL    HW225088   0.327   3.858   6.931
 4353SOL     OW25089   0.818   1.225   5.277
 4353SOL    HW125090   0.787   1.313   5.314
 4353SOL    HW225091   0.915   1.232   5.252
 4354SOL     OW25092   6.230   7.140   0.966
 4354SOL    HW125093   6.292   7.218   0.953
 4354SOL    HW225094   6.141   7.162   0.926
 4355SOL     OW25095   0.541   7.266   2.219
 4355SOL    HW125096   0.481   7.345   2.211
 4355SOL    HW225097   0.509   7.207   2.293
 4356SOL     OW25098   0.560   5.699   4.570
 4356SOL    HW125099   0.488   5.701   4.639
 4356SOL    HW225100   0.637   5.646   4.604
 4357SOL     OW25101   5.693   3.449   1.308
 4357SOL    HW125102   5.695   3.544   1.339
 4357SOL    HW225103   5.763   3.396   1.356
 4358SOL     OW25104   3.018   8.351   6.330
 4358SOL    HW125105   3.052   8.412   6.258
 4358SOL    HW225106   2.921   8.368   6.346
 4359SOL     OW25107   7.477   4.392   6.356
 4359SOL    HW125108   7.445   4.486   6.370
 4359SOL    HW225109   7.478   4.371   6.259
 4360SOL     OW25110   8.955   3.566   6.155
 4360SOL    HW125111   8.893   3.592   6.229
 4360SOL    HW225112   8.969   3.644   6.094
 4361SOL     OW25113   5.609   8.432   0.367
 4361SOL    HW125114   5.601   8.333   0.377
 4361SOL    HW225115   5.693   8.463   0.413
 4362SOL     OW25116   8.167   0.126   6.872
 4362SOL    HW125117   8.146   0.088   6.782
 4362SOL    HW225118   8.259   0.100   6.900
 4363SOL     OW25119   6.230   7.741   0.701
 4363SOL    HW125120   6.188   7.697   0.780
 4363SOL    HW225121   6.177   7.721   0.619
 4364SOL     OW25122   0.663   6.392   5.050
 4364SOL    HW125123   0.676   6.322   5.121
 4364SOL    HW225124   0.736   6.386   4.983
 4365SOL     OW25125   0.955   4.221   6.704
 4365SOL    HW125126   0.953   4.278   6.786
 4365SOL    HW225127   0.931   4.276   6.624
 4366SOL     OW25128   6.610   4.197   5.733
 4366SOL    HW125129   6.662   4.281   5.749
 4366SOL    HW225130   6.518   4.207   5.772
 4367SOL     OW25131   6.549   2.587   0.627
 4367SOL    HW125132   6.564   2.584   0.529
 4367SOL    HW225133   6.482   2.658   0.649
 4368SOL     OW25134   0.339   5.322   6.241
 4368SOL    HW125135   0.263   5.387   6.234
 4368SOL    HW225136   0.333   5.255   6.168
 4369SOL     OW25137   1.705   5.711   6.397
 4369SOL    HW125138   1.709   5.776   6.321
 4369SOL    HW225139   1.753   5.627   6.372
 4370SOL     OW25140   7.538   7.994   1.233
 4370SOL    HW125141   7.526   8.083   1.189
 4370SOL    HW225142   7.466   7.980   1.301
 4371SOL     OW25143   4.614   6.458   5.850
 4371SOL    HW125144   4.589   6.404   5.770
 4371SOL    HW225145   4.595   6.555   5.833
 4372SOL     OW25146   1.488   1.830   0.293
 4372SOL    HW125147   1.532   1.768   0.358
 4372SOL    HW225148   1.391   1.838   0.315
 4373SOL     OW25149   3.792   2.756   1.553
 4373SOL    HW125150   3.724   2.689   1.583
 4373SOL    HW225151   3.831   2.727   1.466
 4374SOL     OW25152   2.835   3.342   1.225
 4374SOL    HW125153   2.903   3.384   1.165
 4374SOL    HW225154   2.879   3.273   1.283
 4375SOL     OW25155   6.619   8.191   1.688
 4375SOL    HW125156   6.629   8.092   1.698
 4375SOL    HW225157   6.630   8.234   1.777
 4376SOL     OW25158   4.225   5.074   0.663
 4376SOL    HW125159   4.241   5.033   0.573
 4376SOL    HW225160   4.289   5.033   0.729
 4377SOL     OW25161   8.851   8.167   0.787
 4377SOL    HW125162   8.942   8.129   0.768
 4377SOL    HW225163   8.797   8.168   0.703
 4378SOL     OW25164   3.942   6.698   5.781
 4378SOL    HW125165   3.864   6.740   5.828
 4378SOL    HW225166   3.947   6.601   5.805
 4379SOL     OW25167   5.448   0.936   1.404
 4379SOL    HW125168   5.428   1.012   1.466
 4379SOL    HW225169   5.366   0.912   1.352
 4380SOL     OW25170   2.724   6.342   5.897
 4380SOL    HW125171   2.687   6.419   5.846
 4380SOL    HW225172   2.754   6.271   5.834
 4381SOL     OW25173   7.183   5.009   0.528
 4381SOL    HW125174   7.106   4.958   0.489
 4381SOL    HW225175   7.244   5.038   0.454
 4382SOL     OW25176   2.673   1.719   6.258
 4382SOL    HW125177   2.683   1.627   6.296
 4382SOL    HW225178   2.647   1.714   6.162
 4383SOL     OW25179   6.388   0.830   2.143
 4383SOL    HW125180   6.457   0.869   2.082
 4383SOL    HW225181   6.425   0.748   2.186
 4384SOL     OW25182   4.621   6.757   2.389
 4384SOL    HW125183   4.529   6.722   2.408
 4384SOL    HW225184   4.675   6.686   2.345
 4385SOL     OW25185   8.396   1.620   6.879
 4385SOL    HW125186   8.479   1.651   6.925
 4385SOL    HW225187   8.420   1.572   6.795
 4386SOL     OW25188   9.345   5.284   1.234
 4386SOL    HW125189   9.427   5.276   1.290
 4386SOL    HW225190   9.264   5.273   1.292
 4387SOL     OW25191   6.218   5.884   1.571
 4387SOL    HW125192   6.243   5.882   1.668
 4387SOL    HW225193   6.153   5.959   1.555
 4388SOL     OW25194   7.341   5.713   5.536
 4388SOL    HW125195   7.393   5.672   5.461
 4388SOL    HW225196   7.255   5.663   5.548
 4389SOL     OW25197   5.461   1.507   5.962
 4389SOL    HW125198   5.543   1.466   5.921
 4389SOL    HW225199   5.454   1.603   5.932
 4390SOL     OW25200   2.013   7.568   5.278
 4390SOL    HW125201   2.012   7.529   5.186
 4390SOL    HW225202   2.095   7.538   5.327
 4391SOL     OW25203   9.413   6.511   0.462
 4391SOL    HW125204   9.483   6.556   0.406
 4391SOL    HW225205   9.453   6.485   0.550
 4392SOL     OW25206   7.031   6.342   1.402
 4392SOL    HW125207   6.943   6.334   1.356
 4392SOL    HW225208   7.053   6.257   1.449
 4393SOL     OW25209   9.556   0.991   0.415
 4393SOL    HW125210   9.547   0.966   0.511
 4393SOL    HW225211   9.513   1.080   0.399
 4394SOL     OW25212   0.485  -0.061   5.702
 4394SOL    HW125213   0.536  -0.088   5.783
 4394SOL    HW225214   0.546  -0.012   5.639
 4395SOL     OW25215   5.200   4.835   6.819
 4395SOL    HW125216   5.121   4.797   6.868
 4395SOL    HW225217   5.225   4.773   6.745
 4396SOL     OW25218   5.247   3.435   1.066
 4396SOL    HW125219   5.225   3.364   0.999
 4396SOL    HW225220   5.309   3.397   1.135
 4397SOL     OW25221   2.633   2.368   6.585
 4397SOL    HW125222   2.673   2.411   6.667
 4397SOL    HW225223   2.618   2.271   6.602
 4398SOL     OW25224   7.190   5.995   6.638
 4398SOL    HW125225   7.209   5.924   6.707
 4398SOL    HW225226   7.128   6.063   6.676
 4399SOL     OW25227   5.128   0.347   1.114
 4399SOL    HW125228   5.170   0.437   1.117
 4399SOL    HW225229   5.098   0.321   1.206
 4400SOL     OW25230   3.726   0.868   5.199
 4400SOL    HW125231   3.817   0.877   5.159
 4400SOL    HW225232   3.658   0.867   5.127
 4401SOL     OW25233   8.675   7.613   1.465
 4401SOL    HW125234   8.585   7.569   1.464
 4401SOL    HW225235   8.746   7.545   1.482
 4402SOL     OW25236   7.543   4.185   1.615
 4402SOL    HW125237   7.554   4.141   1.704
 4402SOL    HW225238   7.467   4.250   1.619
 4403SOL     OW25239   3.200   7.110   1.703
 4403SOL    HW125240   3.215   7.184   1.769
 4403SOL    HW225241   3.235   7.138   1.613
 4404SOL     OW25242   7.973   5.221   5.744
 4404SOL    HW125243   7.980   5.221   5.844
 4404SOL    HW225244   7.897   5.280   5.715
 4405SOL     OW25245   4.664   0.736   1.454
 4405SOL    HW125246   4.609   0.773   1.529
 4405SOL    HW225247   4.623   0.761   1.367
 4406SOL     OW25248   8.551   3.368   6.712
 4406SOL    HW125249   8.527   3.464   6.728
 4406SOL    HW225250   8.513   3.340   6.623
 4407SOL     OW25251   3.273   4.231   6.859
 4407SOL    HW125252   3.325   4.167   6.915
 4407SOL    HW225253   3.188   4.189   6.830
 4408SOL     OW25254   2.425   5.224   6.416
 4408SOL    HW125255   2.491   5.165   6.370
 4408SOL    HW225256   2.335   5.180   6.415
 4409SOL     OW25257   4.500   8.366   0.619
 4409SOL    HW125258   4.409   8.326   0.635
 4409SOL    HW225259   4.505   8.455   0.663
 4410SOL     OW25260   1.960   0.005   1.302
 4410SOL    HW125261   2.035  -0.056   1.277
 4410SOL    HW225262   1.944   0.000   1.401
 4411SOL     OW25263   4.949   1.609   5.519
 4411SOL    HW125264   4.997   1.697   5.513
 4411SOL    HW225265   4.898   1.593   5.434
 4412SOL     OW25266   9.385   2.116   5.341
 4412SOL    HW125267   9.285   2.107   5.335
 4412SOL    HW225268   9.417   2.179   5.271
 4413SOL     OW25269   3.679   2.651   1.306
 4413SOL    HW125270   3.644   2.563   1.276
 4413SOL    HW225271   3.604   2.706   1.342
 4414SOL     OW25272   6.524   2.422   0.360
 4414SOL    HW125273   6.583   2.435   0.280
 4414SOL    HW225274   6.579   2.393   0.438
 4415SOL     OW25275   4.061   7.743   5.968
 4415SOL    HW125276   4.145   7.798   5.964
 4415SOL    HW225277   3.994   7.790   6.026
 4416SOL     OW25278   2.867   6.599   6.947
 4416SOL    HW125279   2.853   6.664   7.022
 4416SOL    HW225280   2.945   6.630   6.892
 4417SOL     OW25281   8.565   4.509   6.879
 4417SOL    HW125282   8.559   4.582   6.811
 4417SOL    HW225283   8.473   4.475   6.899
 4418SOL     OW25284   1.652   7.277   6.556
 4418SOL    HW125285   1.742   7.256   6.594
 4418SOL    HW225286   1.662   7.332   6.473
 4419SOL     OW25287   1.876   4.675   0.919
 4419SOL    HW125288   1.895   4.578   0.903
 4419SOL    HW225289   1.912   4.729   0.843
 4420SOL     OW25290   3.991   8.055   1.233
 4420SOL    HW125291   4.005   8.025   1.138
 4420SOL    HW225292   3.976   7.975   1.291
 4421SOL     OW25293   8.178   0.263   5.807
 4421SOL    HW125294   8.245   0.336   5.821
 4421SOL    HW225295   8.184   0.197   5.883
 4422SOL     OW25296   3.251   8.186   2.065
 4422SOL    HW125297   3.219   8.258   2.127
 4422SOL    HW225298   3.306   8.119   2.116
 4423SOL     OW25299   4.852   0.241   6.357
 4423SOL    HW125300   4.758   0.232   6.323
 4423SOL    HW225301   4.853   0.301   6.437
 4424SOL     OW25302   6.753   6.608   1.139
 4424SOL    HW125303   6.694   6.547   1.192
 4424SOL    HW225304   6.701   6.687   1.109
 4425SOL     OW25305   4.242   6.511   1.681
 4425SOL    HW125306   4.318   6.450   1.702
 4425SOL    HW225307   4.275   6.585   1.622
 4426SOL     OW25308   1.691   5.383   1.218
 4426SOL    HW125309   1.634   5.354   1.295
 4426SOL    HW225310   1.650   5.351   1.133
 4427SOL     OW25311   3.895   0.574   1.044
 4427SOL    HW125312   3.987   0.571   1.004
 4427SOL    HW225313   3.842   0.647   1.000
 4428SOL     OW25314   1.094   0.894   5.566
 4428SOL    HW125315   1.024   0.965   5.577
 4428SOL    HW225316   1.157   0.920   5.493
 4429SOL     OW25317   9.095   8.259   6.607
 4429SOL    HW125318   9.087   8.161   6.622
 4429SOL    HW225319   9.063   8.308   6.688
 4430SOL     OW25320   6.579   2.019   1.560
 4430SOL    HW125321   6.628   1.933   1.543
 4430SOL    HW225322   6.510   2.033   1.488
 4431SOL     OW25323   0.611   2.407   6.363
 4431SOL    HW125324   0.545   2.384   6.291
 4431SOL    HW225325   0.567   2.467   6.430
 4432SOL     OW25326   7.877   1.337   1.397
 4432SOL    HW125327   7.821   1.319   1.477
 4432SOL    HW225328   7.884   1.254   1.342
 4433SOL     OW25329   9.524   0.637   0.836
 4433SOL    HW125330   9.569   0.723   0.858
 4433SOL    HW225331   9.587   0.578   0.786
 4434SOL     OW25332   3.119   6.115   6.074
 4434SOL    HW125333   3.144   6.123   5.977
 4434SOL    HW225334   3.024   6.144   6.086
 4435SOL     OW25335   2.012   6.553   1.938
 4435SOL    HW125336   2.094   6.608   1.956
 4435SOL    HW225337   2.026   6.461   1.975
 4436SOL     OW25338   4.022   4.256   6.558
 4436SOL    HW125339   4.046   4.226   6.466
 4436SOL    HW225340   4.004   4.355   6.558
 4437SOL     OW25341   8.059   8.270   6.014
 4437SOL    HW125342   8.088   8.254   5.920
 4437SOL    HW225343   8.010   8.357   6.020
 4438SOL     OW25344   4.795   1.359   6.050
 4438SOL    HW125345   4.731   1.391   6.120
 4438SOL    HW225346   4.745   1.314   5.977
 4439SOL     OW25347   6.856   4.479   0.878
 4439SOL    HW125348   6.892   4.418   0.807
 4439SOL    HW225349   6.779   4.435   0.924
 4440SOL     OW25350   8.989   0.497   6.260
 4440SOL    HW125351   9.004   0.592   6.236
 4440SOL    HW225352   9.073   0.458   6.299
 4441SOL     OW25353   2.034   7.639   6.225
 4441SOL    HW125354   2.060   7.734   6.239
 4441SOL    HW225355   1.937   7.634   6.198
 4442SOL     OW25356   3.738   1.118   5.372
 4442SOL    HW125357   3.706   1.208   5.343
 4442SOL    HW225358   3.710   1.050   5.305
 4443SOL     OW25359   7.742   0.550   0.470
 4443SOL    HW125360   7.814   0.491   0.436
 4443SOL    HW225361   7.726   0.530   0.567
 4444SOL     OW25362   2.366   1.211   0.384
 4444SOL    HW125363   2.418   1.281   0.336
 4444SOL    HW225364   2.417   1.182   0.466
 4445SOL     OW25365   7.579   7.215   6.790
 4445SOL    HW125366   7.621   7.186   6.876
 4445SOL    HW225367   7.513   7.146   6.761
 4446SOL     OW25368   1.693   7.459   5.320
 4446SOL    HW125369   1.781   7.412   5.327
 4446SOL    HW225370   1.684   7.499   5.228
 4447SOL     OW25371   8.393   4.767   5.423
 4447SOL    HW125372   8.375   4.760   5.325
 4447SOL    HW225373   8.424   4.859   5.445
 4448SOL     OW25374   4.913   6.838   0.940
 4448SOL    HW125375   4.904   6.797   0.849
 4448SOL    HW225376   4.829   6.822   0.992
 4449SOL     OW25377   7.515   6.688   6.135
 4449SOL    HW125378   7.499   6.675   6.037
 4449SOL    HW225379   7.436   6.655   6.186
 4450SOL     OW25380   0.723   5.685   5.839
 4450SOL    HW125381   0.694   5.646   5.751
 4450SOL    HW225382   0.696   5.781   5.843
 4451SOL     OW25383   4.014   4.653   1.148
 4451SOL    HW125384   4.008   4.603   1.234
 4451SOL    HW225385   4.078   4.729   1.157
 4452SOL     OW25386   3.953   0.701   5.807
 4452SOL    HW125387   3.926   0.671   5.715
 4452SOL    HW225388   3.909   0.789   5.827
 4453SOL     OW25389   8.206   7.084   5.968
 4453SOL    HW125390   8.247   7.082   6.059
 4453SOL    HW225391   8.234   7.168   5.921
 4454SOL     OW25392   1.828   1.109   5.129
 4454SOL    HW125393   1.860   1.014   5.134
 4454SOL    HW225394   1.903   1.168   5.099
 4455SOL     OW25395   9.540   2.968   6.952
 4455SOL    HW125396   9.506   2.875   6.939
 4455SOL    HW225397   9.640   2.969   6.945
 4456SOL     OW25398   4.349   0.336   2.148
 4456SOL    HW125399   4.357   0.427   2.107
 4456SOL    HW225400   4.343   0.344   2.247
 4457SOL     OW25401   1.740   2.124   6.907
 4457SOL    HW125402   1.696   2.209   6.935
 4457SOL    HW225403   1.683   2.078   6.838
 4458SOL     OW25404   6.480   2.108   0.505
 4458SOL    HW125405   6.475   2.009   0.511
 4458SOL    HW225406   6.576   2.137   0.506
 4459SOL     OW25407   8.513   2.671   0.936
 4459SOL    HW125408   8.490   2.751   0.991
 4459SOL    HW225409   8.586   2.620   0.981
 4460SOL     OW25410   4.108   7.222   1.805
 4460SOL    HW125411   4.186   7.160   1.814
 4460SOL    HW225412   4.086   7.261   1.895
 4461SOL     OW25413   9.133   8.385   5.974
 4461SOL    HW125414   9.104   8.472   5.936
 4461SOL    HW225415   9.087   8.370   6.062
 4462SOL     OW25416   2.266   4.608   0.952
 4462SOL    HW125417   2.204   4.559   1.012
 4462SOL    HW225418   2.237   4.595   0.857
 4463SOL     OW25419   6.529   5.384   5.629
 4463SOL    HW125420   6.565   5.477   5.638
 4463SOL    HW225421   6.448   5.386   5.570
 4464SOL     OW25422   0.601   7.047   2.020
 4464SOL    HW125423   0.651   6.969   2.057
 4464SOL    HW225424   0.603   7.122   2.085
 4465SOL     OW25425   8.959   2.019   0.686
 4465SOL    HW125426   8.956   2.055   0.593
 4465SOL    HW225427   9.013   2.080   0.744
 4466SOL     OW25428   7.385   4.697   6.590
 4466SOL    HW125429   7.305   4.685   6.531
 4466SOL    HW225430   7.381   4.631   6.665
 4467SOL     OW25431   6.550   0.580   1.383
 4467SOL    HW125432   6.570   0.515   1.310
 4467SOL    HW225433   6.610   0.562   1.461
 4468SOL     OW25434   6.868   6.862   1.002
 4468SOL    HW125435   6.769   6.868   1.015
 4468SOL    HW225436   6.897   6.930   0.935
 4469SOL     OW25437   1.513   8.274   1.069
 4469SOL    HW125438   1.582   8.301   1.001
 4469SOL    HW225439   1.552   8.282   1.161
 4470SOL     OW25440   4.007   4.122   1.861
 4470SOL    HW125441   3.931   4.118   1.926
 4470SOL    HW225442   4.093   4.136   1.911
 4471SOL     OW25443   7.066   2.811   0.295
 4471SOL    HW125444   7.164   2.798   0.307
 4471SOL    HW225445   7.038   2.898   0.335
 4472SOL     OW25446   6.900   1.300   0.290
 4472SOL    HW125447   6.910   1.362   0.212
 4472SOL    HW225448   6.879   1.208   0.258
 4473SOL     OW25449   8.441   5.962   1.179
 4473SOL    HW125450   8.515   5.929   1.121
 4473SOL    HW225451   8.475   6.035   1.238
 4474SOL     OW25452   5.937   2.744   5.763
 4474SOL    HW125453   5.925   2.675   5.692
 4474SOL    HW225454   5.854   2.751   5.818
 4475SOL     OW25455   3.185   5.560   1.202
 4475SOL    HW125456   3.150   5.646   1.238
 4475SOL    HW225457   3.233   5.510   1.274
 4476SOL     OW25458   2.529   6.605   1.072
 4476SOL    HW125459   2.604   6.661   1.107
 4476SOL    HW225460   2.566   6.518   1.037
 4477SOL     OW25461   1.358   1.079   1.327
 4477SOL    HW125462   1.361   1.120   1.419
 4477SOL    HW225463   1.309   0.993   1.331
 4478SOL     OW25464   0.510   5.992   1.432
 4478SOL    HW125465   0.563   6.020   1.513
 4478SOL    HW225466   0.421   5.959   1.460
 4479SOL     OW25467   3.602   3.759   0.653
 4479SOL    HW125468   3.601   3.856   0.679
 4479SOL    HW225469   3.661   3.748   0.573
 4480SOL     OW25470   0.155   6.022   6.020
 4480SOL    HW125471   0.065   6.057   6.047
 4480SOL    HW225472   0.151   5.923   6.011
 4481SOL     OW25473   6.100   1.476   5.880
 4481SOL    HW125474   6.046   1.524   5.812
 4481SOL    HW225475   6.092   1.377   5.866
 4482SOL     OW25476   4.323   3.269   5.680
 4482SOL    HW125477   4.394   3.203   5.655
 4482SOL    HW225478   4.274   3.297   5.597
 4483SOL     OW25479   4.131   1.918   5.951
 4483SOL    HW125480   4.180   1.858   5.888
 4483SOL    HW225481   4.195   1.954   6.019
 4484SOL     OW25482   7.934   6.598   0.886
 4484SOL    HW125483   7.975   6.512   0.858
 4484SOL    HW225484   7.893   6.588   0.977
 4485SOL     OW25485   6.672   2.587   2.062
 4485SOL    HW125486   6.671   2.541   2.150
 4485SOL    HW225487   6.761   2.630   2.048
 4486SOL     OW25488   4.663   6.433   6.139
 4486SOL    HW125489   4.651   6.467   6.045
 4486SOL    HW225490   4.597   6.360   6.156
 4487SOL     OW25491   2.810   7.174   5.891
 4487SOL    HW125492   2.852   7.262   5.866
 4487SOL    HW225493   2.738   7.190   5.958
 4488SOL     OW25494   6.376   0.420   0.734
 4488SOL    HW125495   6.283   0.422   0.771
 4488SOL    HW225496   6.434   0.484   0.786
 4489SOL     OW25497   1.520   3.939   1.416
 4489SOL    HW125498   1.539   3.900   1.506
 4489SOL    HW225499   1.429   3.910   1.386
 4490SOL     OW25500   1.114   6.768   1.128
 4490SOL    HW125501   1.065   6.748   1.212
 4490SOL    HW225502   1.209   6.791   1.149
 4491SOL     OW25503   1.783   4.955   5.947
 4491SOL    HW125504   1.717   4.966   5.873
 4491SOL    HW225505   1.873   4.933   5.908
 4492SOL     OW25506   9.079   6.318   0.468
 4492SOL    HW125507   9.104   6.413   0.487
 4492SOL    HW225508   9.017   6.284   0.538
 4493SOL     OW25509   7.500   4.257   6.595
 4493SOL    HW125510   7.500   4.320   6.517
 4493SOL    HW225511   7.513   4.163   6.562
 4494SOL     OW25512   4.171   6.720   5.946
 4494SOL    HW125513   4.221   6.647   5.900
 4494SOL    HW225514   4.081   6.731   5.904
 4495SOL     OW25515   5.028   5.220   1.495
 4495SOL    HW125516   5.096   5.276   1.448
 4495SOL    HW225517   4.969   5.175   1.428
 4496SOL     OW25518   3.519   4.149   1.884
 4496SOL    HW125519   3.571   4.227   1.849
 4496SOL    HW225520   3.422   4.163   1.866
 4497SOL     OW25521   4.828   5.682   0.814
 4497SOL    HW125522   4.829   5.754   0.884
 4497SOL    HW225523   4.845   5.722   0.724
 4498SOL     OW25524   0.415   6.467   5.609
 4498SOL    HW125525   0.447   6.378   5.641
 4498SOL    HW225526   0.319   6.479   5.632
 4499SOL     OW25527   9.029   2.877   5.797
 4499SOL    HW125528   9.092   2.856   5.871
 4499SOL    HW225529   8.974   2.957   5.820
 4500SOL     OW25530   8.672   7.326   5.290
 4500SOL    HW125531   8.686   7.228   5.273
 4500SOL    HW225532   8.701   7.378   5.210
 4501SOL     OW25533   8.880   0.357   0.703
 4501SOL    HW125534   8.941   0.407   0.764
 4501SOL    HW225535   8.890   0.392   0.610
 4502SOL     OW25536   3.437   2.261   1.391
 4502SOL    HW125537   3.503   2.235   1.461
 4502SOL    HW225538   3.351   2.289   1.435
 4503SOL     OW25539   9.530   3.591   0.406
 4503SOL    HW125540   9.462   3.517   0.406
 4503SOL    HW225541   9.619   3.553   0.378
 4504SOL     OW25542   6.677   4.688   6.269
 4504SOL    HW125543   6.743   4.763   6.268
 4504SOL    HW225544   6.621   4.691   6.186
 4505SOL     OW25545   0.746   7.794   0.814
 4505SOL    HW125546   0.780   7.719   0.872
 4505SOL    HW225547   0.815   7.816   0.745
 4506SOL     OW25548   5.167   8.394   6.764
 4506SOL    HW125549   5.074   8.372   6.732
 4506SOL    HW225550   5.194   8.483   6.727
 4507SOL     OW25551   7.559   8.235   6.401
 4507SOL    HW125552   7.614   8.160   6.437
 4507SOL    HW225553   7.618   8.300   6.353
 4508SOL     OW25554   0.874   0.229   6.604
 4508SOL    HW125555   0.849   0.168   6.680
 4508SOL    HW225556   0.951   0.286   6.631
 4509SOL     OW25557   5.781   0.203   0.852
 4509SOL    HW125558   5.789   0.103   0.849
 4509SOL    HW225559   5.763   0.238   0.759
 4510SOL     OW25560   5.439   0.327   6.748
 4510SOL    HW125561   5.399   0.407   6.793
 4510SOL    HW225562   5.461   0.349   6.653
 4511SOL     OW25563   2.906   6.692   0.891
 4511SOL    HW125564   2.946   6.782   0.879
 4511SOL    HW225565   2.976   6.622   0.876
 4512SOL     OW25566   5.737   1.392   0.949
 4512SOL    HW125567   5.742   1.425   1.043
 4512SOL    HW225568   5.817   1.335   0.929
 4513SOL     OW25569   4.844   0.437   6.517
 4513SOL    HW125570   4.780   0.492   6.570
 4513SOL    HW225571   4.927   0.490   6.498
 4514SOL     OW25572   7.630   7.996   6.132
 4514SOL    HW125573   7.565   8.034   6.067
 4514SOL    HW225574   7.723   8.024   6.107
 4515SOL     OW25575   2.047   0.380   1.668
 4515SOL    HW125576   1.972   0.340   1.720
 4515SOL    HW225577   2.035   0.362   1.571
 4516SOL     OW25578   1.945   3.383   1.226
 4516SOL    HW125579   1.931   3.301   1.281
 4516SOL    HW225580   2.027   3.372   1.170
 4517SOL     OW25581   6.867   1.465   1.855
 4517SOL    HW125582   6.906   1.542   1.805
 4517SOL    HW225583   6.823   1.500   1.939
 4518SOL     OW25584   6.203   7.535   6.102
 4518SOL    HW125585   6.132   7.533   6.172
 4518SOL    HW225586   6.180   7.470   6.029
 4519SOL     OW25587   1.844   7.476   0.861
 4519SOL    HW125588   1.803   7.557   0.905
 4519SOL    HW225589   1.940   7.494   0.841
 4520SOL     OW25590   2.388   0.414   5.795
 4520SOL    HW125591   2.389   0.367   5.707
 4520SOL    HW225592   2.435   0.359   5.864
 4521SOL     OW25593   4.503   4.178   6.871
 4521SOL    HW125594   4.565   4.250   6.902
 4521SOL    HW225595   4.421   4.219   6.831
 4522SOL     OW25596   1.383   0.004   0.826
 4522SOL    HW125597   1.473   0.043   0.849
 4522SOL    HW225598   1.336  -0.021   0.911
 4523SOL     OW25599   0.534   4.103   0.970
 4523SOL    HW125600   0.466   4.042   0.929
 4523SOL    HW225601   0.601   4.130   0.900
 4524SOL     OW25602   5.956   1.575   0.862
 4524SOL    HW125603   5.857   1.565   0.872
 4524SOL    HW225604   5.983   1.667   0.891
 4525SOL     OW25605   6.609   3.724   1.126
 4525SOL    HW125606   6.639   3.805   1.176
 4525SOL    HW225607   6.581   3.751   1.034
 4526SOL     OW25608   7.297   8.162   6.472
 4526SOL    HW125609   7.390   8.190   6.448
 4526SOL    HW225610   7.262   8.223   6.543
 4527SOL     OW25611   6.401   1.711   6.613
 4527SOL    HW125612   6.310   1.674   6.595
 4527SOL    HW225613   6.393   1.803   6.652
 4528SOL     OW25614   6.067   4.375   1.147
 4528SOL    HW125615   6.075   4.434   1.227
 4528SOL    HW225616   5.997   4.306   1.163
 4529SOL     OW25617   8.929   5.233   6.663
 4529SOL    HW125618   8.927   5.325   6.624
 4529SOL    HW225619   8.980   5.172   6.602
 4530SOL     OW25620   9.474   3.852   0.459
 4530SOL    HW125621   9.547   3.916   0.435
 4530SOL    HW225622   9.504   3.759   0.439
 4531SOL     OW25623   9.400   4.012   0.955
 4531SOL    HW125624   9.325   3.980   0.897
 4531SOL    HW225625   9.418   4.108   0.934
 4532SOL     OW25626   2.766   1.062   1.794
 4532SOL    HW125627   2.851   1.115   1.801
 4532SOL    HW225628   2.788   0.967   1.772
 4533SOL     OW25629   6.328   6.165   1.459
 4533SOL    HW125630   6.333   6.265   1.453
 4533SOL    HW225631   6.338   6.137   1.555
 4534SOL     OW25632   7.303   6.012   0.471
 4534SOL    HW125633   7.286   5.925   0.517
 4534SOL    HW225634   7.401   6.030   0.467
 4535SOL     OW25635   1.790   3.869   1.012
 4535SOL    HW125636   1.807   3.771   1.023
 4535SOL    HW225637   1.740   3.903   1.091
 4536SOL     OW25638   6.837   2.935   6.611
 4536SOL    HW125639   6.802   2.995   6.683
 4536SOL    HW225640   6.869   2.849   6.651
 4537SOL     OW25641   4.086   5.977   6.932
 4537SOL    HW125642   4.056   5.882   6.923
 4537SOL    HW225643   4.181   5.985   6.903
 4538SOL     OW25644   3.326   7.117   0.335
 4538SOL    HW125645   3.399   7.136   0.269
 4538SOL    HW225646   3.270   7.042   0.301
 4539SOL     OW25647   4.263   5.808   0.871
 4539SOL    HW125648   4.300   5.881   0.928
 4539SOL    HW225649   4.296   5.720   0.903
 4540SOL     OW25650   3.198   1.413   6.620
 4540SOL    HW125651   3.236   1.327   6.653
 4540SOL    HW225652   3.242   1.489   6.668
 4541SOL     OW25653   3.852   1.748   0.437
 4541SOL    HW125654   3.843   1.655   0.399
 4541SOL    HW225655   3.796   1.811   0.383
 4542SOL     OW25656   2.776   5.390   1.145
 4542SOL    HW125657   2.716   5.311   1.136
 4542SOL    HW225658   2.845   5.372   1.215
 4543SOL     OW25659   0.734   1.791   6.833
 4543SOL    HW125660   0.635   1.779   6.837
 4543SOL    HW225661   0.769   1.759   6.745
 4544SOL     OW25662   2.750   7.485   0.928
 4544SOL    HW125663   2.666   7.443   0.963
 4544SOL    HW225664   2.821   7.482   0.999
 4545SOL     OW25665   2.494   1.636   5.625
 4545SOL    HW125666   2.487   1.540   5.598
 4545SOL    HW225667   2.422   1.689   5.580
 4546SOL     OW25668   7.003   7.379   0.774
 4546SOL    HW125669   7.070   7.453   0.768
 4546SOL    HW225670   6.947   7.378   0.691
 4547SOL     OW25671   6.261   6.697   1.004
 4547SOL    HW125672   6.281   6.604   0.972
 4547SOL    HW225673   6.253   6.758   0.925
 4548SOL     OW25674   2.046   5.515   5.353
 4548SOL    HW125675   1.982   5.439   5.342
 4548SOL    HW225676   2.056   5.563   5.266
 4549SOL     OW25677   4.518   2.160   0.687
 4549SOL    HW125678   4.480   2.081   0.736
 4549SOL    HW225679   4.460   2.181   0.608
 4550SOL     OW25680   7.293   4.319   1.037
 4550SOL    HW125681   7.231   4.360   1.104
 4550SOL    HW225682   7.330   4.390   0.977
 4551SOL     OW25683   1.887   7.143   6.297
 4551SOL    HW125684   1.977   7.180   6.321
 4551SOL    HW225685   1.817   7.213   6.311
 4552SOL     OW25686   2.297   7.594   0.978
 4552SOL    HW125687   2.247   7.612   0.894
 4552SOL    HW225688   2.267   7.657   1.050
 4553SOL     OW25689   3.811   0.517   6.983
 4553SOL    HW125690   3.890   0.458   6.968
 4553SOL    HW225691   3.732   0.478   6.934
 4554SOL     OW25692   0.399   8.373   0.974
 4554SOL    HW125693   0.391   8.278   0.942
 4554SOL    HW225694   0.364   8.434   0.903
 4555SOL     OW25695   8.188   2.291   6.987
 4555SOL    HW125696   8.120   2.364   6.980
 4555SOL    HW225697   8.214   2.279   7.083
 4556SOL     OW25698   7.180   3.244   6.554
 4556SOL    HW125699   7.252   3.315   6.550
 4556SOL    HW225700   7.098   3.278   6.507
 4557SOL     OW25701   5.066   5.508   0.782
 4557SOL    HW125702   5.106   5.540   0.868
 4557SOL    HW225703   4.983   5.561   0.762
 4558SOL     OW25704   9.264   7.077   1.429
 4558SOL    HW125705   9.191   7.041   1.488
 4558SOL    HW225706   9.314   7.148   1.478
 4559SOL     OW25707   4.568   3.628   0.484
 4559SOL    HW125708   4.509   3.579   0.421
 4559SOL    HW225709   4.640   3.675   0.433
 4560SOL     OW25710   7.627   7.090   1.034
 4560SOL    HW125711   7.696   7.141   1.085
 4560SOL    HW225712   7.550   7.150   1.014
 4561SOL     OW25713   6.134   5.063   0.974
 4561SOL    HW125714   6.150   5.113   0.888
 4561SOL    HW225715   6.217   5.065   1.029
 4562SOL     OW25716   0.218   6.019   4.835
 4562SOL    HW125717   0.226   6.047   4.931
 4562SOL    HW225718   0.185   6.097   4.781
 4563SOL     OW25719   5.144  -0.002   1.378
 4563SOL    HW125720   5.232   0.040   1.357
 4563SOL    HW225721   5.138  -0.092   1.334
 4564SOL     OW25722   9.423   4.672   0.587
 4564SOL    HW125723   9.389   4.581   0.562
 4564SOL    HW225724   9.507   4.692   0.537
 4565SOL     OW25725   4.383   3.968   1.191
 4565SOL    HW125726   4.412   4.053   1.147
 4565SOL    HW225727   4.286   3.975   1.216
 4566SOL     OW25728   5.922   7.759   0.810
 4566SOL    HW125729   5.879   7.848   0.791
 4566SOL    HW225730   5.861   7.686   0.783
 4567SOL     OW25731   4.089   7.113   5.408
 4567SOL    HW125732   4.020   7.057   5.362
 4567SOL    HW225733   4.167   7.128   5.347
 4568SOL     OW25734   4.357   6.014   1.017
 4568SOL    HW125735   4.372   6.074   1.096
 4568SOL    HW225736   4.375   6.065   0.933
 4569SOL     OW25737   9.025   1.480   0.935
 4569SOL    HW125738   9.028   1.406   1.003
 4569SOL    HW225739   9.112   1.528   0.935
 4570SOL     OW25740   7.592   7.778   1.031
 4570SOL    HW125741   7.581   7.857   1.091
 4570SOL    HW225742   7.518   7.712   1.050
 4571SOL     OW25743   2.060  -0.053   5.873
 4571SOL    HW125744   2.128   0.016   5.897
 4571SOL    HW225745   1.991  -0.013   5.813
 4572SOL     OW25746   0.538   3.172   5.508
 4572SOL    HW125747   0.631   3.207   5.516
 4572SOL    HW225748   0.525   3.130   5.419
 4573SOL     OW25749   0.902   7.966   0.278
 4573SOL    HW125750   0.905   7.869   0.256
 4573SOL    HW225751   0.874   7.978   0.374
 4574SOL     OW25752   0.189   3.342   0.348
 4574SOL    HW125753   0.256   3.370   0.417
 4574SOL    HW225754   0.123   3.279   0.390
 4575SOL     OW25755   1.613   0.555   6.915
 4575SOL    HW125756   1.567   0.624   6.858
 4575SOL    HW225757   1.549   0.524   6.986
 4576SOL     OW25758   3.777   1.198   1.667
 4576SOL    HW125759   3.873   1.169   1.661
 4576SOL    HW225760   3.772   1.290   1.704
 4577SOL     OW25761   1.057   3.433   0.610
 4577SOL    HW125762   1.022   3.369   0.541
 4577SOL    HW225763   1.154   3.449   0.593
 4578SOL     OW25764   7.418   8.026   6.958
 4578SOL    HW125765   7.475   7.986   7.030
 4578SOL    HW225766   7.380   7.952   6.902
 4579SOL     OW25767   2.586   7.528   6.634
 4579SOL    HW125768   2.580   7.498   6.730
 4579SOL    HW225769   2.599   7.448   6.576
 4580SOL     OW25770   4.364   8.027   0.842
 4580SOL    HW125771   4.371   7.927   0.846
 4580SOL    HW225772   4.395   8.066   0.929
 4581SOL     OW25773   1.685   5.900   6.170
 4581SOL    HW125774   1.609   5.963   6.159
 4581SOL    HW225775   1.678   5.828   6.101
 4582SOL     OW25776   2.595   3.213   1.068
 4582SOL    HW125777   2.677   3.252   1.111
 4582SOL    HW225778   2.531   3.286   1.047
 4583SOL     OW25779   1.480   4.402   0.943
 4583SOL    HW125780   1.418   4.403   0.865
 4583SOL    HW225781   1.571   4.373   0.913
 4584SOL     OW25782   1.219   2.542   4.714
 4584SOL    HW125783   1.313   2.562   4.741
 4584SOL    HW225784   1.220   2.486   4.631
 4585SOL     OW25785   3.764   7.812   1.519
 4585SOL    HW125786   3.826   7.882   1.485
 4585SOL    HW225787   3.686   7.855   1.564
 4586SOL     OW25788   9.452   8.128   5.359
 4586SOL    HW125789   9.511   8.100   5.283
 4586SOL    HW225790   9.414   8.218   5.340
 4587SOL     OW25791   7.506   5.159   1.252
 4587SOL    HW125792   7.463   5.196   1.334
 4587SOL    HW225793   7.598   5.125   1.275
 4588SOL     OW25794   5.150   4.593   1.345
 4588SOL    HW125795   5.185   4.592   1.439
 4588SOL    HW225796   5.218   4.552   1.284
 4589SOL     OW25797   5.174   0.682   5.857
 4589SOL    HW125798   5.148   0.715   5.766
 4589SOL    HW225799   5.222   0.594   5.847
 4590SOL     OW25800   5.927   1.837   5.726
 4590SOL    HW125801   5.857   1.893   5.682
 4590SOL    HW225802   5.933   1.748   5.679
 4591SOL     OW25803   2.168   5.787   6.830
 4591SOL    HW125804   2.256   5.829   6.807
 4591SOL    HW225805   2.172   5.750   6.923
 4592SOL     OW25806   6.388   4.638   5.725
 4592SOL    HW125807   6.335   4.643   5.809
 4592SOL    HW225808   6.326   4.640   5.646
 4593SOL     OW25809   0.348   0.476   0.944
 4593SOL    HW125810   0.290   0.489   0.864
 4593SOL    HW225811   0.296   0.499   1.027
 4594SOL     OW25812   8.712   1.782   0.643
 4594SOL    HW125813   8.756   1.702   0.683
 4594SOL    HW225814   8.772   1.821   0.573
 4595SOL     OW25815   7.192   5.973   6.364
 4595SOL    HW125816   7.181   5.961   6.463
 4595SOL    HW225817   7.129   5.912   6.316
 4596SOL     OW25818   6.665   2.440   1.215
 4596SOL    HW125819   6.649   2.537   1.196
 4596SOL    HW225820   6.703   2.395   1.135
 4597SOL     OW25821   3.174   0.887   1.690
 4597SOL    HW125822   3.201   0.827   1.615
 4597SOL    HW225823   3.075   0.905   1.684
 4598SOL     OW25824   2.131   0.181   1.970
 4598SOL    HW125825   2.220   0.166   2.015
 4598SOL    HW225826   2.073   0.235   2.030
 4599SOL     OW25827   2.311   0.641   1.250
 4599SOL    HW125828   2.329   0.674   1.157
 4599SOL    HW225829   2.227   0.681   1.284
 4600SOL     OW25830   5.496   7.775   1.020
 4600SOL    HW125831   5.573   7.832   1.049
 4600SOL    HW225832   5.463   7.723   1.098
 4601SOL     OW25833   7.995   7.534   6.207
 4601SOL    HW125834   7.908   7.565   6.246
 4601SOL    HW225835   8.027   7.602   6.141
 4602SOL     OW25836   7.110   2.629   1.494
 4602SOL    HW125837   7.074   2.544   1.453
 4602SOL    HW225838   7.157   2.607   1.580
 4603SOL     OW25839   7.988   4.692   5.694
 4603SOL    HW125840   7.895   4.681   5.659
 4603SOL    HW225841   8.050   4.631   5.644
 4604SOL     OW25842   1.110   7.359   1.635
 4604SOL    HW125843   1.152   7.331   1.721
 4604SOL    HW225844   1.018   7.320   1.629
 4605SOL     OW25845   0.264   6.193   6.227
 4605SOL    HW125846   0.266   6.106   6.276
 4605SOL    HW225847   0.224   6.178   6.136
 4606SOL     OW25848   8.243   4.730   6.412
 4606SOL    HW125849   8.269   4.658   6.476
 4606SOL    HW225850   8.286   4.816   6.439
 4607SOL     OW25851   7.645   0.112   5.426
 4607SOL    HW125852   7.586   0.053   5.370
 4607SOL    HW225853   7.701   0.169   5.366
 4608SOL     OW25854   0.228   4.951   6.467
 4608SOL    HW125855   0.157   4.914   6.526
 4608SOL    HW225856   0.317   4.913   6.494
 4609SOL     OW25857   1.496   7.417   1.392
 4609SOL    HW125858   1.418   7.386   1.338
 4609SOL    HW225859   1.558   7.469   1.334
 4610SOL     OW25860   3.674   1.859   5.966
 4610SOL    HW125861   3.757   1.868   6.020
 4610SOL    HW225862   3.697   1.854   5.869
 4611SOL     OW25863   6.811   7.382   6.455
 4611SOL    HW125864   6.744   7.310   6.474
 4611SOL    HW225865   6.807   7.451   6.527
 4612SOL     OW25866   4.277   2.023   5.208
 4612SOL    HW125867   4.238   2.032   5.300
 4612SOL    HW225868   4.231   2.086   5.146
 4613SOL     OW25869   9.054   7.926   6.136
 4613SOL    HW125870   8.969   7.971   6.110
 4613SOL    HW225871   9.128   7.960   6.078
 4614SOL     OW25872   9.445   0.050   5.737
 4614SOL    HW125873   9.402  -0.039   5.755
 4614SOL    HW225874   9.385   0.105   5.680
 4615SOL     OW25875   6.929   5.998   1.819
 4615SOL    HW125876   6.934   5.971   1.915
 4615SOL    HW225877   6.991   5.941   1.765
 4616SOL     OW25878   3.750   6.406   0.606
 4616SOL    HW125879   3.680   6.442   0.545
 4616SOL    HW225880   3.736   6.443   0.698
 4617SOL     OW25881   4.438   5.310   0.758
 4617SOL    HW125882   4.522   5.362   0.743
 4617SOL    HW225883   4.395   5.290   0.670
 4618SOL     OW25884   6.800   3.758   6.821
 4618SOL    HW125885   6.799   3.843   6.874
 4618SOL    HW225886   6.894   3.722   6.817
 4619SOL     OW25887   8.207   1.527   6.430
 4619SOL    HW125888   8.249   1.610   6.393
 4619SOL    HW225889   8.193   1.461   6.356
 4620SOL     OW25890   2.477   3.206   6.635
 4620SOL    HW125891   2.542   3.207   6.559
 4620SOL    HW225892   2.527   3.214   6.721
 4621SOL     OW25893   6.405   3.158   1.362
 4621SOL    HW125894   6.321   3.156   1.417
 4621SOL    HW225895   6.382   3.188   1.269
 4622SOL     OW25896   8.971   4.902   6.526
 4622SOL    HW125897   9.020   4.907   6.613
 4622SOL    HW225898   8.873   4.898   6.543
 4623SOL     OW25899   1.827   6.486   5.500
 4623SOL    HW125900   1.741   6.435   5.490
 4623SOL    HW225901   1.880   6.477   5.415
 4624SOL     OW25902   3.857   0.644   1.439
 4624SOL    HW125903   3.837   0.726   1.386
 4624SOL    HW225904   3.779   0.582   1.435
 4625SOL     OW25905   7.069   4.802   0.372
 4625SOL    HW125906   7.028   4.735   0.434
 4625SOL    HW225907   7.131   4.755   0.309
 4626SOL     OW25908   1.039   8.022   5.396
 4626SOL    HW125909   1.032   8.035   5.495
 4626SOL    HW225910   1.001   8.101   5.348
 4627SOL     OW25911   4.772   2.040   1.175
 4627SOL    HW125912   4.820   2.113   1.225
 4627SOL    HW225913   4.840   1.980   1.132
 4628SOL     OW25914   4.158   0.886   0.308
 4628SOL    HW125915   4.226   0.952   0.339
 4628SOL    HW225916   4.105   0.853   0.387
 4629SOL     OW25917   3.309   7.030   0.888
 4629SOL    HW125918   3.332   6.934   0.869
 4629SOL    HW225919   3.214   7.046   0.864
 4630SOL     OW25920   5.212   7.726   6.393
 4630SOL    HW125921   5.249   7.662   6.460
 4630SOL    HW225922   5.262   7.812   6.397
 4631SOL     OW25923   4.211   1.239   1.113
 4631SOL    HW125924   4.178   1.251   1.019
 4631SOL    HW225925   4.138   1.266   1.177
 4632SOL     OW25926   4.512   8.165   1.126
 4632SOL    HW125927   4.530   8.208   1.215
 4632SOL    HW225928   4.519   8.065   1.136
 4633SOL     OW25929   0.484   0.966   5.802
 4633SOL    HW125930   0.555   0.925   5.745
 4633SOL    HW225931   0.443   0.895   5.860
 4634SOL     OW25932   3.499   6.191   6.000
 4634SOL    HW125933   3.470   6.095   6.000
 4634SOL    HW225934   3.450   6.241   6.071
 4635SOL     OW25935   0.710   4.827   0.676
 4635SOL    HW125936   0.754   4.850   0.589
 4635SOL    HW225937   0.723   4.730   0.696
 4636SOL     OW25938   4.971   3.086   1.202
 4636SOL    HW125939   4.994   3.003   1.253
 4636SOL    HW225940   4.978   3.166   1.262
 4637SOL     OW25941   6.582   1.499   6.435
 4637SOL    HW125942   6.629   1.416   6.467
 4637SOL    HW225943   6.550   1.551   6.514
 4638SOL     OW25944   5.735   0.494   6.186
 4638SOL    HW125945   5.732   0.458   6.280
 4638SOL    HW225946   5.754   0.420   6.122
 4639SOL     OW25947   2.447   0.211   0.697
 4639SOL    HW125948   2.359   0.175   0.728
 4639SOL    HW225949   2.520   0.150   0.728
 4640SOL     OW25950   8.758   4.656   1.150
 4640SOL    HW125951   8.773   4.574   1.094
 4640SOL    HW225952   8.687   4.638   1.218
 4641SOL     OW25953   7.551   1.424   0.281
 4641SOL    HW125954   7.623   1.354   0.282
 4641SOL    HW225955   7.565   1.486   0.358
 4642SOL     OW25956   7.868   5.763   5.904
 4642SOL    HW125957   7.923   5.791   5.825
 4642SOL    HW225958   7.779   5.730   5.872
 4643SOL     OW25959   6.948   4.050   1.757
 4643SOL    HW125960   6.859   4.086   1.786
 4643SOL    HW225961   6.993   4.118   1.699
 4644SOL     OW25962   1.102   2.360   6.004
 4644SOL    HW125963   1.189   2.357   6.053
 4644SOL    HW225964   1.111   2.313   5.916
 4645SOL     OW25965   8.021   7.448   1.388
 4645SOL    HW125966   8.104   7.421   1.437
 4645SOL    HW225967   7.957   7.490   1.451
 4646SOL     OW25968   6.165   6.919   1.520
 4646SOL    HW125969   6.162   6.933   1.619
 4646SOL    HW225970   6.207   6.830   1.500
 4647SOL     OW25971   2.298  -0.006   6.662
 4647SOL    HW125972   2.331   0.053   6.588
 4647SOL    HW225973   2.316  -0.101   6.639
 4648SOL     OW25974   6.184   0.261   1.058
 4648SOL    HW125975   6.244   0.224   0.988
 4648SOL    HW225976   6.094   0.281   1.018
 4649SOL     OW25977   2.556   2.048   6.419
 4649SOL    HW125978   2.637   2.011   6.374
 4649SOL    HW225979   2.474   2.016   6.372
 4650SOL     OW25980   5.549   4.292   1.316
 4650SOL    HW125981   5.624   4.357   1.318
 4650SOL    HW225982   5.466   4.339   1.284
 4651SOL     OW25983   1.237   7.289   1.873
 4651SOL    HW125984   1.226   7.383   1.907
 4651SOL    HW225985   1.204   7.224   1.941
 4652SOL     OW25986   6.383   3.557   1.339
 4652SOL    HW125987   6.394   3.656   1.343
 4652SOL    HW225988   6.462   3.513   1.382
 4653SOL     OW25989   5.367   0.399   6.085
 4653SOL    HW125990   5.295   0.370   6.148
 4653SOL    HW225991   5.405   0.487   6.116
 4654SOL     OW25992   5.979   2.478   2.115
 4654SOL    HW125993   6.029   2.562   2.091
 4654SOL    HW225994   5.914   2.498   2.188
 4655SOL     OW25995   2.771   4.135   6.566
 4655SOL    HW125996   2.683   4.181   6.559
 4655SOL    HW225997   2.834   4.173   6.498
 4656SOL     OW25998   1.090   2.675   1.512
 4656SOL    HW125999   1.072   2.679   1.610
 4656SOL    HW226000   1.023   2.730   1.464
 4657SOL     OW26001   0.815   6.949   0.649
 4657SOL    HW126002   0.912   6.964   0.668
 4657SOL    HW226003   0.777   6.887   0.717
 4658SOL     OW26004   5.236   6.471   6.615
 4658SOL    HW126005   5.217   6.411   6.537
 4658SOL    HW226006   5.335   6.480   6.626
 4659SOL     OW26007   7.192   1.978   1.954
 4659SOL    HW126008   7.260   1.913   1.920
 4659SOL    HW226009   7.133   1.934   2.021
 4660SOL     OW26010   7.009   3.345   6.361
 4660SOL    HW126011   6.943   3.325   6.289
 4660SOL    HW226012   6.973   3.417   6.420
 4661SOL     OW26013   1.755   5.281   5.997
 4661SOL    HW126014   1.836   5.236   5.960
 4661SOL    HW226015   1.780   5.333   6.079
 4662SOL     OW26016   7.226   7.110   5.922
 4662SOL    HW126017   7.289   7.056   5.978
 4662SOL    HW226018   7.195   7.190   5.975
 4663SOL     OW26019   1.854  -0.030   0.475
 4663SOL    HW126020   1.913   0.050   0.488
 4663SOL    HW226021   1.780  -0.027   0.542
 4664SOL     OW26022   0.298   3.040   1.166
 4664SOL    HW126023   0.228   2.969   1.160
 4664SOL    HW226024   0.334   3.044   1.259
 4665SOL     OW26025   7.552   2.681   5.832
 4665SOL    HW126026   7.507   2.679   5.743
 4665SOL    HW226027   7.551   2.774   5.868
 4666SOL     OW26028   2.689   7.957   5.892
 4666SOL    HW126029   2.758   7.928   5.825
 4666SOL    HW226030   2.655   7.877   5.942
 4667SOL     OW26031   5.802   2.236   0.743
 4667SOL    HW126032   5.871   2.307   0.755
 4667SOL    HW226033   5.714   2.279   0.722
 4668SOL     OW26034   4.429   6.374   0.931
 4668SOL    HW126035   4.510   6.388   0.874
 4668SOL    HW226036   4.364   6.448   0.915
 4669SOL     OW26037   0.508   5.072   6.033
 4669SOL    HW126038   0.577   5.000   6.043
 4669SOL    HW226039   0.490   5.086   5.936
 4670SOL     OW26040   6.559   7.316   0.855
 4670SOL    HW126041   6.629   7.264   0.903
 4670SOL    HW226042   6.602   7.381   0.793
 4671SOL     OW26043   7.760   4.949   0.688
 4671SOL    HW126044   7.699   4.882   0.730
 4671SOL    HW226045   7.760   4.936   0.589
 4672SOL     OW26046   6.373   8.135   6.335
 4672SOL    HW126047   6.329   8.046   6.320
 4672SOL    HW226048   6.421   8.134   6.423
 4673SOL     OW26049   8.200   5.373   0.533
 4673SOL    HW126050   8.205   5.375   0.433
 4673SOL    HW226051   8.104   5.362   0.561
 4674SOL     OW26052   3.497   7.981   6.204
 4674SOL    HW126053   3.503   7.883   6.186
 4674SOL    HW226054   3.570   8.028   6.155
 4675SOL     OW26055   8.796   1.543   0.785
 4675SOL    HW126056   8.885   1.554   0.831
 4675SOL    HW226057   8.758   1.454   0.807
 4676SOL     OW26058   4.838   2.494   6.202
 4676SOL    HW126059   4.927   2.474   6.159
 4676SOL    HW226060   4.841   2.584   6.244
 4677SOL     OW26061   3.238   4.600   1.204
 4677SOL    HW126062   3.285   4.658   1.138
 4677SOL    HW226063   3.226   4.508   1.165
 4678SOL     OW26064   0.844   7.061   0.406
 4678SOL    HW126065   0.779   7.136   0.392
 4678SOL    HW226066   0.817   7.008   0.487
 4679SOL     OW26067   4.580   5.511   2.087
 4679SOL    HW126068   4.657   5.471   2.137
 4679SOL    HW226069   4.498   5.455   2.104
 4680SOL     OW26070   0.594   1.508   6.893
 4680SOL    HW126071   0.579   1.410   6.898
 4680SOL    HW226072   0.591   1.547   6.986
 4681SOL     OW26073   6.063   5.618   2.053
 4681SOL    HW126074   6.108   5.534   2.084
 4681SOL    HW226075   5.969   5.620   2.087
 4682SOL     OW26076   2.377   7.183   1.048
 4682SOL    HW126077   2.338   7.160   0.959
 4682SOL    HW226078   2.313   7.155   1.120
 4683SOL     OW26079   6.117   2.288   6.012
 4683SOL    HW126080   6.133   2.271   5.915
 4683SOL    HW226081   6.030   2.246   6.039
 4684SOL     OW26082   8.115   2.138   0.912
 4684SOL    HW126083   8.206   2.130   0.872
 4684SOL    HW226084   8.118   2.113   1.009
 4685SOL     OW26085   0.289   8.262   5.654
 4685SOL    HW126086   0.220   8.301   5.592
 4685SOL    HW226087   0.368   8.323   5.660
 4686SOL     OW26088   0.866   4.001   6.500
 4686SOL    HW126089   0.819   4.071   6.447
 4686SOL    HW226090   0.964   4.003   6.478
 4687SOL     OW26091   8.222   2.051   6.414
 4687SOL    HW126092   8.282   1.986   6.461
 4687SOL    HW226093   8.255   2.065   6.321
 4688SOL     OW26094   1.916   2.694   1.319
 4688SOL    HW126095   1.981   2.769   1.332
 4688SOL    HW226096   1.886   2.660   1.409
 4689SOL     OW26097   0.816   7.940   6.721
 4689SOL    HW126098   0.828   7.963   6.818
 4689SOL    HW226099   0.906   7.920   6.681
 4690SOL     OW26100   0.122   0.951   1.550
 4690SOL    HW126101   0.032   0.929   1.512
 4690SOL    HW226102   0.122   0.930   1.648
 4691SOL     OW26103   6.557   2.626   1.712
 4691SOL    HW126104   6.530   2.547   1.767
 4691SOL    HW226105   6.572   2.705   1.772
 4692SOL     OW26106   2.572   5.153   0.595
 4692SOL    HW126107   2.640   5.160   0.522
 4692SOL    HW226108   2.488   5.115   0.559
 4693SOL     OW26109   6.453   7.006   1.382
 4693SOL    HW126110   6.441   7.018   1.283
 4693SOL    HW226111   6.363   6.995   1.425
 4694SOL     OW26112   6.793   3.826   6.333
 4694SOL    HW126113   6.825   3.750   6.276
 4694SOL    HW226114   6.806   3.802   6.430
 4695SOL     OW26115   6.357   3.962   5.870
 4695SOL    HW126116   6.452   3.934   5.859
 4695SOL    HW226117   6.297   3.892   5.830
 4696SOL     OW26118   5.803   7.164   0.277
 4696SOL    HW126119   5.810   7.183   0.375
 4696SOL    HW226120   5.894   7.161   0.236
 4697SOL     OW26121   4.675   4.026   6.721
 4697SOL    HW126122   4.764   4.050   6.682
 4697SOL    HW226123   4.637   4.105   6.770
 4698SOL     OW26124   2.682   5.677   6.820
 4698SOL    HW126125   2.697   5.614   6.896
 4698SOL    HW226126   2.685   5.771   6.855
 4699SOL     OW26127   3.181   7.677   1.751
 4699SOL    HW126128   3.136   7.589   1.762
 4699SOL    HW226129   3.228   7.680   1.663
 4700SOL     OW26130   7.882   3.814   1.692
 4700SOL    HW126131   7.892   3.773   1.601
 4700SOL    HW226132   7.944   3.892   1.700
 4701SOL     OW26133   0.705   6.712   5.797
 4701SOL    HW126134   0.664   6.624   5.822
 4701SOL    HW226135   0.737   6.708   5.702
 4702SOL     OW26136   2.095   6.755   6.558
 4702SOL    HW126137   2.004   6.718   6.575
 4702SOL    HW226138   2.106   6.774   6.460
 4703SOL     OW26139   1.437   7.670   5.759
 4703SOL    HW126140   1.350   7.717   5.752
 4703SOL    HW226141   1.463   7.633   5.670
 4704SOL     OW26142   1.856   2.560   1.536
 4704SOL    HW126143   1.809   2.503   1.468
 4704SOL    HW226144   1.894   2.501   1.608
 4705SOL     OW26145   3.159   2.225   2.753
 4705SOL    HW126146   3.220   2.260   2.825
 4705SOL    HW226147   3.099   2.299   2.722
 4706SOL     OW26148   6.299   4.357   4.882
 4706SOL    HW126149   6.208   4.392   4.858
 4706SOL    HW226150   6.351   4.429   4.930
 4707SOL     OW26151   0.745   3.030   0.957
 4707SOL    HW126152   0.676   3.099   0.978
 4707SOL    HW226153   0.711   2.970   0.885
 4708SOL     OW26154   2.615   2.055   0.422
 4708SOL    HW126155   2.641   2.107   0.503
 4708SOL    HW226156   2.675   1.976   0.412
 4709SOL     OW26157   1.475   2.625   4.787
 4709SOL    HW126158   1.534   2.547   4.771
 4709SOL    HW226159   1.528   2.700   4.826
 4710SOL     OW26160   3.816   6.841   6.600
 4710SOL    HW126161   3.804   6.779   6.678
 4710SOL    HW226162   3.869   6.920   6.629
 4711SOL     OW26163   8.096   7.145   5.614
 4711SOL    HW126164   8.056   7.226   5.570
 4711SOL    HW226165   8.136   7.086   5.545
 4712SOL     OW26166   4.671   6.629   4.899
 4712SOL    HW126167   4.638   6.716   4.863
 4712SOL    HW226168   4.605   6.557   4.876
 4713SOL     OW26169   7.885   7.812   2.233
 4713SOL    HW126170   7.952   7.754   2.278
 4713SOL    HW226171   7.795   7.769   2.236
 4714SOL     OW26172   8.238   6.752   0.768
 4714SOL    HW126173   8.265   6.805   0.687
 4714SOL    HW226174   8.190   6.669   0.739
 4715SOL     OW26175   4.221   3.726   0.756
 4715SOL    HW126176   4.235   3.668   0.836
 4715SOL    HW226177   4.257   3.681   0.675
 4716SOL     OW26178   8.393   3.260   5.410
 4716SOL    HW126179   8.401   3.336   5.345
 4716SOL    HW226180   8.395   3.173   5.360
 4717SOL     OW26181   3.739   3.754   5.991
 4717SOL    HW126182   3.749   3.776   5.894
 4717SOL    HW226183   3.765   3.659   6.006
 4718SOL     OW26184   2.227   3.862   6.957
 4718SOL    HW126185   2.201   3.765   6.949
 4718SOL    HW226186   2.198   3.897   7.046
 4719SOL     OW26187   7.444   4.636   5.793
 4719SOL    HW126188   7.433   4.538   5.805
 4719SOL    HW226189   7.396   4.665   5.710
 4720SOL     OW26190   1.873   1.130   0.935
 4720SOL    HW126191   1.883   1.032   0.914
 4720SOL    HW226192   1.825   1.141   1.022
 4721SOL     OW26193   2.433   4.628   1.614
 4721SOL    HW126194   2.476   4.585   1.534
 4721SOL    HW226195   2.341   4.660   1.590
 4722SOL     OW26196   2.784   6.865   2.224
 4722SOL    HW126197   2.749   6.957   2.242
 4722SOL    HW226198   2.866   6.849   2.279
 4723SOL     OW26199   0.686   5.082   6.313
 4723SOL    HW126200   0.638   4.995   6.326
 4723SOL    HW226201   0.656   5.124   6.228
 4724SOL     OW26202   3.833   1.523   6.754
 4724SOL    HW126203   3.902   1.580   6.798
 4724SOL    HW226204   3.867   1.491   6.666
 4725SOL     OW26205   5.536   2.930   6.486
 4725SOL    HW126206   5.540   3.008   6.548
 4725SOL    HW226207   5.468   2.947   6.415
 4726SOL     OW26208   6.620   1.782   0.750
 4726SOL    HW126209   6.693   1.753   0.812
 4726SOL    HW226210   6.548   1.713   0.747
 4727SOL     OW26211   0.415   2.029   6.988
 4727SOL    HW126212   0.338   2.046   7.050
 4727SOL    HW226213   0.433   2.112   6.935
 4728SOL     OW26214   9.363   7.217   1.224
 4728SOL    HW126215   9.300   7.184   1.294
 4728SOL    HW226216   9.453   7.232   1.264
 4729SOL     OW26217   5.919   0.312   5.983
 4729SOL    HW126218   5.939   0.242   5.916
 4729SOL    HW226219   5.933   0.402   5.943
 4730SOL     OW26220   1.327   1.316   0.958
 4730SOL    HW126221   1.228   1.304   0.954
 4730SOL    HW226222   1.367   1.248   1.019
 4731SOL     OW26223   6.493   1.797   6.239
 4731SOL    HW126224   6.525   1.808   6.145
 4731SOL    HW226225   6.520   1.707   6.273
 4732SOL     OW26226   0.693   2.819   0.797
 4732SOL    HW126227   0.606   2.789   0.836
 4732SOL    HW226228   0.690   2.811   0.697
 4733SOL     OW26229   6.957   2.869   6.330
 4733SOL    HW126230   7.028   2.928   6.367
 4733SOL    HW226231   6.873   2.880   6.383
 4734SOL     OW26232   2.148   3.969   0.460
 4734SOL    HW126233   2.207   3.902   0.505
 4734SOL    HW226234   2.085   4.009   0.527
 4735SOL     OW26235   9.289   8.131   6.440
 4735SOL    HW126236   9.228   8.208   6.460
 4735SOL    HW226237   9.360   8.161   6.376
 4736SOL     OW26238   0.751   7.073   0.990
 4736SOL    HW126239   0.800   7.042   1.072
 4736SOL    HW226240   0.656   7.045   0.995
 4737SOL     OW26241   2.461   1.953   2.128
 4737SOL    HW126242   2.425   1.934   2.220
 4737SOL    HW226243   2.443   2.049   2.105
 4738SOL     OW26244   1.418   0.453   6.548
 4738SOL    HW126245   1.489   0.389   6.518
 4738SOL    HW226246   1.328   0.412   6.531
 4739SOL     OW26247   2.503   4.930   1.530
 4739SOL    HW126248   2.459   5.005   1.579
 4739SOL    HW226249   2.512   4.851   1.590
 4740SOL     OW26250   2.988   4.583   6.701
 4740SOL    HW126251   2.901   4.591   6.653
 4740SOL    HW226252   3.053   4.649   6.663
 4741SOL     OW26253   5.584   0.481   0.975
 4741SOL    HW126254   5.637   0.462   1.058
 4741SOL    HW226255   5.551   0.575   0.977
 4742SOL     OW26256   1.680   0.759   4.971
 4742SOL    HW126257   1.635   0.671   4.965
 4742SOL    HW226258   1.654   0.815   4.892
 4743SOL     OW26259   8.540   5.453   5.806
 4743SOL    HW126260   8.632   5.491   5.816
 4743SOL    HW226261   8.539   5.388   5.730
 4744SOL     OW26262   0.680   0.282   2.019
 4744SOL    HW126263   0.760   0.332   2.053
 4744SOL    HW226264   0.597   0.317   2.063
 4745SOL     OW26265   1.710   6.454   0.378
 4745SOL    HW126266   1.646   6.452   0.455
 4745SOL    HW226267   1.661   6.480   0.295
 4746SOL     OW26268   9.430   0.130   6.980
 4746SOL    HW126269   9.512   0.097   6.935
 4746SOL    HW226270   9.353   0.125   6.916
 4747SOL     OW26271   1.297   3.551   0.558
 4747SOL    HW126272   1.325   3.646   0.574
 4747SOL    HW226273   1.369   3.502   0.509
 4748SOL     OW26274   4.969   0.488   1.938
 4748SOL    HW126275   5.003   0.399   1.907
 4748SOL    HW226276   5.045   0.548   1.960
 4749SOL     OW26277   6.684   1.310   2.252
 4749SOL    HW126278   6.697   1.322   2.350
 4749SOL    HW226279   6.682   1.213   2.230
 4750SOL     OW26280   3.439   0.851   0.786
 4750SOL    HW126281   3.528   0.827   0.745
 4750SOL    HW226282   3.439   0.948   0.809
 4751SOL     OW26283   4.830   7.857   1.602
 4751SOL    HW126284   4.825   7.866   1.502
 4751SOL    HW226285   4.907   7.798   1.627
 4752SOL     OW26286   2.776   1.762   1.733
 4752SOL    HW126287   2.868   1.785   1.764
 4752SOL    HW226288   2.762   1.664   1.739
 4753SOL     OW26289   6.547   3.100   6.904
 4753SOL    HW126290   6.463   3.149   6.927
 4753SOL    HW226291   6.550   3.082   6.806
 4754SOL     OW26292   9.214   1.682   0.823
 4754SOL    HW126293   9.201   1.727   0.735
 4754SOL    HW226294   9.173   1.737   0.896
 4755SOL     OW26295   3.372   3.498   1.564
 4755SOL    HW126296   3.403   3.506   1.659
 4755SOL    HW226297   3.426   3.428   1.517
 4756SOL     OW26298   1.820   6.102   6.665
 4756SOL    HW126299   1.882   6.175   6.634
 4756SOL    HW226300   1.834   6.021   6.608
 4757SOL     OW26301   2.372   4.215   0.798
 4757SOL    HW126302   2.462   4.244   0.764
 4757SOL    HW226303   2.323   4.294   0.832
 4758SOL     OW26304   4.108   5.539   5.947
 4758SOL    HW126305   4.158   5.488   5.877
 4758SOL    HW226306   4.021   5.571   5.910
 4759SOL     OW26307   5.207   1.221   6.877
 4759SOL    HW126308   5.211   1.125   6.903
 4759SOL    HW226309   5.298   1.261   6.883
 4760SOL     OW26310   2.536   3.840   6.178
 4760SOL    HW126311   2.463   3.811   6.116
 4760SOL    HW226312   2.497   3.876   6.263
 4761SOL     OW26313   2.162   4.598   5.408
 4761SOL    HW126314   2.142   4.531   5.337
 4761SOL    HW226315   2.252   4.577   5.448
 4762SOL     OW26316   6.254   4.153   1.376
 4762SOL    HW126317   6.314   4.230   1.354
 4762SOL    HW226318   6.213   4.168   1.466
 4763SOL     OW26319   8.719   4.230   1.133
 4763SOL    HW126320   8.641   4.172   1.156
 4763SOL    HW226321   8.804   4.182   1.156
 4764SOL     OW26322   7.022   0.389   5.841
 4764SOL    HW126323   7.036   0.487   5.856
 4764SOL    HW226324   6.952   0.376   5.770
 4765SOL     OW26325   5.462   0.358   5.643
 4765SOL    HW126326   5.391   0.368   5.713
 4765SOL    HW226327   5.485   0.448   5.606
 4766SOL     OW26328   9.155   7.048   6.120
 4766SOL    HW126329   9.182   7.091   6.034
 4766SOL    HW226330   9.056   7.052   6.129
 4767SOL     OW26331   3.432   6.336   0.429
 4767SOL    HW126332   3.475   6.417   0.469
 4767SOL    HW226333   3.346   6.317   0.476
 4768SOL     OW26334   2.687   6.428   1.393
 4768SOL    HW126335   2.687   6.368   1.313
 4768SOL    HW226336   2.728   6.380   1.470
 4769SOL     OW26337   6.241   0.365   6.366
 4769SOL    HW126338   6.219   0.290   6.303
 4769SOL    HW226339   6.335   0.354   6.399
 4770SOL     OW26340   4.932   2.640   6.823
 4770SOL    HW126341   4.866   2.592   6.880
 4770SOL    HW226342   4.988   2.701   6.880
 4771SOL     OW26343   6.874   6.160   0.585
 4771SOL    HW126344   6.971   6.163   0.607
 4771SOL    HW226345   6.848   6.244   0.538
 4772SOL     OW26346   3.815   6.870   1.421
 4772SOL    HW126347   3.800   6.773   1.439
 4772SOL    HW226348   3.793   6.923   1.503
 4773SOL     OW26349   7.303   7.610   6.105
 4773SOL    HW126350   7.383   7.553   6.087
 4773SOL    HW226351   7.236   7.597   6.031
 4774SOL     OW26352   9.460   7.538   5.407
 4774SOL    HW126353   9.458   7.523   5.505
 4774SOL    HW226354   9.443   7.452   5.359
 4775SOL     OW26355   7.940   3.244   6.661
 4775SOL    HW126356   7.861   3.280   6.712
 4775SOL    HW226357   8.021   3.300   6.681
 4776SOL     OW26358   2.226   7.776   1.446
 4776SOL    HW126359   2.137   7.733   1.458
 4776SOL    HW226360   2.274   7.778   1.534
 4777SOL     OW26361   6.151   1.609   6.435
 4777SOL    HW126362   6.137   1.568   6.344
 4777SOL    HW226363   6.148   1.537   6.504
 4778SOL     OW26364   2.173   0.181   0.839
 4778SOL    HW126365   2.127   0.131   0.766
 4778SOL    HW226366   2.167   0.129   0.925
 4779SOL     OW26367   6.070   1.721   1.606
 4779SOL    HW126368   6.097   1.811   1.638
 4779SOL    HW226369   6.026   1.671   1.681
 4780SOL     OW26370   9.280   1.217   1.306
 4780SOL    HW126371   9.249   1.130   1.346
 4780SOL    HW226372   9.337   1.266   1.372
 4781SOL     OW26373   7.897   7.284   6.525
 4781SOL    HW126374   7.952   7.201   6.520
 4781SOL    HW226375   7.923   7.337   6.606
 4782SOL     OW26376   0.684   7.388   0.667
 4782SOL    HW126377   0.606   7.357   0.722
 4782SOL    HW226378   0.677   7.486   0.651
 4783SOL     OW26379   6.691   7.740   1.189
 4783SOL    HW126380   6.761   7.668   1.197
 4783SOL    HW226381   6.683   7.768   1.093
 4784SOL     OW26382   5.028   4.969   0.988
 4784SOL    HW126383   4.951   4.988   0.927
 4784SOL    HW226384   5.003   4.991   1.082
 4785SOL     OW26385   8.069   1.999   1.476
 4785SOL    HW126386   8.075   2.096   1.497
 4785SOL    HW226387   8.038   1.986   1.382
 4786SOL     OW26388   9.204   8.276   1.542
 4786SOL    HW126389   9.130   8.326   1.497
 4786SOL    HW226390   9.276   8.340   1.569
 4787SOL     OW26391   2.324   2.623   0.813
 4787SOL    HW126392   2.320   2.714   0.853
 4787SOL    HW226393   2.400   2.618   0.748
 4788SOL     OW26394   9.160   1.815   0.578
 4788SOL    HW126395   9.076   1.866   0.559
 4788SOL    HW226396   9.237   1.878   0.579
 4789SOL     OW26397   4.947   0.808   0.584
 4789SOL    HW126398   4.907   0.716   0.586
 4789SOL    HW226399   4.876   0.875   0.605
 4790SOL     OW26400   7.204   7.231   6.504
 4790SOL    HW126401   7.146   7.292   6.448
 4790SOL    HW226402   7.266   7.287   6.559
 4791SOL     OW26403   9.493   6.901   5.399
 4791SOL    HW126404   9.502   6.981   5.340
 4791SOL    HW226405   9.499   6.817   5.344
 4792SOL     OW26406   7.714   0.431   0.754
 4792SOL    HW126407   7.668   0.493   0.818
 4792SOL    HW226408   7.812   0.429   0.775
 4793SOL     OW26409   4.383   4.127   0.744
 4793SOL    HW126410   4.304   4.188   0.747
 4793SOL    HW226411   4.365   4.050   0.683
 4794SOL     OW26412   2.820   5.756   0.556
 4794SOL    HW126413   2.744   5.694   0.571
 4794SOL    HW226414   2.872   5.766   0.641
 4795SOL     OW26415   5.846   6.388   0.399
 4795SOL    HW126416   5.941   6.371   0.423
 4795SOL    HW226417   5.797   6.422   0.480
 4796SOL     OW26418   2.190   2.882   0.413
 4796SOL    HW126419   2.109   2.852   0.463
 4796SOL    HW226420   2.180   2.857   0.317
 4797SOL     OW26421   3.154   6.761   1.208
 4797SOL    HW126422   3.250   6.778   1.186
 4797SOL    HW226423   3.117   6.839   1.259
 4798SOL     OW26424   3.665   0.947   6.405
 4798SOL    HW126425   3.577   0.993   6.417
 4798SOL    HW226426   3.718   0.955   6.490
 4799SOL     OW26427   0.935   3.709   6.346
 4799SOL    HW126428   1.000   3.705   6.422
 4799SOL    HW226429   0.878   3.790   6.354
 4800SOL     OW26430   7.994   8.318   6.454
 4800SOL    HW126431   7.949   8.309   6.543
 4800SOL    HW226432   7.925   8.330   6.382
 4801SOL     OW26433   1.061   4.077   0.400
 4801SOL    HW126434   1.147   4.105   0.356
 4801SOL    HW226435   1.076   3.993   0.452
 4802SOL     OW26436   8.198   5.113   5.388
 4802SOL    HW126437   8.143   5.089   5.307
 4802SOL    HW226438   8.143   5.102   5.470
 4803SOL     OW26439   1.771   1.119   6.831
 4803SOL    HW126440   1.744   1.176   6.909
 4803SOL    HW226441   1.857   1.154   6.793
 4804SOL     OW26442   2.174   0.433   6.753
 4804SOL    HW126443   2.100   0.366   6.749
 4804SOL    HW226444   2.142   0.520   6.717
 4805SOL     OW26445   5.144   7.148   6.564
 4805SOL    HW126446   5.204   7.114   6.492
 4805SOL    HW226447   5.097   7.071   6.607
 4806SOL     OW26448   7.200   5.308   5.835
 4806SOL    HW126449   7.282   5.346   5.792
 4806SOL    HW226450   7.203   5.208   5.831
 4807SOL     OW26451   0.136   0.701   6.460
 4807SOL    HW126452   0.037   0.701   6.478
 4807SOL    HW226453   0.181   0.642   6.528
 4808SOL     OW26454   3.203   1.468   0.493
 4808SOL    HW126455   3.138   1.466   0.418
 4808SOL    HW226456   3.290   1.430   0.462
 4809SOL     OW26457   2.181   5.423   5.706
 4809SOL    HW126458   2.151   5.517   5.720
 4809SOL    HW226459   2.253   5.400   5.772
 4810SOL     OW26460   4.012   4.394   2.022
 4810SOL    HW126461   3.999   4.490   1.999
 4810SOL    HW226462   3.925   4.346   2.014
 4811SOL     OW26463   5.605   3.479   1.049
 4811SOL    HW126464   5.639   3.456   1.140
 4811SOL    HW226465   5.547   3.560   1.055
 4812SOL     OW26466   1.717   0.846   0.901
 4812SOL    HW126467   1.647   0.867   0.969
 4812SOL    HW226468   1.673   0.809   0.819
 4813SOL     OW26469   3.713   1.291   6.347
 4813SOL    HW126470   3.626   1.336   6.363
 4813SOL    HW226471   3.697   1.197   6.316
 4814SOL     OW26472   2.132   6.740   6.278
 4814SOL    HW126473   2.095   6.818   6.228
 4814SOL    HW226474   2.197   6.691   6.221
 4815SOL     OW26475   5.897   0.857   1.262
 4815SOL    HW126476   5.866   0.763   1.282
 4815SOL    HW226477   5.996   0.859   1.257
 4816SOL     OW26478   7.135   1.924   5.680
 4816SOL    HW126479   7.131   2.021   5.703
 4816SOL    HW226480   7.101   1.910   5.587
 4817SOL     OW26481   4.719   8.249   0.505
 4817SOL    HW126482   4.634   8.287   0.542
 4817SOL    HW226483   4.732   8.282   0.411
 4818SOL     OW26484   5.030   7.750   5.967
 4818SOL    HW126485   4.972   7.700   6.032
 4818SOL    HW226486   5.126   7.728   5.984
 4819SOL     OW26487   2.245   1.702   6.302
 4819SOL    HW126488   2.149   1.714   6.325
 4819SOL    HW226489   2.254   1.677   6.206
 4820SOL     OW26490   5.096   6.699   6.326
 4820SOL    HW126491   5.031   6.637   6.369
 4820SOL    HW226492   5.080   6.792   6.359
 4821SOL     OW26493   9.535   7.905   5.873
 4821SOL    HW126494   9.579   7.995   5.876
 4821SOL    HW226495   9.501   7.888   5.781
 4822SOL     OW26496   1.383   5.891   6.972
 4822SOL    HW126497   1.446   5.966   6.991
 4822SOL    HW226498   1.322   5.916   6.897
 4823SOL     OW26499   1.077   4.063   5.930
 4823SOL    HW126500   1.052   4.117   6.010
 4823SOL    HW226501   1.162   4.097   5.892
 4824SOL     OW26502   8.762   7.383   4.365
 4824SOL    HW126503   8.854   7.396   4.403
 4824SOL    HW226504   8.769   7.334   4.278
 4825SOL     OW26505   3.548   6.020   6.859
 4825SOL    HW126506   3.480   6.054   6.794
 4825SOL    HW226507   3.526   6.053   6.950
 4826SOL     OW26508   4.019   7.782   1.287
 4826SOL    HW126509   4.076   7.760   1.208
 4826SOL    HW226510   4.077   7.802   1.366
 4827SOL     OW26511   7.214   1.567   6.851
 4827SOL    HW126512   7.224   1.530   6.943
 4827SOL    HW226513   7.242   1.498   6.784
 4828SOL     OW26514   8.484   6.348   6.318
 4828SOL    HW126515   8.521   6.396   6.239
 4828SOL    HW226516   8.513   6.393   6.402
 4829SOL     OW26517   0.523   6.222   5.683
 4829SOL    HW126518   0.595   6.260   5.741
 4829SOL    HW226519   0.457   6.174   5.740
 4830SOL     OW26520   5.850   0.790   6.995
 4830SOL    HW126521   5.934   0.736   6.990
 4830SOL    HW226522   5.854   0.865   6.929
 4831SOL     OW26523   0.259   0.366   6.306
 4831SOL    HW126524   0.268   0.465   6.293
 4831SOL    HW226525   0.349   0.323   6.296
 4832SOL     OW26526   8.508   1.085   1.118
 4832SOL    HW126527   8.560   1.107   1.200
 4832SOL    HW226528   8.450   1.163   1.093
 4833SOL     OW26529   0.424   2.205   1.078
 4833SOL    HW126530   0.484   2.127   1.095
 4833SOL    HW226531   0.476   2.290   1.088
 4834SOL     OW26532   4.168   1.313   6.011
 4834SOL    HW126533   4.085   1.339   6.059
 4834SOL    HW226534   4.163   1.342   5.916
 4835SOL     OW26535   1.403   6.371   5.594
 4835SOL    HW126536   1.449   6.320   5.667
 4835SOL    HW226537   1.460   6.368   5.512
 4836SOL     OW26538   3.631   4.953   6.597
 4836SOL    HW126539   3.650   4.907   6.684
 4836SOL    HW226540   3.576   5.035   6.614
 4837SOL     OW26541   1.110   6.876   6.826
 4837SOL    HW126542   1.157   6.818   6.760
 4837SOL    HW226543   1.079   6.960   6.780
 4838SOL     OW26544   3.045   8.064   6.363
 4838SOL    HW126545   3.052   8.164   6.372
 4838SOL    HW226546   2.976   8.030   6.427
 4839SOL     OW26547   6.586   1.243   1.495
 4839SOL    HW126548   6.653   1.189   1.444
 4839SOL    HW226549   6.519   1.182   1.537
 4840SOL     OW26550   5.595   7.205   5.860
 4840SOL    HW126551   5.550   7.116   5.854
 4840SOL    HW226552   5.537   7.275   5.819
 4841SOL     OW26553   9.455   6.671   6.162
 4841SOL    HW126554   9.398   6.604   6.209
 4841SOL    HW226555   9.428   6.763   6.190
 4842SOL     OW26556   5.769   2.976   1.081
 4842SOL    HW126557   5.868   2.974   1.091
 4842SOL    HW226558   5.740   2.910   1.012
 4843SOL     OW26559   7.613   7.443   0.935
 4843SOL    HW126560   7.676   7.386   0.987
 4843SOL    HW226561   7.520   7.408   0.945
 4844SOL     OW26562   2.349   1.334   1.355
 4844SOL    HW126563   2.407   1.413   1.373
 4844SOL    HW226564   2.264   1.342   1.406
 4845SOL     OW26565   4.895   6.521   6.302
 4845SOL    HW126566   4.843   6.529   6.387
 4845SOL    HW226567   4.837   6.482   6.231
 4846SOL     OW26568   5.823   8.129   1.145
 4846SOL    HW126569   5.915   8.127   1.106
 4846SOL    HW226570   5.805   8.218   1.185
 4847SOL     OW26571   2.568   5.948   1.375
 4847SOL    HW126572   2.626   6.025   1.402
 4847SOL    HW226573   2.577   5.874   1.442
 4848SOL     OW26574   6.201   2.131   6.408
 4848SOL    HW126575   6.231   2.073   6.332
 4848SOL    HW226576   6.263   2.209   6.417
 4849SOL     OW26577   2.102   6.464   0.814
 4849SOL    HW126578   2.133   6.540   0.757
 4849SOL    HW226579   2.035   6.497   0.881
 4850SOL     OW26580   3.500   0.079   5.616
 4850SOL    HW126581   3.452   0.163   5.642
 4850SOL    HW226582   3.576   0.062   5.678
 4851SOL     OW26583   1.027   0.125   0.574
 4851SOL    HW126584   1.072   0.202   0.620
 4851SOL    HW226585   1.092   0.081   0.512
 4852SOL     OW26586   4.681   2.910   2.112
 4852SOL    HW126587   4.635   2.911   2.201
 4852SOL    HW226588   4.677   3.002   2.071
 4853SOL     OW26589   8.187  -0.037   0.918
 4853SOL    HW126590   8.233  -0.125   0.903
 4853SOL    HW226591   8.194  -0.012   1.014
 4854SOL     OW26592   5.657   7.908   6.355
 4854SOL    HW126593   5.583   7.912   6.288
 4854SOL    HW226594   5.685   7.813   6.368
 4855SOL     OW26595   0.774   1.569   0.743
 4855SOL    HW126596   0.683   1.556   0.704
 4855SOL    HW226597   0.769   1.631   0.821
 4856SOL     OW26598   1.021   7.660   5.149
 4856SOL    HW126599   0.959   7.729   5.187
 4856SOL    HW226600   1.105   7.704   5.119
 4857SOL     OW26601   7.981   0.883   6.690
 4857SOL    HW126602   7.893   0.927   6.673
 4857SOL    HW226603   7.977   0.787   6.660
 4858SOL     OW26604   0.508   4.397   6.172
 4858SOL    HW126605   0.418   4.439   6.186
 4858SOL    HW226606   0.551   4.381   6.260
 4859SOL     OW26607   3.668   7.054   0.593
 4859SOL    HW126608   3.764   7.061   0.620
 4859SOL    HW226609   3.615   7.125   0.640
 4860SOL     OW26610   6.099   0.745   1.887
 4860SOL    HW126611   6.074   0.841   1.877
 4860SOL    HW226612   6.136   0.730   1.979
 4861SOL     OW26613   5.786   6.025   0.411
 4861SOL    HW126614   5.801   5.929   0.387
 4861SOL    HW226615   5.851   6.082   0.362
 4862SOL     OW26616   4.663   7.975   6.967
 4862SOL    HW126617   4.736   8.037   6.940
 4862SOL    HW226618   4.669   7.890   6.914
 4863SOL     OW26619   8.036   2.596   1.286
 4863SOL    HW126620   7.978   2.540   1.345
 4863SOL    HW226621   8.101   2.537   1.239
 4864SOL     OW26622   4.703   8.056   6.478
 4864SOL    HW126623   4.779   8.060   6.543
 4864SOL    HW226624   4.685   7.961   6.454
 4865SOL     OW26625   3.126   3.153   1.115
 4865SOL    HW126626   3.178   3.206   1.047
 4865SOL    HW226627   3.165   3.170   1.206
 4866SOL     OW26628   6.376   1.933   1.732
 4866SOL    HW126629   6.449   1.964   1.671
 4866SOL    HW226630   6.403   1.949   1.827
 4867SOL     OW26631   6.953   4.575   0.508
 4867SOL    HW126632   6.867   4.547   0.463
 4867SOL    HW226633   6.979   4.507   0.575
 4868SOL     OW26634   8.817   1.151   6.974
 4868SOL    HW126635   8.797   1.243   7.007
 4868SOL    HW226636   8.756   1.128   6.898
 4869SOL     OW26637   3.585   2.134   5.627
 4869SOL    HW126638   3.556   2.194   5.553
 4869SOL    HW226639   3.561   2.039   5.605
 4870SOL     OW26640   8.294   3.909   6.964
 4870SOL    HW126641   8.363   3.869   7.025
 4870SOL    HW226642   8.337   3.980   6.908
 4871SOL     OW26643   5.659   1.715   0.548
 4871SOL    HW126644   5.667   1.619   0.577
 4871SOL    HW226645   5.580   1.757   0.593
 4872SOL     OW26646   3.256   6.874   6.010
 4872SOL    HW126647   3.209   6.803   6.062
 4872SOL    HW226648   3.204   6.893   5.926
 4873SOL     OW26649   6.720   8.241   5.879
 4873SOL    HW126650   6.628   8.206   5.896
 4873SOL    HW226651   6.781   8.212   5.953
 4874SOL     OW26652   7.982   2.302   1.173
 4874SOL    HW126653   8.013   2.344   1.088
 4874SOL    HW226654   7.884   2.284   1.168
 4875SOL     OW26655   6.596   5.486   6.180
 4875SOL    HW126656   6.512   5.540   6.181
 4875SOL    HW226657   6.609   5.446   6.089
 4876SOL     OW26658   4.392   3.937   0.532
 4876SOL    HW126659   4.435   3.943   0.442
 4876SOL    HW226660   4.415   3.849   0.574
 4877SOL     OW26661   2.180   6.429   0.504
 4877SOL    HW126662   2.181   6.371   0.585
 4877SOL    HW226663   2.265   6.482   0.499
 4878SOL     OW26664   2.192   0.024   6.901
 4878SOL    HW126665   2.222   0.019   6.806
 4878SOL    HW226666   2.205   0.117   6.936
 4879SOL     OW26667   7.584   7.741   6.772
 4879SOL    HW126668   7.580   7.676   6.696
 4879SOL    HW226669   7.492   7.753   6.810
 4880SOL     OW26670   1.542   4.129   6.580
 4880SOL    HW126671   1.554   4.135   6.679
 4880SOL    HW226672   1.596   4.053   6.545
 4881SOL     OW26673   6.504   1.271   1.025
 4881SOL    HW126674   6.455   1.292   1.109
 4881SOL    HW226675   6.585   1.217   1.046
 4882SOL     OW26676   7.441   5.927   1.833
 4882SOL    HW126677   7.419   5.856   1.766
 4882SOL    HW226678   7.539   5.947   1.828
 4883SOL     OW26679   1.742   6.906   6.319
 4883SOL    HW126680   1.650   6.900   6.281
 4883SOL    HW226681   1.790   6.986   6.282
 4884SOL     OW26682   1.374   5.144   6.639
 4884SOL    HW126683   1.362   5.156   6.541
 4884SOL    HW226684   1.420   5.224   6.677
 4885SOL     OW26685   0.565  -0.014   6.260
 4885SOL    HW126686   0.552   0.055   6.331
 4885SOL    HW226687   0.653  -0.059   6.274
 4886SOL     OW26688   6.810   4.995   0.750
 4886SOL    HW126689   6.712   4.976   0.762
 4886SOL    HW226690   6.863   4.917   0.781
 4887SOL     OW26691   8.951   2.088   0.409
 4887SOL    HW126692   8.885   2.136   0.350
 4887SOL    HW226693   9.042   2.128   0.397
 4888SOL     OW26694   1.668   1.443   6.126
 4888SOL    HW126695   1.707   1.399   6.207
 4888SOL    HW226696   1.633   1.372   6.064
 4889SOL     OW26697   0.402   2.181   0.669
 4889SOL    HW126698   0.446   2.255   0.721
 4889SOL    HW226699   0.467   2.147   0.600
 4890SOL     OW26700   6.371   1.168   6.397
 4890SOL    HW126701   6.283   1.162   6.351
 4890SOL    HW226702   6.363   1.225   6.479
 4891SOL     OW26703   7.395   4.130   1.357
 4891SOL    HW126704   7.301   4.104   1.380
 4891SOL    HW226705   7.443   4.156   1.441
 4892SOL     OW26706   2.882   5.944   0.362
 4892SOL    HW126707   2.841   5.893   0.438
 4892SOL    HW226708   2.972   5.978   0.391
 4893SOL     OW26709   5.503   8.064   6.710
 4893SOL    HW126710   5.582   8.061   6.649
 4893SOL    HW226711   5.516   8.135   6.779
 4894SOL     OW26712   0.289   6.347   5.303
 4894SOL    HW126713   0.267   6.393   5.389
 4894SOL    HW226714   0.256   6.402   5.227
 4895SOL     OW26715   5.298   4.409   6.372
 4895SOL    HW126716   5.334   4.316   6.358
 4895SOL    HW226717   5.369   4.475   6.349
 4896SOL     OW26718   4.974   6.662   5.444
 4896SOL    HW126719   5.005   6.574   5.478
 4896SOL    HW226720   4.975   6.662   5.344
 4897SOL     OW26721   0.397   4.479   5.347
 4897SOL    HW126722   0.321   4.435   5.299
 4897SOL    HW226723   0.455   4.409   5.388
 4898SOL     OW26724   0.961   5.711   5.054
 4898SOL    HW126725   0.894   5.644   5.087
 4898SOL    HW226726   0.932   5.746   4.965
 4899SOL     OW26727   7.355   5.076   0.313
 4899SOL    HW126728   7.403   4.990   0.327
 4899SOL    HW226729   7.409   5.134   0.251
 4900SOL     OW26730   1.360   1.008   6.286
 4900SOL    HW126731   1.405   0.960   6.362
 4900SOL    HW226732   1.421   1.011   6.207
 4901SOL     OW26733   9.000   2.289   6.320
 4901SOL    HW126734   9.046   2.301   6.232
 4901SOL    HW226735   8.904   2.315   6.310
 4902SOL     OW26736   5.620   0.921   6.696
 4902SOL    HW126737   5.671   0.916   6.610
 4902SOL    HW226738   5.682   0.943   6.771
 4903SOL     OW26739   4.500   5.647   0.949
 4903SOL    HW126740   4.482   5.554   0.980
 4903SOL    HW226741   4.599   5.665   0.954
 4904SOL     OW26742   3.440   6.514   6.014
 4904SOL    HW126743   3.358   6.468   5.978
 4904SOL    HW226744   3.471   6.467   6.097
 4905SOL     OW26745   6.823   0.613   0.738
 4905SOL    HW126746   6.727   0.606   0.765
 4905SOL    HW226747   6.841   0.549   0.664
 4906SOL     OW26748   5.786   3.424   6.960
 4906SOL    HW126749   5.886   3.426   6.966
 4906SOL    HW226750   5.759   3.438   6.864
 4907SOL     OW26751   7.315   7.876   1.476
 4907SOL    HW126752   7.256   7.829   1.542
 4907SOL    HW226753   7.403   7.897   1.518
 4908SOL     OW26754   7.338   2.193   1.241
 4908SOL    HW126755   7.363   2.285   1.210
 4908SOL    HW226756   7.398   2.126   1.198
 4909SOL     OW26757   6.871   8.039   0.590
 4909SOL    HW126758   6.900   8.087   0.672
 4909SOL    HW226759   6.951   8.012   0.536
 4910SOL     OW26760   1.508   1.811   1.009
 4910SOL    HW126761   1.580   1.844   1.070
 4910SOL    HW226762   1.472   1.724   1.044
 4911SOL     OW26763   0.615   6.010   5.551
 4911SOL    HW126764   0.588   6.106   5.546
 4911SOL    HW226765   0.633   5.975   5.459
 4912SOL     OW26766   4.979   1.869   6.928
 4912SOL    HW126767   4.895   1.839   6.974
 4912SOL    HW226768   5.004   1.801   6.859
 4913SOL     OW26769   6.106   5.804   5.671
 4913SOL    HW126770   6.143   5.776   5.760
 4913SOL    HW226771   6.047   5.884   5.683
 4914SOL     OW26772   3.480   2.855   6.369
 4914SOL    HW126773   3.443   2.849   6.461
 4914SOL    HW226774   3.461   2.770   6.320
 4915SOL     OW26775   1.399   2.370   1.241
 4915SOL    HW126776   1.349   2.417   1.168
 4915SOL    HW226777   1.353   2.386   1.328
 4916SOL     OW26778   2.014   2.352   6.926
 4916SOL    HW126779   2.090   2.350   6.861
 4916SOL    HW226780   1.976   2.260   6.936
 4917SOL     OW26781   1.933   4.175   1.214
 4917SOL    HW126782   1.834   4.173   1.201
 4917SOL    HW226783   1.978   4.134   1.135
 4918SOL     OW26784   7.443   6.498   6.873
 4918SOL    HW126785   7.377   6.448   6.817
 4918SOL    HW226786   7.395   6.565   6.929
 4919SOL     OW26787   7.781   6.121   1.026
 4919SOL    HW126788   7.782   6.027   1.061
 4919SOL    HW226789   7.793   6.185   1.101
 4920SOL     OW26790   6.572   2.549   6.866
 4920SOL    HW126791   6.487   2.519   6.823
 4920SOL    HW226792   6.574   2.648   6.872
 4921SOL     OW26793   4.582   7.929   2.057
 4921SOL    HW126794   4.545   7.941   2.149
 4921SOL    HW226795   4.646   7.852   2.057
 4922SOL     OW26796   2.821   3.288   6.118
 4922SOL    HW126797   2.778   3.197   6.119
 4922SOL    HW226798   2.777   3.345   6.187
 4923SOL     OW26799   0.574   0.570   5.942
 4923SOL    HW126800   0.493   0.535   5.989
 4923SOL    HW226801   0.558   0.569   5.843
 4924SOL     OW26802   4.926   0.484   1.479
 4924SOL    HW126803   4.977   0.398   1.470
 4924SOL    HW226804   4.828   0.464   1.481
 4925SOL     OW26805   0.362   7.637   1.378
 4925SOL    HW126806   0.301   7.714   1.357
 4925SOL    HW226807   0.377   7.633   1.477
 4926SOL     OW26808   6.296   1.881   6.966
 4926SOL    HW126809   6.366   1.852   7.031
 4926SOL    HW226810   6.291   1.981   6.965
 4927SOL     OW26811   0.519   3.146   1.398
 4927SOL    HW126812   0.574   3.177   1.475
 4927SOL    HW226813   0.444   3.088   1.432
 4928SOL     OW26814   1.815   2.751   6.253
 4928SOL    HW126815   1.897   2.696   6.268
 4928SOL    HW226816   1.743   2.693   6.215
 4929SOL     OW26817   7.540   6.707   5.868
 4929SOL    HW126818   7.505   6.719   5.775
 4929SOL    HW226819   7.626   6.758   5.878
 4930SOL     OW26820   3.076   1.428   6.209
 4930SOL    HW126821   3.097   1.524   6.187
 4930SOL    HW226822   3.037   1.384   6.128
 4931SOL     OW26823   1.446   0.950   6.005
 4931SOL    HW126824   1.368   0.889   6.018
 4931SOL    HW226825   1.443   0.991   5.915
 4932SOL     OW26826   6.937   8.179   6.083
 4932SOL    HW126827   6.978   8.089   6.072
 4932SOL    HW226828   6.916   8.195   6.179
 4933SOL     OW26829   5.387   1.759   5.884
 4933SOL    HW126830   5.386   1.786   5.787
 4933SOL    HW226831   5.395   1.841   5.941
 4934SOL     OW26832   6.848   1.719   1.253
 4934SOL    HW126833   6.814   1.809   1.283
 4934SOL    HW226834   6.941   1.706   1.286
 4935SOL     OW26835   4.043   6.056   1.221
 4935SOL    HW126836   4.012   6.000   1.298
 4935SOL    HW226837   4.037   6.003   1.136
 4936SOL     OW26838   6.843   1.422   6.766
 4936SOL    HW126839   6.877   1.512   6.738
 4936SOL    HW226840   6.868   1.354   6.697
 4937SOL     OW26841   5.278   0.881   6.063
 4937SOL    HW126842   5.307   0.801   6.010
 4937SOL    HW226843   5.292   0.964   6.010
 4938SOL     OW26844   4.023   3.929   6.440
 4938SOL    HW126845   4.108   3.966   6.402
 4938SOL    HW226846   4.027   3.934   6.540
 4939SOL     OW26847   8.318   5.567   1.824
 4939SOL    HW126848   8.294   5.495   1.758
 4939SOL    HW226849   8.282   5.543   1.914
 4940SOL     OW26850   2.421   2.221   2.061
 4940SOL    HW126851   2.500   2.276   2.036
 4940SOL    HW226852   2.337   2.275   2.048
 4941SOL     OW26853   5.408   4.924   0.589
 4941SOL    HW126854   5.393   4.826   0.575
 4941SOL    HW226855   5.338   4.959   0.652
 4942SOL     OW26856   8.973   8.372   6.389
 4942SOL    HW126857   9.011   8.325   6.469
 4942SOL    HW226858   8.897   8.319   6.353
 4943SOL     OW26859   6.593   5.480   1.247
 4943SOL    HW126860   6.566   5.425   1.325
 4943SOL    HW226861   6.664   5.433   1.195
 4944SOL     OW26862   8.908   6.504   5.333
 4944SOL    HW126863   8.814   6.521   5.304
 4944SOL    HW226864   8.941   6.419   5.291
 4945SOL     OW26865   3.531   1.787   0.486
 4945SOL    HW126866   3.492   1.751   0.401
 4945SOL    HW226867   3.556   1.883   0.473
 4946SOL     OW26868   5.703   5.744   0.430
 4946SOL    HW126869   5.780   5.704   0.480
 4946SOL    HW226870   5.637   5.781   0.495
 4947SOL     OW26871   2.945   1.690   6.350
 4947SOL    HW126872   2.913   1.595   6.346
 4947SOL    HW226873   2.867   1.751   6.361
 4948SOL     OW26874   0.689   2.199   6.548
 4948SOL    HW126875   0.709   2.194   6.646
 4948SOL    HW226876   0.654   2.290   6.526
 4949SOL     OW26877   6.112   4.843   6.646
 4949SOL    HW126878   6.103   4.818   6.742
 4949SOL    HW226879   6.172   4.924   6.638
 4950SOL     OW26880   7.746   1.162   0.341
 4950SOL    HW126881   7.679   1.171   0.267
 4950SOL    HW226882   7.722   1.083   0.398
 4951SOL     OW26883   4.623   0.573   6.612
 4951SOL    HW126884   4.577   0.558   6.524
 4951SOL    HW226885   4.562   0.621   6.674
 4952SOL     OW26886   5.786   7.182   1.066
 4952SOL    HW126887   5.824   7.269   1.035
 4952SOL    HW226888   5.858   7.125   1.105
 4953SOL     OW26889   4.666   0.747   2.193
 4953SOL    HW126890   4.636   0.803   2.271
 4953SOL    HW226891   4.758   0.713   2.210
 4954SOL     OW26892   6.851   0.715   0.456
 4954SOL    HW126893   6.825   0.689   0.549
 4954SOL    HW226894   6.799   0.661   0.390
 4955SOL     OW26895   6.947   6.715   0.309
 4955SOL    HW126896   6.886   6.790   0.282
 4955SOL    HW226897   6.943   6.642   0.242
 4956SOL     OW26898   1.426   6.464   6.553
 4956SOL    HW126899   1.363   6.439   6.627
 4956SOL    HW226900   1.450   6.383   6.500
 4957SOL     OW26901   5.621   2.444   1.367
 4957SOL    HW126902   5.667   2.446   1.278
 4957SOL    HW226903   5.686   2.469   1.439
 4958SOL     OW26904   0.260   7.865   1.259
 4958SOL    HW126905   0.305   7.924   1.326
 4958SOL    HW226906   0.167   7.896   1.243
 4959SOL     OW26907   6.972   0.591   6.111
 4959SOL    HW126908   6.895   0.653   6.125
 4959SOL    HW226909   7.041   0.636   6.054
 4960SOL     OW26910   5.282  -0.052   6.069
 4960SOL    HW126911   5.185  -0.059   6.044
 4960SOL    HW226912   5.313  -0.141   6.103
 4961SOL     OW26913   8.062   4.419   6.800
 4961SOL    HW126914   8.063   4.332   6.850
 4961SOL    HW226915   8.009   4.409   6.716
 4962SOL     OW26916   4.370   5.401   6.144
 4962SOL    HW126917   4.298   5.334   6.124
 4962SOL    HW226918   4.331   5.493   6.147
 4963SOL     OW26919   7.794   0.427   1.242
 4963SOL    HW126920   7.856   0.374   1.299
 4963SOL    HW226921   7.701   0.390   1.250
 4964SOL     OW26922   6.172   0.803   1.315
 4964SOL    HW126923   6.253   0.813   1.258
 4964SOL    HW226924   6.188   0.732   1.383
 4965SOL     OW26925   0.217   3.408   5.602
 4965SOL    HW126926   0.182   3.444   5.516
 4965SOL    HW226927   0.176   3.318   5.620
 4966SOL     OW26928   7.891   8.012   1.405
 4966SOL    HW126929   7.841   8.028   1.490
 4966SOL    HW226930   7.847   7.939   1.353
 4967SOL     OW26931   4.660   0.460   1.501
 4967SOL    HW126932   4.650   0.552   1.463
 4967SOL    HW226933   4.584   0.403   1.470
 4968SOL     OW26934   1.699   7.008   5.881
 4968SOL    HW126935   1.681   6.965   5.969
 4968SOL    HW226936   1.617   7.057   5.850
 4969SOL     OW26937   2.432   5.225   6.874
 4969SOL    HW126938   2.454   5.223   6.776
 4969SOL    HW226939   2.515   5.238   6.927
 4970SOL     OW26940   0.532   6.710   0.972
 4970SOL    HW126941   0.627   6.722   0.944
 4970SOL    HW226942   0.481   6.666   0.898
 4971SOL     OW26943   4.825   6.460   0.952
 4971SOL    HW126944   4.916   6.472   0.912
 4971SOL    HW226945   4.755   6.484   0.883
 4972SOL     OW26946   4.019   2.312   6.154
 4972SOL    HW126947   4.058   2.278   6.068
 4972SOL    HW226948   3.948   2.378   6.135
 4973SOL     OW26949   5.264   4.523   6.608
 4973SOL    HW126950   5.179   4.575   6.600
 4973SOL    HW226951   5.285   4.479   6.521
 4974SOL     OW26952   6.550   0.609   6.179
 4974SOL    HW126953   6.475   0.613   6.244
 4974SOL    HW226954   6.568   0.700   6.141
 4975SOL     OW26955   0.234   5.926   5.416
 4975SOL    HW126956   0.331   5.939   5.438
 4975SOL    HW226957   0.200   6.008   5.370
 4976SOL     OW26958   5.954   7.264   6.210
 4976SOL    HW126959   5.946   7.168   6.234
 4976SOL    HW226960   6.049   7.285   6.185
 4977SOL     OW26961   4.358   2.117   2.255
 4977SOL    HW126962   4.301   2.191   2.289
 4977SOL    HW226963   4.367   2.125   2.155
 4978SOL     OW26964   5.662   1.514   6.502
 4978SOL    HW126965   5.716   1.528   6.584
 4978SOL    HW226966   5.618   1.424   6.506
 4979SOL     OW26967   2.779   0.973   2.497
 4979SOL    HW126968   2.717   0.981   2.419
 4979SOL    HW226969   2.789   0.876   2.521
 4980SOL     OW26970   6.106   1.140   6.318
 4980SOL    HW126971   6.098   1.067   6.250
 4980SOL    HW226972   6.048   1.118   6.397
 4981SOL     OW26973   1.705   2.868   5.167
 4981SOL    HW126974   1.713   2.959   5.207
 4981SOL    HW226975   1.796   2.825   5.164
 4982SOL     OW26976   4.142   3.830   0.366
 4982SOL    HW126977   4.047   3.820   0.336
 4982SOL    HW226978   4.184   3.907   0.318
 4983SOL     OW26979   9.581   5.588   6.419
 4983SOL    HW126980   9.585   5.534   6.503
 4983SOL    HW226981   9.493   5.634   6.412
 4984SOL     OW26982   7.898   1.334   1.689
 4984SOL    HW126983   7.817   1.287   1.726
 4984SOL    HW226984   7.911   1.420   1.738
 4985SOL     OW26985   8.419   3.618   6.821
 4985SOL    HW126986   8.456   3.711   6.813
 4985SOL    HW226987   8.320   3.621   6.804
 4986SOL     OW26988   6.605   2.176   6.842
 4986SOL    HW126989   6.698   2.210   6.855
 4986SOL    HW226990   6.568   2.214   6.757
 4987SOL     OW26991   5.061   6.133   1.407
 4987SOL    HW126992   5.112   6.050   1.387
 4987SOL    HW226993   4.982   6.111   1.465
 4988SOL     OW26994   7.933   6.394   6.263
 4988SOL    HW126995   7.951   6.296   6.261
 4988SOL    HW226996   7.853   6.415   6.207
 4989SOL     OW26997   2.769   0.523   1.084
 4989SOL    HW126998   2.817   0.601   1.044
 4989SOL    HW226999   2.671   0.531   1.065
 4990SOL     OW27000   8.635   6.451   6.114
 4990SOL    HW127001   8.671   6.466   6.022
 4990SOL    HW227002   8.680   6.373   6.156
 4991SOL     OW27003   6.345   3.636   0.690
 4991SOL    HW127004   6.300   3.547   0.701
 4991SOL    HW227005   6.312   3.681   0.607
 4992SOL     OW27006   6.622   5.016   5.994
 4992SOL    HW127007   6.560   5.049   5.924
 4992SOL    HW227008   6.710   4.993   5.952
 4993SOL     OW27009   4.262   6.310   6.040
 4993SOL    HW127010   4.228   6.309   6.134
 4993SOL    HW227011   4.201   6.257   5.981
 4994SOL     OW27012   4.863   7.268   1.198
 4994SOL    HW127013   4.894   7.176   1.225
 4994SOL    HW227014   4.792   7.298   1.261
 4995SOL     OW27015   8.589   0.184   6.315
 4995SOL    HW127016   8.548   0.272   6.340
 4995SOL    HW227017   8.534   0.110   6.355
 4996SOL     OW27018   1.166   5.936   5.000
 4996SOL    HW127019   1.115   5.985   4.930
 4996SOL    HW227020   1.218   5.862   4.958
 4997SOL     OW27021   1.077   3.912   5.660
 4997SOL    HW127022   1.053   3.897   5.564
 4997SOL    HW227023   1.055   4.007   5.685
 4998SOL     OW27024   5.219   5.926   1.411
 4998SOL    HW127025   5.287   5.922   1.484
 4998SOL    HW227026   5.144   5.862   1.432
 4999SOL     OW27027   8.585   4.343   5.985
 4999SOL    HW127028   8.583   4.394   5.899
 4999SOL    HW227029   8.676   4.304   5.999
 5000SOL     OW27030   6.580   6.943   6.774
 5000SOL    HW127031   6.656   6.995   6.736
 5000SOL    HW227032   6.551   6.873   6.710
 5001SOL     OW27033   4.938   6.451   1.657
 5001SOL    HW127034   5.015   6.493   1.705
 5001SOL    HW227035   4.942   6.352   1.668
 5002SOL     OW27036   8.674   4.363   6.275
 5002SOL    HW127037   8.641   4.457   6.266
 5002SOL    HW227038   8.765   4.363   6.317
 5003SOL     OW27039   3.185   3.521   1.360
 5003SOL    HW127040   3.240   3.507   1.443
 5003SOL    HW227041   3.088   3.512   1.383
 5004SOL     OW27042   8.782   3.787   0.271
 5004SOL    HW127043   8.796   3.692   0.243
 5004SOL    HW227044   8.862   3.820   0.321
 5005SOL     OW27045   6.999   6.641   0.866
 5005SOL    HW127046   6.949   6.689   0.939
 5005SOL    HW227047   6.981   6.686   0.779
 5006SOL     OW27048   3.460   6.659   6.618
 5006SOL    HW127049   3.464   6.733   6.685
 5006SOL    HW227050   3.548   6.611   6.615
 5007SOL     OW27051   0.661   6.851   1.524
 5007SOL    HW127052   0.622   6.880   1.611
 5007SOL    HW227053   0.758   6.831   1.536
 5008SOL     OW27054   4.965   2.991   6.779
 5008SOL    HW127055   4.973   2.961   6.684
 5008SOL    HW227056   5.012   2.926   6.839
 5009SOL     OW27057   6.955   6.266   6.264
 5009SOL    HW127058   7.020   6.236   6.194
 5009SOL    HW227059   6.875   6.206   6.263
 5010SOL     OW27060   2.194   3.497   0.632
 5010SOL    HW127061   2.238   3.531   0.549
 5010SOL    HW227062   2.258   3.502   0.709
 5011SOL     OW27063   0.524   3.702   1.036
 5011SOL    HW127064   0.585   3.725   0.960
 5011SOL    HW227065   0.476   3.617   1.015
 5012SOL     OW27066   7.510   3.711   2.178
 5012SOL    HW127067   7.503   3.635   2.242
 5012SOL    HW227068   7.442   3.781   2.202
 5013SOL     OW27069   5.565   5.247   6.311
 5013SOL    HW127070   5.586   5.163   6.261
 5013SOL    HW227071   5.472   5.242   6.347
 5014SOL     OW27072   3.525   1.504   1.124
 5014SOL    HW127073   3.547   1.431   1.189
 5014SOL    HW227074   3.474   1.576   1.171
 5015SOL     OW27075   7.055   1.656   1.431
 5015SOL    HW127076   7.049   1.728   1.500
 5015SOL    HW227077   7.123   1.588   1.461
 5016SOL     OW27078   0.843   4.236   0.389
 5016SOL    HW127079   0.750   4.200   0.384
 5016SOL    HW227080   0.907   4.160   0.397
 5017SOL     OW27081   0.603   4.803   6.357
 5017SOL    HW127082   0.546   4.722   6.372
 5017SOL    HW227083   0.646   4.798   6.267
 5018SOL     OW27084   6.838   5.425   1.074
 5018SOL    HW127085   6.889   5.357   1.126
 5018SOL    HW227086   6.826   5.394   0.979
 5019SOL     OW27087   1.055   3.030   0.321
 5019SOL    HW127088   0.966   2.996   0.289
 5019SOL    HW227089   1.104   2.956   0.367
 5020SOL     OW27090   1.170   7.697   6.442
 5020SOL    HW127091   1.238   7.770   6.451
 5020SOL    HW227092   1.118   7.689   6.526
 5021SOL     OW27093   3.663   6.792   5.350
 5021SOL    HW127094   3.692   6.888   5.346
 5021SOL    HW227095   3.743   6.734   5.361
 5022SOL     OW27096   7.252   5.957   5.433
 5022SOL    HW127097   7.300   5.999   5.356
 5022SOL    HW227098   7.292   5.868   5.452
 5023SOL     OW27099   7.798   7.850   6.395
 5023SOL    HW127100   7.897   7.855   6.385
 5023SOL    HW227101   7.763   7.776   6.337
 5024SOL     OW27102   2.685   5.546   5.200
 5024SOL    HW127103   2.696   5.509   5.292
 5024SOL    HW227104   2.775   5.562   5.159
 5025SOL     OW27105   4.191   0.585   5.919
 5025SOL    HW127106   4.129   0.576   5.997
 5025SOL    HW227107   4.152   0.649   5.853
 5026SOL     OW27108   3.543   7.378   0.438
 5026SOL    HW127109   3.448   7.403   0.455
 5026SOL    HW227110   3.584   7.341   0.521
 5027SOL     OW27111   8.064   7.177   5.194
 5027SOL    HW127112   8.029   7.252   5.138
 5027SOL    HW227113   8.005   7.165   5.274
 5028SOL     OW27114   0.777   3.065   1.385
 5028SOL    HW127115   0.817   3.157   1.388
 5028SOL    HW227116   0.682   3.072   1.355
 5029SOL     OW27117   4.445   4.481   6.832
 5029SOL    HW127118   4.506   4.557   6.809
 5029SOL    HW227119   4.368   4.480   6.768
 5030SOL     OW27120   5.333   8.085   5.673
 5030SOL    HW127121   5.323   8.172   5.720
 5030SOL    HW227122   5.279   8.087   5.588
 5031SOL     OW27123   6.640   3.972   5.225
 5031SOL    HW127124   6.588   4.025   5.158
 5031SOL    HW227125   6.611   3.877   5.222
 5032SOL     OW27126   7.820   6.253   6.747
 5032SOL    HW127127   7.778   6.322   6.687
 5032SOL    HW227128   7.912   6.282   6.772
 5033SOL     OW27129   5.045   1.288   5.883
 5033SOL    HW127130   5.022   1.316   5.790
 5033SOL    HW227131   4.961   1.273   5.935
 5034SOL     OW27132   4.042   6.396   1.781
 5034SOL    HW127133   4.122   6.440   1.740
 5034SOL    HW227134   4.050   6.297   1.771
 5035SOL     OW27135   4.378   0.886   1.366
 5035SOL    HW127136   4.295   0.878   1.311
 5035SOL    HW227137   4.354   0.888   1.463
 5036SOL     OW27138   1.966   4.941   6.148
 5036SOL    HW127139   1.892   4.949   6.081
 5036SOL    HW227140   2.052   4.969   6.105
 5037SOL     OW27141   0.835   5.339   5.531
 5037SOL    HW127142   0.881   5.264   5.579
 5037SOL    HW227143   0.759   5.303   5.476
 5038SOL     OW27144   6.206   1.252   1.283
 5038SOL    HW127145   6.301   1.282   1.292
 5038SOL    HW227146   6.150   1.294   1.355
 5039SOL     OW27147   1.703   8.325   0.861
 5039SOL    HW127148   1.648   8.359   0.785
 5039SOL    HW227149   1.751   8.402   0.905
 5040SOL     OW27150   2.278   4.876   6.641
 5040SOL    HW127151   2.374   4.860   6.662
 5040SOL    HW227152   2.271   4.943   6.566
 5041SOL     OW27153   1.410   0.103   5.097
 5041SOL    HW127154   1.491   0.045   5.095
 5041SOL    HW227155   1.352   0.078   5.174
 5042SOL     OW27156   4.113   0.207   1.217
 5042SOL    HW127157   4.153   0.193   1.308
 5042SOL    HW227158   4.064   0.294   1.215
 5043SOL     OW27159   3.398   2.036   0.526
 5043SOL    HW127160   3.466   2.037   0.599
 5043SOL    HW227161   3.338   2.115   0.535
 5044SOL     OW27162   2.777   1.138   6.576
 5044SOL    HW127163   2.685   1.121   6.541
 5044SOL    HW227164   2.826   1.200   6.514
 5045SOL     OW27165   2.429   6.419   6.344
 5045SOL    HW127166   2.509   6.364   6.372
 5045SOL    HW227167   2.423   6.501   6.400
 5046SOL     OW27168   7.951   7.215   4.823
 5046SOL    HW127169   7.889   7.137   4.820
 5046SOL    HW227170   7.899   7.299   4.805
 5047SOL     OW27171   5.795   8.098   0.316
 5047SOL    HW127172   5.841   8.166   0.259
 5047SOL    HW227173   5.797   8.009   0.270
 5048SOL     OW27174   0.171   1.907   1.667
 5048SOL    HW127175   0.108   1.879   1.740
 5048SOL    HW227176   0.264   1.913   1.704
 5049SOL     OW27177   4.652   6.673   6.572
 5049SOL    HW127178   4.690   6.765   6.572
 5049SOL    HW227179   4.727   6.606   6.572
 5050SOL     OW27180   0.937   3.850   1.619
 5050SOL    HW127181   0.840   3.857   1.595
 5050SOL    HW227182   0.950   3.777   1.686
 5051SOL     OW27183   8.375   6.442   5.114
 5051SOL    HW127184   8.310   6.487   5.053
 5051SOL    HW227185   8.451   6.406   5.060
 5052SOL     OW27186   3.108   1.390   6.911
 5052SOL    HW127187   3.101   1.356   6.817
 5052SOL    HW227188   3.196   1.363   6.950
 5053SOL     OW27189   9.241   8.084   5.989
 5053SOL    HW127190   9.335   8.109   5.967
 5053SOL    HW227191   9.182   8.164   5.979
 5054SOL     OW27192   0.666   3.294   6.341
 5054SOL    HW127193   0.595   3.254   6.400
 5054SOL    HW227194   0.707   3.221   6.285
 5055SOL     OW27195   0.959   2.865   1.075
 5055SOL    HW127196   1.046   2.882   1.029
 5055SOL    HW227197   0.890   2.928   1.040
 5056SOL     OW27198   5.716   2.603   1.565
 5056SOL    HW127199   5.617   2.611   1.553
 5056SOL    HW227200   5.756   2.694   1.574
 5057SOL     OW27201   9.594   4.591   5.393
 5057SOL    HW127202   9.625   4.531   5.319
 5057SOL    HW227203   9.509   4.636   5.365
 5058SOL     OW27204   7.129   1.871   1.628
 5058SOL    HW127205   7.098   1.953   1.581
 5058SOL    HW227206   7.221   1.886   1.664
 5059SOL     OW27207   3.486   7.075   6.669
 5059SOL    HW127208   3.421   7.150   6.680
 5059SOL    HW227209   3.532   7.082   6.581
 5060SOL     OW27210   0.701   1.394   0.521
 5060SOL    HW127211   0.677   1.459   0.449
 5060SOL    HW227212   0.799   1.402   0.541
 5061SOL     OW27213   0.927   3.282   0.368
 5061SOL    HW127214   0.961   3.218   0.299
 5061SOL    HW227215   0.879   3.232   0.440
 5062SOL     OW27216   3.529   6.403   6.252
 5062SOL    HW127217   3.503   6.438   6.342
 5062SOL    HW227218   3.596   6.330   6.263
 5063SOL     OW27219   7.339   3.912   1.830
 5063SOL    HW127220   7.314   3.848   1.902
 5063SOL    HW227221   7.415   3.969   1.861
 5064SOL     OW27222   6.051   3.331   0.998
 5064SOL    HW127223   5.956   3.308   0.977
 5064SOL    HW227224   6.079   3.411   0.946
 5065SOL     OW27225   0.793   4.641   0.941
 5065SOL    HW127226   0.781   4.577   1.017
 5065SOL    HW227227   0.891   4.652   0.922
 5066SOL     OW27228   4.797   3.612   6.415
 5066SOL    HW127229   4.773   3.521   6.382
 5066SOL    HW227230   4.838   3.604   6.506
 5067SOL     OW27231   4.830   2.558   1.566
 5067SOL    HW127232   4.862   2.607   1.647
 5067SOL    HW227233   4.864   2.464   1.568
 5068SOL     OW27234   2.714   8.260   1.235
 5068SOL    HW127235   2.750   8.179   1.188
 5068SOL    HW227236   2.786   8.301   1.290
 5069SOL     OW27237   4.057   4.117   2.221
 5069SOL    HW127238   4.126   4.052   2.187
 5069SOL    HW227239   4.078   4.140   2.316
 5070SOL     OW27240   1.942   5.878   0.499
 5070SOL    HW127241   1.935   5.968   0.456
 5070SOL    HW227242   1.854   5.831   0.492
 5071SOL     OW27243   2.693   7.017   6.797
 5071SOL    HW127244   2.599   7.041   6.773
 5071SOL    HW227245   2.754   7.050   6.725
 5072SOL     OW27246   6.640   6.501   6.058
 5072SOL    HW127247   6.583   6.583   6.053
 5072SOL    HW227248   6.611   6.445   6.135
 5073SOL     OW27249   8.889   5.145   5.911
 5073SOL    HW127250   8.920   5.066   5.964
 5073SOL    HW227251   8.805   5.122   5.862
 5074SOL     OW27252   1.867   7.256   0.528
 5074SOL    HW127253   1.943   7.313   0.496
 5074SOL    HW227254   1.823   7.301   0.606
 5075SOL     OW27255   0.612   6.888   1.775
 5075SOL    HW127256   0.669   6.814   1.812
 5075SOL    HW227257   0.602   6.959   1.845
 5076SOL     OW27258   4.688   0.649   1.101
 5076SOL    HW127259   4.599   0.605   1.117
 5076SOL    HW227260   4.761   0.591   1.138
 5077SOL     OW27261   0.761   5.012   5.406
 5077SOL    HW127262   0.839   4.963   5.445
 5077SOL    HW227263   0.779   5.032   5.310
 5078SOL     OW27264   8.059   0.894   5.790
 5078SOL    HW127265   8.139   0.847   5.826
 5078SOL    HW227266   8.077   0.926   5.697
 5079SOL     OW27267   4.609   0.405   2.276
 5079SOL    HW127268   4.673   0.347   2.327
 5079SOL    HW227269   4.521   0.406   2.322
 5080SOL     OW27270   0.547   6.316   1.208
 5080SOL    HW127271   0.573   6.340   1.302
 5080SOL    HW227272   0.521   6.220   1.205
 5081SOL     OW27273   1.706   2.594   6.862
 5081SOL    HW127274   1.655   2.591   6.776
 5081SOL    HW227275   1.764   2.675   6.863
 5082SOL     OW27276   7.914   2.691   5.887
 5082SOL    HW127277   7.997   2.644   5.859
 5082SOL    HW227278   7.846   2.685   5.813
 5083SOL     OW27279   0.390   7.773   5.913
 5083SOL    HW127280   0.359   7.857   5.867
 5083SOL    HW227281   0.447   7.798   5.991
 5084SOL     OW27282   2.264   0.273   6.967
 5084SOL    HW127283   2.247   0.332   7.046
 5084SOL    HW227284   2.260   0.328   6.883
 5085SOL     OW27285   0.334   8.124   6.023
 5085SOL    HW127286   0.280   8.205   5.999
 5085SOL    HW227287   0.326   8.106   6.121
 5086SOL     OW27288   3.015   4.135   1.301
 5086SOL    HW127289   2.985   4.185   1.381
 5086SOL    HW227290   2.936   4.090   1.258
 5087SOL     OW27291   3.664   4.860   1.639
 5087SOL    HW127292   3.731   4.904   1.699
 5087SOL    HW227293   3.600   4.929   1.605
 5088SOL     OW27294   7.408   0.477   6.211
 5088SOL    HW127295   7.319   0.437   6.187
 5088SOL    HW227296   7.414   0.485   6.311
 5089SOL     OW27297   6.023   2.704   0.764
 5089SOL    HW127298   6.033   2.698   0.665
 5089SOL    HW227299   6.101   2.753   0.802
 5090SOL     OW27300   4.139   2.839   5.367
 5090SOL    HW127301   4.193   2.822   5.450
 5090SOL    HW227302   4.109   2.935   5.366
 5091SOL     OW27303   1.061   8.397   6.443
 5091SOL    HW127304   1.036   8.383   6.539
 5091SOL    HW227305   1.158   8.421   6.437
 5092SOL     OW27306   9.514   8.200   5.910
 5092SOL    HW127307   9.441   8.244   5.858
 5092SOL    HW227308   9.593   8.262   5.914
 5093SOL     OW27309   2.545   3.066   6.984
 5093SOL    HW127310   2.554   3.084   7.082
 5093SOL    HW227311   2.473   2.999   6.969
 5094SOL     OW27312   2.099   5.220   1.287
 5094SOL    HW127313   2.176   5.240   1.347
 5094SOL    HW227314   2.064   5.128   1.307
 5095SOL     OW27315   2.672   3.283   1.765
 5095SOL    HW127316   2.603   3.264   1.835
 5095SOL    HW227317   2.709   3.375   1.780
 5096SOL     OW27318   2.748   5.649   6.559
 5096SOL    HW127319   2.701   5.658   6.647
 5096SOL    HW227320   2.724   5.727   6.501
 5097SOL     OW27321   6.711   2.490   0.949
 5097SOL    HW127322   6.626   2.466   0.902
 5097SOL    HW227323   6.733   2.586   0.930
 5098SOL     OW27324   7.272   1.768   0.602
 5098SOL    HW127325   7.345   1.781   0.535
 5098SOL    HW227326   7.218   1.852   0.610
 5099SOL     OW27327   8.896   0.795   6.872
 5099SOL    HW127328   8.827   0.777   6.802
 5099SOL    HW227329   8.947   0.711   6.891
 5100SOL     OW27330   5.315   5.045   0.861
 5100SOL    HW127331   5.245   5.104   0.820
 5100SOL    HW227332   5.270   4.975   0.916
 5101SOL     OW27333   0.959   6.847   0.924
 5101SOL    HW127334   1.026   6.851   0.849
 5101SOL    HW227335   1.006   6.822   1.009
 5102SOL     OW27336   5.281   5.292   0.269
 5102SOL    HW127337   5.343   5.370   0.272
 5102SOL    HW227338   5.319   5.221   0.210
 5103SOL     OW27339   2.592   2.668   5.625
 5103SOL    HW127340   2.593   2.755   5.574
 5103SOL    HW227341   2.511   2.615   5.599
 5104SOL     OW27342   8.234   8.207   5.394
 5104SOL    HW127343   8.246   8.255   5.307
 5104SOL    HW227344   8.186   8.120   5.377
 5105SOL     OW27345   5.687   5.085   0.839
 5105SOL    HW127346   5.727   5.081   0.930
 5105SOL    HW227347   5.604   5.141   0.841
 5106SOL     OW27348   1.794   6.394   6.804
 5106SOL    HW127349   1.753   6.485   6.811
 5106SOL    HW227350   1.722   6.325   6.814
 5107SOL     OW27351   8.315   5.882   5.830
 5107SOL    HW127352   8.251   5.884   5.753
 5107SOL    HW227353   8.266   5.903   5.915
 5108SOL     OW27354   0.717   7.088   6.424
 5108SOL    HW127355   0.717   7.110   6.521
 5108SOL    HW227356   0.811   7.067   6.395
 5109SOL     OW27357   7.329   5.211   5.126
 5109SOL    HW127358   7.366   5.209   5.033
 5109SOL    HW227359   7.329   5.119   5.164
 5110SOL     OW27360   8.666   1.311   0.858
 5110SOL    HW127361   8.708   1.276   0.942
 5110SOL    HW227362   8.656   1.236   0.793
 5111SOL     OW27363   0.599   7.311   4.980
 5111SOL    HW127364   0.569   7.334   4.887
 5111SOL    HW227365   0.699   7.301   4.981
 5112SOL     OW27366   1.854   5.377   0.680
 5112SOL    HW127367   1.929   5.371   0.746
 5112SOL    HW227368   1.888   5.358   0.588
 5113SOL     OW27369   3.450   4.740   6.563
 5113SOL    HW127370   3.506   4.667   6.524
 5113SOL    HW227371   3.506   4.822   6.575
 5114SOL     OW27372   8.416   0.489   6.119
 5114SOL    HW127373   8.494   0.493   6.056
 5114SOL    HW227374   8.346   0.554   6.088
 5115SOL     OW27375   1.963   5.117   1.675
 5115SOL    HW127376   2.036   5.060   1.713
 5115SOL    HW227377   1.922   5.070   1.596
 5116SOL     OW27378   2.757   5.540   6.072
 5116SOL    HW127379   2.802   5.534   6.161
 5116SOL    HW227380   2.826   5.537   5.999
 5117SOL     OW27381   2.766   2.519   6.166
 5117SOL    HW127382   2.683   2.463   6.166
 5117SOL    HW227383   2.846   2.460   6.162
 5118SOL     OW27384   1.418   2.543   5.576
 5118SOL    HW127385   1.495   2.572   5.519
 5118SOL    HW227386   1.413   2.443   5.576
 5119SOL     OW27387   1.492   6.119   1.019
 5119SOL    HW127388   1.578   6.070   1.034
 5119SOL    HW227389   1.494   6.162   0.929
 5120SOL     OW27390   0.993   8.030   6.428
 5120SOL    HW127391   1.062   8.068   6.367
 5120SOL    HW227392   1.031   8.020   6.520
 5121SOL     OW27393   2.889   1.850   1.480
 5121SOL    HW127394   2.854   1.837   1.387
 5121SOL    HW227395   2.819   1.824   1.546
 5122SOL     OW27396   4.360   3.098   6.582
 5122SOL    HW127397   4.440   3.129   6.530
 5122SOL    HW227398   4.384   3.017   6.635
 5123SOL     OW27399   4.638   6.920   1.905
 5123SOL    HW127400   4.572   6.969   1.961
 5123SOL    HW227401   4.685   6.851   1.961
 5124SOL     OW27402   7.482   7.380   6.048
 5124SOL    HW127403   7.487   7.354   6.145
 5124SOL    HW227404   7.554   7.333   5.998
 5125SOL     OW27405   4.496   3.524   0.918
 5125SOL    HW127406   4.540   3.595   0.862
 5125SOL    HW227407   4.408   3.557   0.951
 5126SOL     OW27408   3.447   1.704   1.962
 5126SOL    HW127409   3.437   1.725   2.059
 5126SOL    HW227410   3.468   1.607   1.951
 5127SOL     OW27411   2.370   5.962   6.678
 5127SOL    HW127412   2.304   6.037   6.672
 5127SOL    HW227413   2.440   5.984   6.746
 5128SOL     OW27414   2.757   6.915   1.140
 5128SOL    HW127415   2.728   6.845   1.206
 5128SOL    HW227416   2.677   6.946   1.089
 5129SOL     OW27417   0.498   7.593   6.798
 5129SOL    HW127418   0.567   7.636   6.857
 5129SOL    HW227419   0.409   7.595   6.843
 5130SOL     OW27420   3.845   2.394   1.315
 5130SOL    HW127421   3.844   2.360   1.409
 5130SOL    HW227422   3.784   2.338   1.259
 5131SOL     OW27423   7.709   2.231   1.151
 5131SOL    HW127424   7.613   2.252   1.135
 5131SOL    HW227425   7.748   2.186   1.071
 5132SOL     OW27426   5.942   6.784   5.677
 5132SOL    HW127427   5.890   6.719   5.732
 5132SOL    HW227428   5.897   6.797   5.589
 5133SOL     OW27429   6.171   7.845   1.352
 5133SOL    HW127430   6.204   7.842   1.447
 5133SOL    HW227431   6.175   7.939   1.318
 5134SOL     OW27432   0.953   5.493   1.338
 5134SOL    HW127433   0.928   5.469   1.432
 5134SOL    HW227434   1.033   5.553   1.339
 5135SOL     OW27435   1.128   1.273   1.367
 5135SOL    HW127436   1.202   1.219   1.328
 5135SOL    HW227437   1.059   1.212   1.406
 5136SOL     OW27438   2.803   6.350   0.284
 5136SOL    HW127439   2.797   6.448   0.265
 5136SOL    HW227440   2.899   6.324   0.296
 5137SOL     OW27441   5.589   2.761   0.966
 5137SOL    HW127442   5.532   2.821   0.910
 5137SOL    HW227443   5.530   2.698   1.017
 5138SOL     OW27444   1.822   1.355   1.346
 5138SOL    HW127445   1.887   1.424   1.313
 5138SOL    HW227446   1.794   1.378   1.439
 5139SOL     OW27447   2.298   8.421   0.869
 5139SOL    HW127448   2.323   8.325   0.880
 5139SOL    HW227449   2.278   8.461   0.958
 5140SOL     OW27450   6.091   6.660   2.275
 5140SOL    HW127451   6.189   6.673   2.289
 5140SOL    HW227452   6.055   6.601   2.347
 5141SOL     OW27453   8.829   6.855   1.727
 5141SOL    HW127454   8.745   6.865   1.780
 5141SOL    HW227455   8.823   6.773   1.670
 5142SOL     OW27456   4.408   4.795   5.789
 5142SOL    HW127457   4.439   4.702   5.770
 5142SOL    HW227458   4.343   4.824   5.719
 5143SOL     OW27459   9.168   8.321   0.412
 5143SOL    HW127460   9.143   8.417   0.428
 5143SOL    HW227461   9.249   8.298   0.466
 5144SOL     OW27462   3.140   6.419   1.484
 5144SOL    HW127463   3.089   6.336   1.462
 5144SOL    HW227464   3.087   6.499   1.455
 5145SOL     OW27465   4.903   2.729   6.342
 5145SOL    HW127466   4.974   2.782   6.295
 5145SOL    HW227467   4.946   2.670   6.410
 5146SOL     OW27468   3.054   3.358   6.228
 5146SOL    HW127469   3.045   3.457   6.220
 5146SOL    HW227470   2.981   3.313   6.177
 5147SOL     OW27471   6.053   0.341   2.103
 5147SOL    HW127472   6.116   0.418   2.112
 5147SOL    HW227473   6.042   0.296   2.192
 5148SOL     OW27474   5.245   0.943   6.956
 5148SOL    HW127475   5.287   0.853   6.971
 5148SOL    HW227476   5.201   0.974   7.040
 5149SOL     OW27477   0.311   2.724   6.993
 5149SOL    HW127478   0.241   2.693   6.929
 5149SOL    HW227479   0.358   2.804   6.955
 5150SOL     OW27480   1.484   1.869   1.447
 5150SOL    HW127481   1.547   1.796   1.421
 5150SOL    HW227482   1.535   1.955   1.455
 5151SOL     OW27483   3.863   4.972   1.787
 5151SOL    HW127484   3.950   4.932   1.758
 5151SOL    HW227485   3.830   4.924   1.868
 5152SOL     OW27486   1.461   2.584   6.711
 5152SOL    HW127487   1.386   2.567   6.776
 5152SOL    HW227488   1.465   2.682   6.690
 5153SOL     OW27489   4.622   7.387   6.308
 5153SOL    HW127490   4.671   7.381   6.221
 5153SOL    HW227491   4.686   7.375   6.384
 5154SOL     OW27492   1.408   1.947   5.541
 5154SOL    HW127493   1.352   2.013   5.592
 5154SOL    HW227494   1.448   1.992   5.462
 5155SOL     OW27495   5.755   7.975   2.248
 5155SOL    HW127496   5.826   7.913   2.284
 5155SOL    HW227497   5.669   7.924   2.238
 5156SOL     OW27498   6.033   2.978   1.201
 5156SOL    HW127499   6.081   3.061   1.231
 5156SOL    HW227500   6.083   2.937   1.125
 5157SOL     OW27501   8.080   2.810   0.711
 5157SOL    HW127502   8.169   2.854   0.727
 5157SOL    HW227503   8.007   2.874   0.734
 5158SOL     OW27504   3.757   1.736   6.411
 5158SOL    HW127505   3.658   1.728   6.424
 5158SOL    HW227506   3.787   1.669   6.343
 5159SOL     OW27507   3.491   1.357   1.561
 5159SOL    HW127508   3.482   1.432   1.495
 5159SOL    HW227509   3.558   1.381   1.630
 5160SOL     OW27510   7.218   6.657   0.524
 5160SOL    HW127511   7.210   6.571   0.474
 5160SOL    HW227512   7.273   6.644   0.606
 5161SOL     OW27513   4.964   1.453   1.909
 5161SOL    HW127514   4.947   1.390   1.984
 5161SOL    HW227515   4.961   1.547   1.943
 5162SOL     OW27516   1.170   1.490   6.949
 5162SOL    HW127517   1.187   1.555   7.023
 5162SOL    HW227518   1.256   1.468   6.904
 5163SOL     OW27519   5.546   7.708   0.556
 5163SOL    HW127520   5.606   7.773   0.510
 5163SOL    HW227521   5.586   7.681   0.643
 5164SOL     OW27522   2.537   0.862   1.335
 5164SOL    HW127523   2.622   0.812   1.354
 5164SOL    HW227524   2.462   0.821   1.387
 5165SOL     OW27525   2.254   6.796   6.899
 5165SOL    HW127526   2.271   6.890   6.872
 5165SOL    HW227527   2.249   6.738   6.817
 5166SOL     OW27528   8.689   4.115   6.836
 5166SOL    HW127529   8.715   4.097   6.931
 5166SOL    HW227530   8.768   4.150   6.786
 5167SOL     OW27531   8.628   1.908   1.650
 5167SOL    HW127532   8.641   2.003   1.622
 5167SOL    HW227533   8.646   1.899   1.748
 5168SOL     OW27534   5.748   8.051   6.575
 5168SOL    HW127535   5.847   8.066   6.585
 5168SOL    HW227536   5.729   8.004   6.489
 5169SOL     OW27537   3.864   7.293   0.676
 5169SOL    HW127538   3.893   7.199   0.690
 5169SOL    HW227539   3.944   7.354   0.679
 5170SOL     OW27540   6.162   0.545   0.838
 5170SOL    HW127541   6.116   0.617   0.786
 5170SOL    HW227542   6.102   0.512   0.911
 5171SOL     OW27543   5.711   2.098   1.172
 5171SOL    HW127544   5.696   2.024   1.107
 5171SOL    HW227545   5.674   2.183   1.134
 5172SOL     OW27546   0.328   1.843   1.117
 5172SOL    HW127547   0.311   1.752   1.155
 5172SOL    HW227548   0.376   1.898   1.184
 5173SOL     OW27549   7.910   5.467   5.184
 5173SOL    HW127550   7.971   5.471   5.106
 5173SOL    HW227551   7.815   5.464   5.152
 5174SOL     OW27552   5.826   6.646   0.901
 5174SOL    HW127553   5.778   6.665   0.987
 5174SOL    HW227554   5.857   6.733   0.861
 5175SOL     OW27555   4.330   6.510   5.818
 5175SOL    HW127556   4.327   6.431   5.879
 5175SOL    HW227557   4.299   6.482   5.727
 5176SOL     OW27558   9.001   2.048   6.445
 5176SOL    HW127559   9.034   2.043   6.539
 5176SOL    HW227560   8.986   2.144   6.421
 5177SOL     OW27561   4.700   7.895   5.557
 5177SOL    HW127562   4.626   7.829   5.542
 5177SOL    HW227563   4.756   7.864   5.634
 5178SOL     OW27564   0.267   7.234   1.232
 5178SOL    HW127565   0.238   7.139   1.218
 5178SOL    HW227566   0.212   7.275   1.305
 5179SOL     OW27567   6.779   4.149   1.459
 5179SOL    HW127568   6.733   4.193   1.383
 5179SOL    HW227569   6.749   4.190   1.545
 5180SOL     OW27570   2.496   6.569   6.634
 5180SOL    HW127571   2.542   6.640   6.687
 5180SOL    HW227572   2.413   6.540   6.681
 5181SOL     OW27573   9.154   0.630   5.768
 5181SOL    HW127574   9.170   0.546   5.715
 5181SOL    HW227575   9.057   0.655   5.761
 5182SOL     OW27576   5.709   0.197   6.735
 5182SOL    HW127577   5.715   0.293   6.708
 5182SOL    HW227578   5.682   0.190   6.831
 5183SOL     OW27579   0.532   1.235   6.818
 5183SOL    HW127580   0.607   1.241   6.753
 5183SOL    HW227581   0.449   1.271   6.776
 5184SOL     OW27582   7.969   3.717   1.463
 5184SOL    HW127583   7.920   3.748   1.382
 5184SOL    HW227584   8.038   3.649   1.436
 5185SOL     OW27585   3.716   7.378   2.435
 5185SOL    HW127586   3.771   7.381   2.518
 5185SOL    HW227587   3.759   7.318   2.368
 5186SOL     OW27588   3.003   2.986   6.904
 5186SOL    HW127589   3.012   2.914   6.835
 5186SOL    HW227590   3.019   3.075   6.862
 5187SOL     OW27591   8.604   8.162   0.916
 5187SOL    HW127592   8.698   8.142   0.886
 5187SOL    HW227593   8.540   8.122   0.851
 5188SOL     OW27594   7.786   4.898   6.842
 5188SOL    HW127595   7.800   4.912   6.744
 5188SOL    HW227596   7.757   4.803   6.859
 5189SOL     OW27597   5.432   8.027   1.809
 5189SOL    HW127598   5.494   8.081   1.752
 5189SOL    HW227599   5.454   8.041   1.905
 5190SOL     OW27600   1.138   3.454   0.277
 5190SOL    HW127601   1.129   3.554   0.276
 5190SOL    HW227602   1.060   3.414   0.324
 5191SOL     OW27603   5.912   1.202   0.841
 5191SOL    HW127604   6.001   1.211   0.887
 5191SOL    HW227605   5.922   1.143   0.761
 5192SOL     OW27606   5.527   8.209   1.646
 5192SOL    HW127607   5.487   8.295   1.678
 5192SOL    HW227608   5.494   8.189   1.553
 5193SOL     OW27609   5.616   8.128   0.550
 5193SOL    HW127610   5.704   8.116   0.503
 5193SOL    HW227611   5.632   8.154   0.645
 5194SOL     OW27612   3.868   4.674   1.655
 5194SOL    HW127613   3.778   4.716   1.641
 5194SOL    HW227614   3.887   4.667   1.753
 5195SOL     OW27615   5.092   7.005   5.833
 5195SOL    HW127616   5.033   6.984   5.755
 5195SOL    HW227617   5.073   6.942   5.908
 5196SOL     OW27618   6.102   1.452   6.665
 5196SOL    HW127619   6.171   1.385   6.636
 5196SOL    HW227620   6.118   1.477   6.760
 5197SOL     OW27621   8.894   7.120   6.501
 5197SOL    HW127622   8.808   7.104   6.452
 5197SOL    HW227623   8.882   7.102   6.598
 5198SOL     OW27624   0.682   0.870   5.627
 5198SOL    HW127625   0.697   0.862   5.528
 5198SOL    HW227626   0.769   0.865   5.675
 5199SOL     OW27627   8.167   3.389   6.690
 5199SOL    HW127628   8.225   3.411   6.612
 5199SOL    HW227629   8.179   3.458   6.761
 5200SOL     OW27630   9.437   3.057   6.512
 5200SOL    HW127631   9.411   3.089   6.603
 5200SOL    HW227632   9.372   2.988   6.481
 5201SOL     OW27633   9.548   4.868   1.290
 5201SOL    HW127634   9.615   4.894   1.361
 5201SOL    HW227635   9.515   4.776   1.308
 5202SOL     OW27636   4.959   1.414   6.432
 5202SOL    HW127637   4.980   1.380   6.524
 5202SOL    HW227638   4.937   1.511   6.437
 5203SOL     OW27639   0.485   7.004   1.010
 5203SOL    HW127640   0.498   6.982   1.107
 5203SOL    HW227641   0.460   6.920   0.961
 5204SOL     OW27642   2.135   2.806   6.892
 5204SOL    HW127643   2.157   2.719   6.934
 5204SOL    HW227644   2.206   2.829   6.825
 5205SOL     OW27645   8.982   3.892   0.395
 5205SOL    HW127646   9.001   3.987   0.418
 5205SOL    HW227647   9.053   3.833   0.433
 5206SOL     OW27648   1.114   6.562   0.321
 5206SOL    HW127649   1.094   6.522   0.410
 5206SOL    HW227650   1.080   6.656   0.318
 5207SOL     OW27651   1.291   8.284   0.730
 5207SOL    HW127652   1.318   8.377   0.755
 5207SOL    HW227653   1.251   8.238   0.809
 5208SOL     OW27654   7.087   4.226   1.602
 5208SOL    HW127655   7.180   4.258   1.621
 5208SOL    HW227656   7.091   4.136   1.558
 5209SOL     OW27657   1.531   4.836   6.433
 5209SOL    HW127658   1.523   4.744   6.394
 5209SOL    HW227659   1.616   4.879   6.400
 5210SOL     OW27660   7.987   7.439   6.734
 5210SOL    HW127661   8.029   7.525   6.704
 5210SOL    HW227662   7.921   7.458   6.807
 5211SOL     OW27663   7.206   5.568   1.272
 5211SOL    HW127664   7.215   5.573   1.173
 5211SOL    HW227665   7.263   5.494   1.307
 5212SOL     OW27666   0.621   5.645   6.110
 5212SOL    HW127667   0.674   5.654   6.026
 5212SOL    HW227668   0.659   5.571   6.165
 5213SOL     OW27669   5.106   6.210   6.209
 5213SOL    HW127670   5.124   6.246   6.300
 5213SOL    HW227671   5.187   6.164   6.174
 5214SOL     OW27672   4.148   5.470   2.298
 5214SOL    HW127673   4.111   5.556   2.334
 5214SOL    HW227674   4.077   5.400   2.301
 5215SOL     OW27675   3.607   6.246   1.172
 5215SOL    HW127676   3.617   6.261   1.270
 5215SOL    HW227677   3.544   6.170   1.156
 5216SOL     OW27678   2.307   5.543   1.199
 5216SOL    HW127679   2.315   5.582   1.290
 5216SOL    HW227680   2.223   5.575   1.155
 5217SOL     OW27681   3.510   4.653   1.753
 5217SOL    HW127682   3.483   4.672   1.848
 5217SOL    HW227683   3.547   4.736   1.712
 5218SOL     OW27684   6.793   6.235   1.794
 5218SOL    HW127685   6.849   6.154   1.809
 5218SOL    HW227686   6.750   6.262   1.880
 5219SOL     OW27687   1.088   0.805   1.092
 5219SOL    HW127688   1.137   0.869   1.032
 5219SOL    HW227689   1.022   0.855   1.147
 5220SOL     OW27690   9.011   7.373   1.370
 5220SOL    HW127691   9.078   7.445   1.384
 5220SOL    HW227692   8.955   7.361   1.452
 5221SOL     OW27693   2.194   4.064   2.176
 5221SOL    HW127694   2.123   4.124   2.213
 5221SOL    HW227695   2.159   4.016   2.095
 5222SOL     OW27696   1.355   6.610   0.428
 5222SOL    HW127697   1.267   6.569   0.406
 5222SOL    HW227698   1.413   6.610   0.347
 5223SOL     OW27699   1.969   2.693   0.825
 5223SOL    HW127700   1.912   2.668   0.903
 5223SOL    HW227701   2.065   2.678   0.847
 5224SOL     OW27702   6.035   3.062   1.754
 5224SOL    HW127703   6.032   3.004   1.835
 5224SOL    HW227704   5.942   3.088   1.728
 5225SOL     OW27705   4.245   0.796   1.726
 5225SOL    HW127706   4.251   0.838   1.817
 5225SOL    HW227707   4.158   0.822   1.683
 5226SOL     OW27708   0.900   7.580   6.240
 5226SOL    HW127709   0.988   7.622   6.220
 5226SOL    HW227710   0.851   7.635   6.308
 5227SOL     OW27711   4.639   6.460   0.738
 5227SOL    HW127712   4.641   6.538   0.676
 5227SOL    HW227713   4.661   6.376   0.688
 5228SOL     OW27714   4.081   3.037   6.467
 5228SOL    HW127715   4.114   2.964   6.408
 5228SOL    HW227716   4.155   3.071   6.524
 5229SOL     OW27717   9.022   3.944   6.350
 5229SOL    HW127718   9.055   4.038   6.349
 5229SOL    HW227719   8.925   3.942   6.329
 5230SOL     OW27720   6.895   0.852   6.085
 5230SOL    HW127721   6.883   0.895   5.996
 5230SOL    HW227722   6.979   0.888   6.128
 5231SOL     OW27723   6.563   1.860   0.416
 5231SOL    HW127724   6.607   1.838   0.504
 5231SOL    HW227725   6.630   1.900   0.354
 5232SOL     OW27726   5.049   1.254   6.199
 5232SOL    HW127727   4.983   1.298   6.261
 5232SOL    HW227728   5.138   1.298   6.209
 5233SOL     OW27729   5.323   2.181   5.859
 5233SOL    HW127730   5.309   2.147   5.766
 5233SOL    HW227731   5.301   2.278   5.863
 5234SOL     OW27732   4.259   1.953   6.229
 5234SOL    HW127733   4.228   1.858   6.236
 5234SOL    HW227734   4.337   1.967   6.290
 5235SOL     OW27735   3.453   6.867   1.699
 5235SOL    HW127736   3.509   6.877   1.781
 5235SOL    HW227737   3.509   6.827   1.626
 5236SOL     OW27738   8.899   6.688   5.896
 5236SOL    HW127739   8.971   6.732   5.842
 5236SOL    HW227740   8.932   6.600   5.930
 5237SOL     OW27741   0.596   7.028   5.380
 5237SOL    HW127742   0.497   7.013   5.388
 5237SOL    HW227743   0.616   7.126   5.386
 5238SOL     OW27744   0.691   6.469   1.694
 5238SOL    HW127745   0.635   6.515   1.762
 5238SOL    HW227746   0.788   6.484   1.715
 5239SOL     OW27747   3.649   8.297   1.579
 5239SOL    HW127748   3.686   8.263   1.493
 5239SOL    HW227749   3.655   8.225   1.648
 5240SOL     OW27750   4.772   4.707   1.061
 5240SOL    HW127751   4.696   4.650   1.029
 5240SOL    HW227752   4.793   4.684   1.156
 5241SOL     OW27753   1.288   2.772   5.526
 5241SOL    HW127754   1.305   2.677   5.554
 5241SOL    HW227755   1.354   2.833   5.569
 5242SOL     OW27756   6.160   0.597   2.154
 5242SOL    HW127757   6.100   0.674   2.176
 5242SOL    HW227758   6.246   0.606   2.205
 5243SOL     OW27759   8.276   7.615   0.460
 5243SOL    HW127760   8.313   7.559   0.534
 5243SOL    HW227761   8.351   7.665   0.416
 5244SOL     OW27762   9.152   6.798   1.659
 5244SOL    HW127763   9.084   6.748   1.605
 5244SOL    HW227764   9.171   6.747   1.743
 5245SOL     OW27765   1.351   4.225   5.894
 5245SOL    HW127766   1.449   4.209   5.910
 5245SOL    HW227767   1.334   4.232   5.796
 5246SOL     OW27768   4.945   4.533   6.848
 5246SOL    HW127769   4.923   4.486   6.762
 5246SOL    HW227770   4.957   4.466   6.921
 5247SOL     OW27771   9.223   7.606   1.260
 5247SOL    HW127772   9.247   7.541   1.187
 5247SOL    HW227773   9.286   7.594   1.337
 5248SOL     OW27774   4.716   5.667   1.825
 5248SOL    HW127775   4.658   5.713   1.758
 5248SOL    HW227776   4.705   5.712   1.914
 5249SOL     OW27777   2.012   6.376   5.300
 5249SOL    HW127778   2.003   6.300   5.236
 5249SOL    HW227779   2.108   6.389   5.323
 5250SOL     OW27780   5.603   5.760   1.320
 5250SOL    HW127781   5.696   5.782   1.290
 5250SOL    HW227782   5.537   5.806   1.261
 5251SOL     OW27783   3.365   5.758   6.092
 5251SOL    HW127784   3.462   5.782   6.101
 5251SOL    HW227785   3.320   5.768   6.181
 5252SOL     OW27786   7.283   5.555   1.014
 5252SOL    HW127787   7.382   5.544   1.025
 5252SOL    HW227788   7.259   5.652   1.027
 5253SOL     OW27789   1.863   4.681   6.529
 5253SOL    HW127790   1.849   4.703   6.625
 5253SOL    HW227791   1.866   4.765   6.475
 5254SOL     OW27792   0.226   2.999   6.427
 5254SOL    HW127793   0.130   3.021   6.443
 5254SOL    HW227794   0.232   2.913   6.376
 5255SOL     OW27795   6.676   3.975   1.216
 5255SOL    HW127796   6.656   4.067   1.251
 5255SOL    HW227797   6.729   3.982   1.131
 5256SOL     OW27798   0.131   0.144   1.772
 5256SOL    HW127799   0.163   0.206   1.701
 5256SOL    HW227800   0.122   0.194   1.858
 5257SOL     OW27801   4.443   2.789   1.621
 5257SOL    HW127802   4.496   2.829   1.696
 5257SOL    HW227803   4.360   2.842   1.606
 5258SOL     OW27804   5.100   0.637   0.818
 5258SOL    HW127805   5.105   0.541   0.789
 5258SOL    HW227806   5.005   0.668   0.814
 5259SOL     OW27807   9.000   2.543   0.833
 5259SOL    HW127808   8.945   2.619   0.867
 5259SOL    HW227809   8.956   2.456   0.858
 5260SOL     OW27810   6.989   5.759   6.943
 5260SOL    HW127811   7.010   5.857   6.948
 5260SOL    HW227812   6.972   5.734   6.848
 5261SOL     OW27813   2.048   4.364   0.485
 5261SOL    HW127814   2.137   4.322   0.466
 5261SOL    HW227815   1.999   4.380   0.399
 5262SOL     OW27816   2.043   2.558   5.045
 5262SOL    HW127817   1.974   2.486   5.044
 5262SOL    HW227818   2.003   2.643   5.078
 5263SOL     OW27819   8.188   4.614   6.950
 5263SOL    HW127820   8.127   4.549   6.906
 5263SOL    HW227821   8.139   4.700   6.966
 5264SOL     OW27822   8.201   5.953   6.813
 5264SOL    HW127823   8.174   5.879   6.874
 5264SOL    HW227824   8.289   5.932   6.771
 5265SOL     OW27825   8.413   6.738   5.972
 5265SOL    HW127826   8.417   6.647   5.932
 5265SOL    HW227827   8.360   6.798   5.912
 5266SOL     OW27828   1.851   0.228   1.780
 5266SOL    HW127829   1.866   0.136   1.818
 5266SOL    HW227830   1.767   0.266   1.818
 5267SOL     OW27831   3.520   2.395   6.462
 5267SOL    HW127832   3.431   2.395   6.509
 5267SOL    HW227833   3.593   2.408   6.530
 5268SOL     OW27834   9.444   2.298   6.420
 5268SOL    HW127835   9.357   2.326   6.461
 5268SOL    HW227836   9.433   2.294   6.320
 5269SOL     OW27837   4.964   0.651   5.563
 5269SOL    HW127838   4.923   0.685   5.479
 5269SOL    HW227839   5.055   0.691   5.574
 5270SOL     OW27840   0.432   6.504   4.657
 5270SOL    HW127841   0.507   6.448   4.621
 5270SOL    HW227842   0.378   6.539   4.580
 5271SOL     OW27843   3.708   2.334   2.137
 5271SOL    HW127844   3.717   2.423   2.181
 5271SOL    HW227845   3.715   2.262   2.207
 5272SOL     OW27846   4.732   5.752   1.470
 5272SOL    HW127847   4.807   5.784   1.529
 5272SOL    HW227848   4.708   5.658   1.494
 5273SOL     OW27849   7.508   5.359   1.048
 5273SOL    HW127850   7.512   5.276   1.104
 5273SOL    HW227851   7.437   5.348   0.978
 5274SOL     OW27852   1.724   2.261   6.192
 5274SOL    HW127853   1.724   2.350   6.237
 5274SOL    HW227854   1.652   2.258   6.123
 5275SOL     OW27855   5.245   4.789   1.009
 5275SOL    HW127856   5.151   4.821   1.018
 5275SOL    HW227857   5.295   4.808   1.094
 5276SOL     OW27858   4.134   1.204   0.830
 5276SOL    HW127859   4.172   1.273   0.769
 5276SOL    HW227860   4.195   1.125   0.833
 5277SOL     OW27861   8.993   7.336   5.356
 5277SOL    HW127862   8.937   7.271   5.407
 5277SOL    HW227863   8.939   7.376   5.282
 5278SOL     OW27864   6.464   1.494   2.252
 5278SOL    HW127865   6.473   1.543   2.338
 5278SOL    HW227866   6.541   1.431   2.241
 5279SOL     OW27867   3.518   5.561   6.554
 5279SOL    HW127868   3.533   5.651   6.513
 5279SOL    HW227869   3.423   5.532   6.539
 5280SOL     OW27870   7.576   0.633   6.980
 5280SOL    HW127871   7.661   0.617   7.030
 5280SOL    HW227872   7.596   0.636   6.882
 5281SOL     OW27873   8.828   4.665   6.292
 5281SOL    HW127874   8.908   4.697   6.241
 5281SOL    HW227875   8.858   4.621   6.377
 5282SOL     OW27876   2.825   5.125   0.784
 5282SOL    HW127877   2.729   5.100   0.798
 5282SOL    HW227878   2.879   5.091   0.861
 5283SOL     OW27879   7.311   6.678   0.790
 5283SOL    HW127880   7.254   6.748   0.832
 5283SOL    HW227881   7.355   6.623   0.862
 5284SOL     OW27882   7.990   1.791   0.958
 5284SOL    HW127883   8.017   1.837   1.042
 5284SOL    HW227884   8.071   1.755   0.912
 5285SOL     OW27885   2.767   1.167   6.258
 5285SOL    HW127886   2.710   1.092   6.289
 5285SOL    HW227887   2.863   1.141   6.263
 5286SOL     OW27888   5.209   6.734   0.358
 5286SOL    HW127889   5.250   6.792   0.428
 5286SOL    HW227890   5.168   6.791   0.287
 5287SOL     OW27891   5.945   5.320   6.951
 5287SOL    HW127892   5.849   5.316   6.926
 5287SOL    HW227893   5.955   5.305   7.050
 5288SOL     OW27894   3.394   0.246   6.929
 5288SOL    HW127895   3.448   0.163   6.940
 5288SOL    HW227896   3.312   0.241   6.984
 5289SOL     OW27897   7.041   7.395   6.336
 5289SOL    HW127898   7.065   7.490   6.352
 5289SOL    HW227899   6.954   7.374   6.380
 5290SOL     OW27900   9.361   3.058   1.509
 5290SOL    HW127901   9.289   3.041   1.576
 5290SOL    HW227902   9.451   3.054   1.554
 5291SOL     OW27903   5.007   4.858   0.592
 5291SOL    HW127904   5.059   4.896   0.516
 5291SOL    HW227905   4.910   4.853   0.567
 5292SOL     OW27906   3.775   2.116   6.238
 5292SOL    HW127907   3.780   2.023   6.200
 5292SOL    HW227908   3.868   2.147   6.258
 5293SOL     OW27909   9.278   4.371   6.983
 5293SOL    HW127910   9.356   4.429   6.960
 5293SOL    HW227911   9.274   4.293   6.921
 5294SOL     OW27912   8.194   7.610   5.484
 5294SOL    HW127913   8.163   7.667   5.408
 5294SOL    HW227914   8.274   7.557   5.456
 5295SOL     OW27915   2.350   2.156   6.834
 5295SOL    HW127916   2.324   2.243   6.792
 5295SOL    HW227917   2.272   2.093   6.830
 5296SOL     OW27918   6.206   0.491   6.703
 5296SOL    HW127919   6.306   0.498   6.704
 5296SOL    HW227920   6.180   0.398   6.677
 5297SOL     OW27921   9.154   4.967   6.335
 5297SOL    HW127922   9.091   4.952   6.411
 5297SOL    HW227923   9.162   4.883   6.281
 5298SOL     OW27924   7.570   5.451   5.102
 5298SOL    HW127925   7.624   5.508   5.039
 5298SOL    HW227926   7.473   5.458   5.079
 5299SOL     OW27927   7.553   2.167   0.590
 5299SOL    HW127928   7.467   2.160   0.540
 5299SOL    HW227929   7.604   2.247   0.556
 5300SOL     OW27930   9.274   5.502   1.045
 5300SOL    HW127931   9.274   5.435   1.120
 5300SOL    HW227932   9.291   5.593   1.082
 5301SOL     OW27933   8.351   6.869   0.501
 5301SOL    HW127934   8.260   6.903   0.478
 5301SOL    HW227935   8.359   6.773   0.472
 5302SOL     OW27936   4.075   5.274   0.971
 5302SOL    HW127937   3.986   5.240   1.002
 5302SOL    HW227938   4.102   5.353   1.027
 5303SOL     OW27939   7.595   7.719   6.054
 5303SOL    HW127940   7.574   7.689   5.961
 5303SOL    HW227941   7.603   7.818   6.057
 5304SOL     OW27942   2.148   5.539   0.542
 5304SOL    HW127943   2.107   5.517   0.631
 5304SOL    HW227944   2.179   5.455   0.498
 5305SOL     OW27945   7.339   6.876   1.220
 5305SOL    HW127946   7.351   6.817   1.299
 5305SOL    HW227947   7.330   6.971   1.250
 5306SOL     OW27948   2.058   3.685   5.623
 5306SOL    HW127949   2.075   3.742   5.543
 5306SOL    HW227950   2.017   3.598   5.594
 5307SOL     OW27951   2.053   2.304   6.313
 5307SOL    HW127952   1.995   2.364   6.368
 5307SOL    HW227953   1.997   2.251   6.250
 5308SOL     OW27954   1.277   6.742   6.646
 5308SOL    HW127955   1.355   6.803   6.659
 5308SOL    HW227956   1.309   6.653   6.612
 5309SOL     OW27957   8.255   6.630   5.549
 5309SOL    HW127958   8.311   6.710   5.569
 5309SOL    HW227959   8.209   6.599   5.632
 5310SOL     OW27960   2.949   1.270   0.696
 5310SOL    HW127961   3.009   1.317   0.760
 5310SOL    HW227962   2.955   1.171   0.711
 5311SOL     OW27963   8.384   7.472   6.046
 5311SOL    HW127964   8.481   7.449   6.048
 5311SOL    HW227965   8.330   7.389   6.033
 5312SOL     OW27966   6.922   7.132   1.393
 5312SOL    HW127967   6.954   7.109   1.485
 5312SOL    HW227968   6.914   7.048   1.339
 5313SOL     OW27969   0.395   7.655   1.080
 5313SOL    HW127970   0.389   7.640   1.178
 5313SOL    HW227971   0.426   7.749   1.063
 5314SOL     OW27972   7.738   3.497   1.423
 5314SOL    HW127973   7.757   3.589   1.388
 5314SOL    HW227974   7.788   3.483   1.509
 5315SOL     OW27975   7.868   5.973   1.284
 5315SOL    HW127976   7.869   5.892   1.343
 5315SOL    HW227977   7.796   6.036   1.316
 5316SOL     OW27978   4.620   0.303   6.002
 5316SOL    HW127979   4.684   0.372   6.036
 5316SOL    HW227980   4.637   0.286   5.905
 5317SOL     OW27981   7.913  -0.001   6.009
 5317SOL    HW127982   7.816   0.015   5.996
 5317SOL    HW227983   7.965   0.077   5.975
 5318SOL     OW27984   5.773   4.648   0.450
 5318SOL    HW127985   5.814   4.732   0.485
 5318SOL    HW227986   5.840   4.573   0.454
 5319SOL     OW27987   8.187   5.125   1.013
 5319SOL    HW127988   8.110   5.070   0.981
 5319SOL    HW227989   8.268   5.105   0.958
 5320SOL     OW27990   1.638   5.711   5.971
 5320SOL    HW127991   1.690   5.698   5.887
 5320SOL    HW227992   1.624   5.623   6.016
 5321SOL     OW27993   4.690   7.527   5.393
 5321SOL    HW127994   4.759   7.514   5.322
 5321SOL    HW227995   4.605   7.558   5.351
 5322SOL     OW27996   2.386   5.464   5.948
 5322SOL    HW127997   2.406   5.557   5.980
 5322SOL    HW227998   2.432   5.397   6.007
 5323SOL     OW27999   2.272   4.718   5.926
 5323SOL    HW128000   2.263   4.702   6.024
 5323SOL    HW228001   2.353   4.670   5.892
 5324SOL     OW28002   2.591   3.559   5.975
 5324SOL    HW128003   2.675   3.506   5.988
 5324SOL    HW228004   2.615   3.654   5.955
 5325SOL     OW28005   5.526   6.875   0.912
 5325SOL    HW128006   5.476   6.899   0.829
 5325SOL    HW228007   5.529   6.953   0.973
 5326SOL     OW28008   3.014   0.072   0.806
 5326SOL    HW128009   2.921   0.079   0.840
 5326SOL    HW228010   3.014   0.023   0.718
 5327SOL     OW28011   5.757   8.224   2.392
 5327SOL    HW128012   5.752   8.126   2.372
 5327SOL    HW228013   5.853   8.251   2.399
 5328SOL     OW28014   6.586   7.972   6.104
 5328SOL    HW128015   6.530   7.892   6.125
 5328SOL    HW228016   6.543   8.025   6.031
 5329SOL     OW28017   8.979   2.716   0.520
 5329SOL    HW128018   9.058   2.721   0.458
 5329SOL    HW228019   8.901   2.762   0.478
 5330SOL     OW28020   3.306   8.361   6.622
 5330SOL    HW128021   3.313   8.298   6.545
 5330SOL    HW228022   3.225   8.419   6.611
 5331SOL     OW28023   2.590   2.353   1.359
 5331SOL    HW128024   2.538   2.415   1.300
 5331SOL    HW228025   2.591   2.262   1.319
 5332SOL     OW28026   1.716   7.664   1.021
 5332SOL    HW128027   1.761   7.640   1.107
 5332SOL    HW228028   1.617   7.650   1.030
 5333SOL     OW28029   2.090   4.623   5.716
 5333SOL    HW128030   2.105   4.620   5.618
 5333SOL    HW228031   2.173   4.657   5.762
 5334SOL     OW28032   2.817   1.890   0.356
 5334SOL    HW128033   2.852   1.816   0.414
 5334SOL    HW228034   2.840   1.871   0.260
 5335SOL     OW28035   8.909   6.217   0.652
 5335SOL    HW128036   8.907   6.118   0.665
 5335SOL    HW228037   8.914   6.263   0.741
 5336SOL     OW28038   5.784   1.112   1.329
 5336SOL    HW128039   5.811   1.147   1.419
 5336SOL    HW228040   5.826   1.023   1.314
 5337SOL     OW28041   6.372   2.195   0.738
 5337SOL    HW128042   6.391   2.191   0.640
 5337SOL    HW228043   6.288   2.144   0.759
 5338SOL     OW28044   2.044   6.211   1.637
 5338SOL    HW128045   2.112   6.138   1.645
 5338SOL    HW228046   1.971   6.181   1.575
 5339SOL     OW28047   3.396   6.699   5.347
 5339SOL    HW128048   3.334   6.771   5.379
 5339SOL    HW228049   3.488   6.736   5.339
 5340SOL     OW28050   7.277   5.388   5.328
 5340SOL    HW128051   7.295   5.357   5.235
 5340SOL    HW228052   7.187   5.432   5.332
 5341SOL     OW28053   6.264   3.651   6.382
 5341SOL    HW128054   6.359   3.620   6.392
 5341SOL    HW228055   6.240   3.653   6.285
 5342SOL     OW28056   0.840   5.462   5.171
 5342SOL    HW128057   0.892   5.490   5.253
 5342SOL    HW228058   0.771   5.395   5.197
 5343SOL     OW28059   4.239   5.675   6.167
 5343SOL    HW128060   4.245   5.770   6.137
 5343SOL    HW228061   4.181   5.623   6.103
 5344SOL     OW28062   0.278   2.042   5.491
 5344SOL    HW128063   0.325   2.055   5.579
 5344SOL    HW228064   0.344   2.048   5.417
 5345SOL     OW28065   9.265   6.560   6.357
 5345SOL    HW128066   9.264   6.481   6.419
 5345SOL    HW228067   9.199   6.628   6.389
 5346SOL     OW28068   1.199   7.008   6.391
 5346SOL    HW128069   1.229   7.103   6.387
 5346SOL    HW228070   1.278   6.947   6.387
 5347SOL     OW28071   6.321   7.417   0.964
 5347SOL    HW128072   6.389   7.388   0.897
 5347SOL    HW228073   6.257   7.481   0.921
 5348SOL     OW28074   4.435   7.826   1.599
 5348SOL    HW128075   4.508   7.833   1.667
 5348SOL    HW228076   4.470   7.777   1.518
 5349SOL     OW28077   9.235   1.448   1.178
 5349SOL    HW128078   9.147   1.492   1.191
 5349SOL    HW228079   9.232   1.355   1.213
 5350SOL     OW28080   1.699   0.932   0.365
 5350SOL    HW128081   1.775   0.994   0.384
 5350SOL    HW228082   1.636   0.976   0.301
 5351SOL     OW28083   9.469   6.596   5.504
 5351SOL    HW128084   9.493   6.689   5.531
 5351SOL    HW228085   9.534   6.532   5.546
 5352SOL     OW28086   2.639   6.369   0.977
 5352SOL    HW128087   2.601   6.295   0.922
 5352SOL    HW228088   2.736   6.380   0.955
 5353SOL     OW28089   5.026   2.849   0.453
 5353SOL    HW128090   5.016   2.752   0.472
 5353SOL    HW228091   4.969   2.874   0.374
 5354SOL     OW28092   1.392   6.838   1.174
 5354SOL    HW128093   1.404   6.740   1.160
 5354SOL    HW228094   1.393   6.858   1.272
 5355SOL     OW28095   3.365   8.140   6.903
 5355SOL    HW128096   3.301   8.126   6.827
 5355SOL    HW228097   3.382   8.238   6.915
 5356SOL     OW28098   7.599   3.862   1.403
 5356SOL    HW128099   7.646   3.941   1.442
 5356SOL    HW228100   7.502   3.864   1.430
 5357SOL     OW28101   2.973   6.614   1.419
 5357SOL    HW128102   2.960   6.593   1.322
 5357SOL    HW228103   2.995   6.711   1.430
 5358SOL     OW28104   4.967   3.829   6.431
 5358SOL    HW128105   4.895   3.768   6.399
 5358SOL    HW228106   5.041   3.832   6.364
 5359SOL     OW28107   7.968   4.994   0.845
 5359SOL    HW128108   7.939   4.983   0.940
 5359SOL    HW228109   7.892   4.971   0.785
 5360SOL     OW28110   3.195   1.794   0.711
 5360SOL    HW128111   3.280   1.807   0.762
 5360SOL    HW228112   3.209   1.822   0.616
 5361SOL     OW28113   0.971   1.437   0.564
 5361SOL    HW128114   0.961   1.494   0.483
 5361SOL    HW228115   0.950   1.491   0.645
 5362SOL     OW28116   3.130   7.293   6.807
 5362SOL    HW128117   3.193   7.333   6.741
 5362SOL    HW228118   3.142   7.336   6.896
 5363SOL     OW28119   3.361   2.697   1.326
 5363SOL    HW128120   3.277   2.712   1.379
 5363SOL    HW228121   3.362   2.604   1.291
 5364SOL     OW28122   1.126   3.614   0.982
 5364SOL    HW128123   1.068   3.539   0.952
 5364SOL    HW228124   1.161   3.595   1.074
 5365SOL     OW28125   5.849   1.853   0.677
 5365SOL    HW128126   5.792   1.809   0.608
 5365SOL    HW228127   5.793   1.880   0.755
 5366SOL     OW28128   8.315   2.954   0.770
 5366SOL    HW128129   8.362   3.030   0.726
 5366SOL    HW228130   8.347   2.945   0.864
 5367SOL     OW28131   9.511   1.556   0.267
 5367SOL    HW128132   9.501   1.472   0.321
 5367SOL    HW228133   9.588   1.547   0.205
 5368SOL     OW28134   5.425   0.151   5.975
 5368SOL    HW128135   5.384   0.233   6.016
 5368SOL    HW228136   5.369   0.071   5.998
 5369SOL     OW28137   4.026   3.449   6.896
 5369SOL    HW128138   4.060   3.382   6.962
 5369SOL    HW228139   3.942   3.415   6.854
 5370SOL     OW28140   5.706   5.525   0.697
 5370SOL    HW128141   5.610   5.497   0.698
 5370SOL    HW228142   5.749   5.499   0.784
 5371SOL     OW28143   6.013   5.529   6.621
 5371SOL    HW128144   6.101   5.482   6.627
 5371SOL    HW228145   5.942   5.473   6.663
 5372SOL     OW28146   4.486   5.061   6.802
 5372SOL    HW128147   4.436   5.146   6.788
 5372SOL    HW228148   4.422   4.988   6.827
 5373SOL     OW28149   2.366   4.148   1.083
 5373SOL    HW128150   2.385   4.183   0.991
 5373SOL    HW228151   2.363   4.225   1.147
 5374SOL     OW28152   4.215   0.674   6.556
 5374SOL    HW128153   4.165   0.756   6.582
 5374SOL    HW228154   4.170   0.593   6.595
 5375SOL     OW28155   2.132   6.793   0.866
 5375SOL    HW128156   2.042   6.806   0.908
 5375SOL    HW228157   2.195   6.753   0.932
 5376SOL     OW28158   8.387   6.317   0.295
 5376SOL    HW128159   8.391   6.306   0.394
 5376SOL    HW228160   8.295   6.344   0.267
 5377SOL     OW28161   3.594   3.040   0.349
 5377SOL    HW128162   3.616   3.002   0.439
 5377SOL    HW228163   3.656   3.116   0.329
 5378SOL     OW28164   1.440   6.276   0.384
 5378SOL    HW128165   1.501   6.201   0.409
 5378SOL    HW228166   1.409   6.323   0.466
 5379SOL     OW28167   1.326   7.112   5.596
 5379SOL    HW128168   1.268   7.122   5.677
 5379SOL    HW228169   1.283   7.050   5.532
 5380SOL     OW28170   0.462   6.753   4.452
 5380SOL    HW128171   0.442   6.830   4.392
 5380SOL    HW228172   0.429   6.774   4.544
 5381SOL     OW28173   1.329   3.257   5.955
 5381SOL    HW128174   1.231   3.270   5.970
 5381SOL    HW228175   1.378   3.340   5.982
 5382SOL     OW28176   4.470   1.692   6.512
 5382SOL    HW128177   4.526   1.657   6.587
 5382SOL    HW228178   4.529   1.714   6.435
 5383SOL     OW28179   7.205   5.990   2.125
 5383SOL    HW128180   7.119   5.965   2.082
 5383SOL    HW228181   7.248   6.065   2.074
 5384SOL     OW28182   4.579   6.712   0.651
 5384SOL    HW128183   4.563   6.764   0.734
 5384SOL    HW228184   4.541   6.761   0.573
 5385SOL     OW28185   3.596   3.731   6.969
 5385SOL    HW128186   3.628   3.715   7.062
 5385SOL    HW228187   3.634   3.817   6.935
 5386SOL     OW28188   2.325   8.186   0.975
 5386SOL    HW128189   2.424   8.183   0.961
 5386SOL    HW228190   2.301   8.144   1.062
 5387SOL     OW28191   0.537   7.958   6.658
 5387SOL    HW128192   0.634   7.949   6.679
 5387SOL    HW228193   0.497   7.867   6.645
 5388SOL     OW28194   5.470   4.368   6.738
 5388SOL    HW128195   5.397   4.406   6.680
 5388SOL    HW228196   5.526   4.305   6.683
 5389SOL     OW28197   3.028   2.395   1.709
 5389SOL    HW128198   3.027   2.324   1.779
 5389SOL    HW228199   2.982   2.477   1.744
 5390SOL     OW28200   5.106   4.181   1.735
 5390SOL    HW128201   5.047   4.100   1.740
 5390SOL    HW228202   5.170   4.170   1.659
 5391SOL     OW28203   2.187   0.072   1.078
 5391SOL    HW128204   2.162   0.154   1.129
 5391SOL    HW228205   2.182  -0.008   1.139
 5392SOL     OW28206   7.544   4.070   1.896
 5392SOL    HW128207   7.616   4.023   1.946
 5392SOL    HW228208   7.551   4.169   1.913
 5393SOL     OW28209   6.775   4.044   6.534
 5393SOL    HW128210   6.822   4.001   6.612
 5393SOL    HW228211   6.780   3.983   6.455
 5394SOL     OW28212   3.920   7.296   6.238
 5394SOL    HW128213   3.980   7.373   6.259
 5394SOL    HW228214   3.909   7.240   6.320
 5395SOL     OW28215   4.827   8.237   1.127
 5395SOL    HW128216   4.742   8.242   1.179
 5395SOL    HW228217   4.904   8.262   1.186
 5396SOL     OW28218   4.070   0.748   6.107
 5396SOL    HW128219   4.114   0.820   6.053
 5396SOL    HW228220   4.018   0.789   6.182
 5397SOL     OW28221   4.094   6.157   5.881
 5397SOL    HW128222   4.050   6.199   5.801
 5397SOL    HW228223   4.106   6.059   5.864
 5398SOL     OW28224   2.883   4.387   1.057
 5398SOL    HW128225   2.981   4.407   1.056
 5398SOL    HW228226   2.858   4.337   0.974
 5399SOL     OW28227   5.139   3.440   6.388
 5399SOL    HW128228   5.149   3.536   6.414
 5399SOL    HW228229   5.093   3.434   6.299
 5400SOL     OW28230   3.221   2.597   0.673
 5400SOL    HW128231   3.229   2.566   0.578
 5400SOL    HW228232   3.308   2.639   0.701
 5401SOL     OW28233   2.758   2.498   1.020
 5401SOL    HW128234   2.792   2.533   0.932
 5401SOL    HW228235   2.720   2.574   1.073
 5402SOL     OW28236   1.518   4.921   6.725
 5402SOL    HW128237   1.466   5.006   6.719
 5402SOL    HW228238   1.538   4.887   6.633
 5403SOL     OW28239   4.640   5.053   5.703
 5403SOL    HW128240   4.637   4.992   5.783
 5403SOL    HW228241   4.647   4.998   5.620
 5404SOL     OW28242   2.670   4.283   5.757
 5404SOL    HW128243   2.663   4.342   5.677
 5404SOL    HW228244   2.670   4.187   5.729
 5405SOL     OW28245   3.469   6.701   1.496
 5405SOL    HW128246   3.397   6.736   1.436
 5405SOL    HW228247   3.432   6.626   1.551
 5406SOL     OW28248   6.177   1.772   1.976
 5406SOL    HW128249   6.148   1.733   1.889
 5406SOL    HW228250   6.258   1.829   1.962
 5407SOL     OW28251   6.257   6.165   2.238
 5407SOL    HW128252   6.196   6.126   2.307
 5407SOL    HW228253   6.341   6.197   2.283
 5408SOL     OW28254   8.738   2.382   6.351
 5408SOL    HW128255   8.677   2.317   6.397
 5408SOL    HW228256   8.684   2.437   6.287
 5409SOL     OW28257   2.718   2.395   5.485
 5409SOL    HW128258   2.692   2.476   5.432
 5409SOL    HW228259   2.671   2.315   5.448
 5410SOL     OW28260   0.514   0.644   5.632
 5410SOL    HW128261   0.600   0.692   5.618
 5410SOL    HW228262   0.438   0.702   5.601
 5411SOL     OW28263   8.262   0.910   1.123
 5411SOL    HW128264   8.209   0.980   1.172
 5411SOL    HW228265   8.351   0.948   1.098
 5412SOL     OW28266   7.884   2.001   1.712
 5412SOL    HW128267   7.857   2.077   1.652
 5412SOL    HW228268   7.951   1.944   1.664
 5413SOL     OW28269   5.249   2.892   1.043
 5413SOL    HW128270   5.345   2.904   1.070
 5413SOL    HW228271   5.199   2.848   1.117
 5414SOL     OW28272   4.725   5.234   2.065
 5414SOL    HW128273   4.763   5.159   2.010
 5414SOL    HW228274   4.735   5.212   2.162
 5415SOL     OW28275   8.257   6.920   5.735
 5415SOL    HW128276   8.204   6.993   5.778
 5415SOL    HW228277   8.232   6.912   5.639
 5416SOL     OW28278   4.934   0.237   6.849
 5416SOL    HW128279   4.981   0.257   6.934
 5416SOL    HW228280   4.855   0.178   6.867
 5417SOL     OW28281   1.388   1.560   6.839
 5417SOL    HW128282   1.457   1.492   6.814
 5417SOL    HW228283   1.410   1.647   6.796
 5418SOL     OW28284   4.052   1.048   1.656
 5418SOL    HW128285   4.021   0.984   1.587
 5418SOL    HW228286   4.150   1.066   1.644
 5419SOL     OW28287   8.688   2.172   1.607
 5419SOL    HW128288   8.720   2.239   1.539
 5419SOL    HW228289   8.710   2.205   1.699
 5420SOL     OW28290   5.120   6.021   5.402
 5420SOL    HW128291   5.083   6.107   5.437
 5420SOL    HW228292   5.199   6.040   5.344
 5421SOL     OW28293   7.578   5.764   6.591
 5421SOL    HW128294   7.609   5.856   6.612
 5421SOL    HW228295   7.531   5.726   6.671
 5422SOL     OW28296   0.713   7.989   5.441
 5422SOL    HW128297   0.748   7.899   5.414
 5422SOL    HW228298   0.752   8.013   5.530
 5423SOL     OW28299   2.575   6.143   6.796
 5423SOL    HW128300   2.600   6.185   6.709
 5423SOL    HW228301   2.595   6.206   6.871
 5424SOL     OW28302   2.389   6.709   5.485
 5424SOL    HW128303   2.410   6.807   5.476
 5424SOL    HW228304   2.367   6.671   5.395
 5425SOL     OW28305   7.305   7.472   6.662
 5425SOL    HW128306   7.222   7.515   6.626
 5425SOL    HW228307   7.385   7.523   6.631
 5426SOL     OW28308   4.749   3.368   6.327
 5426SOL    HW128309   4.824   3.369   6.261
 5426SOL    HW228310   4.678   3.305   6.296
 5427SOL     OW28311   5.917   6.356   5.711
 5427SOL    HW128312   5.993   6.362   5.646
 5427SOL    HW228313   5.873   6.445   5.719
 5428SOL     OW28314   3.627   6.090   5.156
 5428SOL    HW128315   3.649   5.995   5.181
 5428SOL    HW228316   3.709   6.146   5.164
 5429SOL     OW28317   9.594   6.123   5.258
 5429SOL    HW128318   9.655   6.202   5.254
 5429SOL    HW228319   9.502   6.150   5.229
 5430SOL     OW28320   0.694   4.831   1.129
 5430SOL    HW128321   0.767   4.892   1.160
 5430SOL    HW228322   0.729   4.769   1.059
 5431SOL     OW28323   3.727   4.445   1.298
 5431SOL    HW128324   3.638   4.416   1.263
 5431SOL    HW228325   3.785   4.365   1.312
 5432SOL     OW28326   5.281   2.277   1.100
 5432SOL    HW128327   5.269   2.362   1.049
 5432SOL    HW228328   5.208   2.268   1.168
 5433SOL     OW28329   1.403   0.498   1.174
 5433SOL    HW128330   1.427   0.417   1.121
 5433SOL    HW228331   1.327   0.477   1.235
 5434SOL     OW28332   1.763   5.586   5.046
 5434SOL    HW128333   1.711   5.640   4.981
 5434SOL    HW228334   1.708   5.508   5.077
 5435SOL     OW28335   0.579   6.862   6.740
 5435SOL    HW128336   0.530   6.807   6.807
 5435SOL    HW228337   0.520   6.937   6.709
 5436SOL     OW28338   5.314  -0.043   6.417
 5436SOL    HW128339   5.304  -0.128   6.366
 5436SOL    HW228340   5.228   0.007   6.417
 5437SOL     OW28341   2.446   0.475   0.744
 5437SOL    HW128342   2.440   0.485   0.844
 5437SOL    HW228343   2.436   0.378   0.720
 5438SOL     OW28344   4.233   3.002   0.664
 5438SOL    HW128345   4.286   3.053   0.597
 5438SOL    HW228346   4.295   2.949   0.722
 5439SOL     OW28347   3.072   6.487   0.814
 5439SOL    HW128348   3.018   6.424   0.870
 5439SOL    HW228349   3.169   6.472   0.831
 5440SOL     OW28350   2.781   1.493   0.790
 5440SOL    HW128351   2.871   1.530   0.815
 5440SOL    HW228352   2.793   1.414   0.730
 5441SOL     OW28353   1.467   0.592   4.967
 5441SOL    HW128354   1.419   0.506   4.984
 5441SOL    HW228355   1.418   0.643   4.896
 5442SOL     OW28356   3.806   2.511   5.463
 5442SOL    HW128357   3.842   2.604   5.451
 5442SOL    HW228358   3.807   2.464   5.375
 5443SOL     OW28359   5.414   6.119   6.592
 5443SOL    HW128360   5.512   6.118   6.612
 5443SOL    HW228361   5.365   6.066   6.661
 5444SOL     OW28362   4.128   7.443   0.675
 5444SOL    HW128363   4.203   7.502   0.704
 5444SOL    HW228364   4.165   7.362   0.630
 5445SOL     OW28365   6.960   2.280   0.469
 5445SOL    HW128366   6.883   2.307   0.528
 5445SOL    HW228367   7.046   2.296   0.517
 5446SOL     OW28368   3.459   7.686   6.831
 5446SOL    HW128369   3.393   7.699   6.905
 5446SOL    HW228370   3.505   7.598   6.844
 5447SOL     OW28371   3.901   1.079   6.098
 5447SOL    HW128372   3.938   1.025   6.174
 5447SOL    HW228373   3.801   1.067   6.094
 5448SOL     OW28374   1.262   2.447   1.488
 5448SOL    HW128375   1.196   2.509   1.447
 5448SOL    HW228376   1.236   2.428   1.583
 5449SOL     OW28377   1.519   2.385   6.514
 5449SOL    HW128378   1.500   2.471   6.562
 5449SOL    HW228379   1.451   2.317   6.541
 5450SOL     OW28380   2.841   2.915   6.527
 5450SOL    HW128381   2.832   3.010   6.556
 5450SOL    HW228382   2.757   2.865   6.551
 5451SOL     OW28383   8.591   0.389   0.355
 5451SOL    HW128384   8.505   0.339   0.371
 5451SOL    HW228385   8.612   0.387   0.257
 5452SOL     OW28386   6.462   5.149   5.818
 5452SOL    HW128387   6.407   5.082   5.768
 5452SOL    HW228388   6.510   5.208   5.754
 5453SOL     OW28389   5.816   0.050   6.546
 5453SOL    HW128390   5.758   0.095   6.615
 5453SOL    HW228391   5.908   0.039   6.583
 5454SOL     OW28392   2.173   3.906   6.154
 5454SOL    HW128393   2.241   3.877   6.087
 5454SOL    HW228394   2.127   3.825   6.191
 5455SOL     OW28395   1.517   7.167   5.782
 5455SOL    HW128396   1.510   7.261   5.816
 5455SOL    HW228397   1.471   7.160   5.693
 5456SOL     OW28398   2.525   0.847   5.994
 5456SOL    HW128399   2.517   0.913   5.919
 5456SOL    HW228400   2.596   0.878   6.057
 5457SOL     OW28401   5.754   1.141   1.645
 5457SOL    HW128402   5.696   1.213   1.683
 5457SOL    HW228403   5.703   1.055   1.645
 5458SOL     OW28404   6.021   5.019   1.973
 5458SOL    HW128405   6.067   5.106   1.957
 5458SOL    HW228406   6.016   5.002   2.072
 5459SOL     OW28407   8.195   8.191   5.782
 5459SOL    HW128408   8.294   8.204   5.783
 5459SOL    HW228409   8.156   8.235   5.701
 5460SOL     OW28410   6.999   2.386   1.401
 5460SOL    HW128411   7.027   2.364   1.308
 5460SOL    HW228412   6.914   2.338   1.423
 5461SOL     OW28413   6.764   7.773   0.689
 5461SOL    HW128414   6.674   7.816   0.699
 5461SOL    HW228415   6.832   7.843   0.672
 5462SOL     OW28416   2.450   2.471   6.374
 5462SOL    HW128417   2.396   2.410   6.431
 5462SOL    HW228418   2.537   2.492   6.421
 5463SOL     OW28419   8.781   6.694   4.845
 5463SOL    HW128420   8.835   6.725   4.766
 5463SOL    HW228421   8.751   6.600   4.831
 5464SOL     OW28422   8.472   7.600   6.416
 5464SOL    HW128423   8.474   7.524   6.351
 5464SOL    HW228424   8.423   7.572   6.499
 5465SOL     OW28425   7.006   1.176   6.156
 5465SOL    HW128426   7.087   1.203   6.103
 5465SOL    HW228427   6.939   1.134   6.094
 5466SOL     OW28428   1.219   0.879   0.664
 5466SOL    HW128429   1.178   0.955   0.613
 5466SOL    HW228430   1.304   0.851   0.619
 5467SOL     OW28431   7.010   4.259   5.535
 5467SOL    HW128432   7.016   4.276   5.436
 5467SOL    HW228433   6.987   4.164   5.551
 5468SOL     OW28434   9.395   4.078   6.526
 5468SOL    HW128435   9.319   4.132   6.563
 5468SOL    HW228436   9.381   4.063   6.428
 5469SOL     OW28437   2.455   4.890   5.224
 5469SOL    HW128438   2.549   4.870   5.195
 5469SOL    HW228439   2.392   4.831   5.173
 5470SOL     OW28440   9.333   6.229   5.179
 5470SOL    HW128441   9.381   6.255   5.095
 5470SOL    HW228442   9.237   6.209   5.158
 5471SOL     OW28443   1.004   4.845   5.372
 5471SOL    HW128444   1.089   4.800   5.397
 5471SOL    HW228445   0.970   4.807   5.286
 5472SOL     OW28446   4.605   0.140   2.203
 5472SOL    HW128447   4.555   0.220   2.171
 5472SOL    HW228448   4.677   0.169   2.266
 5473SOL     OW28449   5.059   6.425   5.551
 5473SOL    HW128450   5.143   6.377   5.576
 5473SOL    HW228451   5.001   6.364   5.496
 5474SOL     OW28452   0.668   4.551   1.468
 5474SOL    HW128453   0.699   4.486   1.538
 5474SOL    HW228454   0.701   4.642   1.491
 5475SOL     OW28455   3.998   7.395   5.386
 5475SOL    HW128456   4.006   7.432   5.294
 5475SOL    HW228457   4.015   7.297   5.384
 5476SOL     OW28458   2.225   4.592   6.304
 5476SOL    HW128459   2.184   4.592   6.395
 5476SOL    HW228460   2.254   4.685   6.280
 5477SOL     OW28461   8.013   1.744   1.692
 5477SOL    HW128462   7.997   1.663   1.750
 5477SOL    HW228463   8.085   1.800   1.732
 5478SOL     OW28464   6.090   1.778   6.834
 5478SOL    HW128465   6.171   1.818   6.878
 5478SOL    HW228466   6.085   1.809   6.739
 5479SOL     OW28467   5.741   5.922   1.150
 5479SOL    HW128468   5.709   6.014   1.129
 5479SOL    HW228469   5.833   5.926   1.189
 5480SOL     OW28470   3.262   4.243   0.444
 5480SOL    HW128471   3.325   4.318   0.425
 5480SOL    HW228472   3.181   4.252   0.386
 5481SOL     OW28473   7.093   2.039   6.459
 5481SOL    HW128474   7.090   1.975   6.536
 5481SOL    HW228475   7.117   1.990   6.375
 5482SOL     OW28476   1.001   3.147   6.598
 5482SOL    HW128477   1.014   3.049   6.611
 5482SOL    HW228478   0.930   3.180   6.662
 5483SOL     OW28479   5.801   7.107   5.576
 5483SOL    HW128480   5.798   7.186   5.514
 5483SOL    HW228481   5.897   7.084   5.594
 5484SOL     OW28482   1.567   4.784   0.518
 5484SOL    HW128483   1.547   4.770   0.421
 5484SOL    HW228484   1.649   4.840   0.527
 5485SOL     OW28485   4.167   6.988   1.464
 5485SOL    HW128486   4.110   6.922   1.416
 5485SOL    HW228487   4.180   7.069   1.407
 5486SOL     OW28488   4.240   1.751   5.780
 5486SOL    HW128489   4.309   1.689   5.742
 5486SOL    HW228490   4.167   1.764   5.713
 5487SOL     OW28491   4.254   7.134   6.967
 5487SOL    HW128492   4.340   7.086   6.950
 5487SOL    HW228493   4.219   7.171   6.881
 5488SOL     OW28494   2.404   0.143   2.095
 5488SOL    HW128495   2.372   0.198   2.172
 5488SOL    HW228496   2.436   0.055   2.128
 5489SOL     OW28497   0.284   5.878   0.386
 5489SOL    HW128498   0.239   5.794   0.356
 5489SOL    HW228499   0.380   5.860   0.405
 5490SOL     OW28500   1.319   7.319   1.219
 5490SOL    HW128501   1.285   7.279   1.304
 5490SOL    HW228502   1.243   7.329   1.154
 5491SOL     OW28503   6.208   5.241   0.774
 5491SOL    HW128504   6.243   5.251   0.680
 5491SOL    HW228505   6.187   5.331   0.811
 5492SOL     OW28506   7.646   6.928   0.839
 5492SOL    HW128507   7.615   6.963   0.927
 5492SOL    HW228508   7.739   6.893   0.848
 5493SOL     OW28509   7.518   8.253   1.144
 5493SOL    HW128510   7.470   8.280   1.228
 5493SOL    HW228511   7.479   8.302   1.066
 5494SOL     OW28512   1.182   1.747   2.037
 5494SOL    HW128513   1.163   1.782   1.945
 5494SOL    HW228514   1.240   1.812   2.086
 5495SOL     OW28515   1.159   1.914   6.212
 5495SOL    HW128516   1.183   2.003   6.251
 5495SOL    HW228517   1.198   1.906   6.120
 5496SOL     OW28518   4.822   3.122   0.675
 5496SOL    HW128519   4.820   3.096   0.771
 5496SOL    HW228520   4.885   3.198   0.662
 5497SOL     OW28521   7.032   6.212   6.685
 5497SOL    HW128522   7.040   6.232   6.783
 5497SOL    HW228523   6.937   6.192   6.663
 5498SOL     OW28524   7.530   0.293   6.642
 5498SOL    HW128525   7.431   0.291   6.626
 5498SOL    HW228526   7.562   0.201   6.666
 5499SOL     OW28527   2.466   6.971   5.485
 5499SOL    HW128528   2.407   7.046   5.457
 5499SOL    HW228529   2.544   6.964   5.422
 5500SOL     OW28530   6.106   1.200   5.807
 5500SOL    HW128531   6.041   1.141   5.758
 5500SOL    HW228532   6.195   1.154   5.813
 5501SOL     OW28533   3.324   0.469   0.559
 5501SOL    HW128534   3.256   0.399   0.580
 5501SOL    HW228535   3.372   0.444   0.475
 5502SOL     OW28536   6.046   2.992   5.791
 5502SOL    HW128537   5.999   2.904   5.782
 5502SOL    HW228538   6.007   3.057   5.725
 5503SOL     OW28539   8.140   2.565   6.531
 5503SOL    HW128540   8.202   2.575   6.454
 5503SOL    HW228541   8.179   2.611   6.611
 5504SOL     OW28542   0.641   0.813   0.986
 5504SOL    HW128543   0.695   0.873   0.927
 5504SOL    HW228544   0.590   0.748   0.929
 5505SOL     OW28545   6.839   5.538   0.560
 5505SOL    HW128546   6.813   5.458   0.615
 5505SOL    HW228547   6.872   5.508   0.471
 5506SOL     OW28548   6.680   0.100   1.091
 5506SOL    HW128549   6.757   0.094   1.154
 5506SOL    HW228550   6.651   0.008   1.065
 5507SOL     OW28551   1.148   6.333   5.563
 5507SOL    HW128552   1.243   6.360   5.575
 5507SOL    HW228553   1.135   6.241   5.600
 5508SOL     OW28554   1.146   7.396   1.024
 5508SOL    HW128555   1.056   7.353   1.023
 5508SOL    HW228556   1.173   7.419   0.930
 5509SOL     OW28557   5.909   1.718   2.298
 5509SOL    HW128558   5.969   1.643   2.323
 5509SOL    HW228559   5.814   1.687   2.299
 5510SOL     OW28560   8.992   1.530   1.302
 5510SOL    HW128561   8.965   1.626   1.309
 5510SOL    HW228562   8.916   1.471   1.330
 5511SOL     OW28563   3.037   2.794   6.709
 5511SOL    HW128564   2.965   2.830   6.649
 5511SOL    HW228565   3.096   2.732   6.657
 5512SOL     OW28566   9.531   7.725   6.666
 5512SOL    HW128567   9.486   7.755   6.750
 5512SOL    HW228568   9.540   7.803   6.603
 5513SOL     OW28569   0.897   4.487   0.545
 5513SOL    HW128570   0.833   4.485   0.622
 5513SOL    HW228571   0.889   4.402   0.494
 5514SOL     OW28572   5.567   7.837   6.079
 5514SOL    HW128573   5.493   7.874   6.023
 5514SOL    HW228574   5.637   7.908   6.092
 5515SOL     OW28575   3.448   8.230   1.236
 5515SOL    HW128576   3.356   8.236   1.275
 5515SOL    HW228577   3.479   8.321   1.208
 5516SOL     OW28578   0.949   1.348   6.746
 5516SOL    HW128579   0.925   1.439   6.710
 5516SOL    HW228580   1.047   1.332   6.733
 5517SOL     OW28581   1.285   2.408   0.766
 5517SOL    HW128582   1.283   2.507   0.782
 5517SOL    HW228583   1.375   2.372   0.791
 5518SOL     OW28584   3.354   2.125   1.184
 5518SOL    HW128585   3.345   2.194   1.113
 5518SOL    HW228586   3.372   2.169   1.272
 5519SOL     OW28587   2.895   7.445   1.205
 5519SOL    HW128588   2.960   7.403   1.269
 5519SOL    HW228589   2.834   7.506   1.255
 5520SOL     OW28590   1.103   6.014   0.521
 5520SOL    HW128591   1.036   6.056   0.582
 5520SOL    HW228592   1.076   6.027   0.426
 5521SOL     OW28593   1.803   6.396   1.043
 5521SOL    HW128594   1.792   6.445   0.957
 5521SOL    HW228595   1.713   6.376   1.082
 5522SOL     OW28596   1.552   8.325   0.410
 5522SOL    HW128597   1.478   8.324   0.343
 5522SOL    HW228598   1.534   8.256   0.481
 5523SOL     OW28599   6.663   7.929   1.775
 5523SOL    HW128600   6.718   7.847   1.762
 5523SOL    HW228601   6.636   7.938   1.871
 5524SOL     OW28602   2.932   5.473   5.820
 5524SOL    HW128603   2.929   5.448   5.724
 5524SOL    HW228604   2.993   5.410   5.869
 5525SOL     OW28605   9.459   7.494   5.115
 5525SOL    HW128606   9.460   7.578   5.169
 5525SOL    HW228607   9.365   7.459   5.109
 5526SOL     OW28608   8.173   6.509   0.633
 5526SOL    HW128609   8.160   6.432   0.696
 5526SOL    HW228610   8.119   6.493   0.550
 5527SOL     OW28611   1.169   7.911   1.421
 5527SOL    HW128612   1.152   7.932   1.517
 5527SOL    HW228613   1.232   7.833   1.415
 5528SOL     OW28614   4.014   6.319   1.362
 5528SOL    HW128615   3.957   6.249   1.406
 5528SOL    HW228616   4.106   6.282   1.346
 5529SOL     OW28617   6.110   7.671   5.805
 5529SOL    HW128618   6.034   7.609   5.825
 5529SOL    HW228619   6.121   7.679   5.706
 5530SOL     OW28620   2.189   8.010   0.671
 5530SOL    HW128621   2.178   7.920   0.628
 5530SOL    HW228622   2.285   8.037   0.666
 5531SOL     OW28623   0.539   0.594   6.801
 5531SOL    HW128624   0.631   0.633   6.806
 5531SOL    HW228625   0.508   0.570   6.893
 5532SOL     OW28626   5.008   8.118   5.219
 5532SOL    HW128627   4.954   8.202   5.233
 5532SOL    HW228628   4.950   8.038   5.233
 5533SOL     OW28629   5.373   7.182   6.727
 5533SOL    HW128630   5.384   7.092   6.768
 5533SOL    HW228631   5.279   7.193   6.696
 5534SOL     OW28632   5.067   5.468   5.757
 5534SOL    HW128633   5.062   5.399   5.684
 5534SOL    HW228634   5.106   5.552   5.721
 5535SOL     OW28635   7.782   4.853   0.407
 5535SOL    HW128636   7.858   4.793   0.432
 5535SOL    HW228637   7.802   4.899   0.321
 5536SOL     OW28638   7.940   0.547   6.251
 5536SOL    HW128639   7.945   0.448   6.235
 5536SOL    HW228640   7.859   0.584   6.206
 5537SOL     OW28641   4.322   0.362   6.546
 5537SOL    HW128642   4.256   0.292   6.518
 5537SOL    HW228643   4.373   0.394   6.466
 5538SOL     OW28644   2.744   1.014   0.329
 5538SOL    HW128645   2.728   1.063   0.415
 5538SOL    HW228646   2.656   0.983   0.292
 5539SOL     OW28647   0.980   6.403   1.157
 5539SOL    HW128648   0.908   6.432   1.093
 5539SOL    HW228649   0.997   6.475   1.224
 5540SOL     OW28650   0.591   7.430   4.694
 5540SOL    HW128651   0.639   7.518   4.696
 5540SOL    HW228652   0.518   7.434   4.626
 5541SOL     OW28653   6.347   6.943   1.121
 5541SOL    HW128654   6.299   6.857   1.104
 5541SOL    HW228655   6.317   7.011   1.054
 5542SOL     OW28656   7.082   7.162   6.833
 5542SOL    HW128657   7.056   7.258   6.827
 5542SOL    HW228658   7.107   7.140   6.928
 5543SOL     OW28659   5.612   5.273   6.690
 5543SOL    HW128660   5.620   5.298   6.786
 5543SOL    HW228661   5.625   5.174   6.680
 5544SOL     OW28662   5.298   7.423   1.525
 5544SOL    HW128663   5.365   7.424   1.599
 5544SOL    HW228664   5.247   7.337   1.527
 5545SOL     OW28665   7.247   1.575   6.175
 5545SOL    HW128666   7.168   1.568   6.114
 5545SOL    HW228667   7.328   1.595   6.121
 5546SOL     OW28668   5.520   6.587   2.347
 5546SOL    HW128669   5.453   6.655   2.377
 5546SOL    HW228670   5.611   6.615   2.377
 5547SOL     OW28671   6.996   4.160   1.268
 5547SOL    HW128672   6.931   4.174   1.342
 5547SOL    HW228673   7.022   4.248   1.228
 5548SOL     OW28674   5.458   1.330   6.943
 5548SOL    HW128675   5.459   1.275   7.026
 5548SOL    HW228676   5.422   1.421   6.964
 5549SOL     OW28677   5.325   0.191   1.621
 5549SOL    HW128678   5.320   0.282   1.662
 5549SOL    HW228679   5.316   0.122   1.692
 5550SOL     OW28680   8.769   1.489   5.983
 5550SOL    HW128681   8.702   1.449   6.044
 5550SOL    HW228682   8.723   1.527   5.903
 5551SOL     OW28683   3.599   8.324   6.166
 5551SOL    HW128684   3.532   8.363   6.230
 5551SOL    HW228685   3.689   8.323   6.210
 5552SOL     OW28686   6.443   6.510   6.658
 5552SOL    HW128687   6.409   6.434   6.713
 5552SOL    HW228688   6.526   6.481   6.609
 5553SOL     OW28689   9.528   5.782   6.961
 5553SOL    HW128690   9.551   5.880   6.956
 5553SOL    HW228691   9.512   5.757   7.057
 5554SOL     OW28692   4.758   4.305   0.911
 5554SOL    HW128693   4.822   4.297   0.987
 5554SOL    HW228694   4.797   4.365   0.841
 5555SOL     OW28695   7.278   6.625   2.047
 5555SOL    HW128696   7.339   6.563   2.097
 5555SOL    HW228697   7.224   6.678   2.112
 5556SOL     OW28698   3.094   5.304   5.943
 5556SOL    HW128699   3.134   5.212   5.934
 5556SOL    HW228700   3.134   5.350   6.022
 5557SOL     OW28701   2.720   2.756   6.251
 5557SOL    HW128702   2.726   2.676   6.190
 5557SOL    HW228703   2.695   2.726   6.343
 5558SOL     OW28704   2.007   4.797   0.712
 5558SOL    HW128705   2.035   4.764   0.622
 5558SOL    HW228706   1.966   4.888   0.703
 5559SOL     OW28707   9.089   6.777   0.946
 5559SOL    HW128708   9.014   6.832   0.982
 5559SOL    HW228709   9.176   6.818   0.974
 5560SOL     OW28710   0.797   7.273   1.303
 5560SOL    HW128711   0.793   7.335   1.224
 5560SOL    HW228712   0.705   7.239   1.323
 5561SOL     OW28713   5.404   3.950   0.704
 5561SOL    HW128714   5.384   3.916   0.612
 5561SOL    HW228715   5.318   3.970   0.752
 5562SOL     OW28716   5.293   2.475   6.726
 5562SOL    HW128717   5.384   2.456   6.761
 5562SOL    HW228718   5.228   2.407   6.761
 5563SOL     OW28719   2.611   4.687   1.385
 5563SOL    HW128720   2.562   4.661   1.302
 5563SOL    HW228721   2.579   4.776   1.417
 5564SOL     OW28722   2.159   5.061   6.446
 5564SOL    HW128723   2.118   5.152   6.447
 5564SOL    HW228724   2.117   5.006   6.374
 5565SOL     OW28725   3.076   6.968   1.362
 5565SOL    HW128726   3.148   7.036   1.376
 5565SOL    HW228727   3.038   6.942   1.451
 5566SOL     OW28728   4.475   1.223   0.717
 5566SOL    HW128729   4.543   1.253   0.650
 5566SOL    HW228730   4.396   1.285   0.715
 5567SOL     OW28731   5.402   6.922   6.889
 5567SOL    HW128732   5.384   6.844   6.829
 5567SOL    HW228733   5.500   6.927   6.909
 5568SOL     OW28734   6.197   8.080   6.862
 5568SOL    HW128735   6.156   7.990   6.877
 5568SOL    HW228736   6.274   8.092   6.924
 5569SOL     OW28737   9.543   2.177   5.548
 5569SOL    HW128738   9.484   2.166   5.468
 5569SOL    HW228739   9.624   2.118   5.539
 5570SOL     OW28740   3.780   4.136   0.468
 5570SOL    HW128741   3.691   4.092   0.481
 5570SOL    HW228742   3.775   4.198   0.390
 5571SOL     OW28743   2.417   5.611   5.208
 5571SOL    HW128744   2.510   5.602   5.171
 5571SOL    HW228745   2.401   5.707   5.233
 5572SOL     OW28746   2.621   6.237   6.312
 5572SOL    HW128747   2.603   6.277   6.222
 5572SOL    HW228748   2.575   6.149   6.319
 5573SOL     OW28749   2.907   7.211   1.890
 5573SOL    HW128750   2.916   7.267   1.808
 5573SOL    HW228751   2.872   7.268   1.965
 5574SOL     OW28752   3.233   2.286   5.904
 5574SOL    HW128753   3.229   2.196   5.861
 5574SOL    HW228754   3.226   2.357   5.833
 5575SOL     OW28755   4.849   0.296   1.121
 5575SOL    HW128756   4.920   0.352   1.078
 5575SOL    HW228757   4.765   0.302   1.067
 5576SOL     OW28758   9.409   0.802   1.052
 5576SOL    HW128759   9.390   0.796   1.150
 5576SOL    HW228760   9.400   0.711   1.011
 5577SOL     OW28761   4.253   4.575   6.650
 5577SOL    HW128762   4.216   4.638   6.581
 5577SOL    HW228763   4.180   4.549   6.714
 5578SOL     OW28764   3.469   6.017   1.248
 5578SOL    HW128765   3.444   6.061   1.335
 5578SOL    HW228766   3.406   6.044   1.177
 5579SOL     OW28767   3.206   2.902   1.647
 5579SOL    HW128768   3.152   2.883   1.729
 5579SOL    HW228769   3.303   2.887   1.667
 5580SOL     OW28770   7.191   4.636   0.738
 5580SOL    HW128771   7.098   4.664   0.715
 5580SOL    HW228772   7.255   4.676   0.672
 5581SOL     OW28773   7.427   6.474   5.275
 5581SOL    HW128774   7.494   6.507   5.210
 5581SOL    HW228775   7.345   6.444   5.226
 5582SOL     OW28776   2.188   6.109   0.691
 5582SOL    HW128777   2.201   6.072   0.598
 5582SOL    HW228778   2.258   6.178   0.709
 5583SOL     OW28779   6.942   5.196   5.398
 5583SOL    HW128780   6.940   5.278   5.454
 5583SOL    HW228781   7.014   5.205   5.328
 5584SOL     OW28782   4.266   7.579   6.874
 5584SOL    HW128783   4.190   7.514   6.884
 5584SOL    HW228784   4.261   7.648   6.946
 5585SOL     OW28785   1.897   8.391   1.542
 5585SOL    HW128786   1.984   8.342   1.541
 5585SOL    HW228787   1.822   8.324   1.534
 5586SOL     OW28788   0.815   3.232   5.983
 5586SOL    HW128789   0.884   3.227   6.056
 5586SOL    HW228790   0.812   3.144   5.935
 5587SOL     OW28791   0.686   7.312   4.165
 5587SOL    HW128792   0.782   7.314   4.193
 5587SOL    HW228793   0.635   7.382   4.215
 5588SOL     OW28794   5.510   1.828   1.862
 5588SOL    HW128795   5.459   1.912   1.841
 5588SOL    HW228796   5.446   1.751   1.864
 5589SOL     OW28797   3.688   2.431   6.249
 5589SOL    HW128798   3.623   2.411   6.322
 5589SOL    HW228799   3.663   2.379   6.167
 5590SOL     OW28800   6.481   2.601   6.164
 5590SOL    HW128801   6.400   2.542   6.162
 5590SOL    HW228802   6.562   2.549   6.139
 5591SOL     OW28803   6.094   8.377   0.953
 5591SOL    HW128804   6.006   8.422   0.937
 5591SOL    HW228805   6.079   8.282   0.978
 5592SOL     OW28806   5.413   1.477   1.173
 5592SOL    HW128807   5.424   1.378   1.177
 5592SOL    HW228808   5.460   1.513   1.093
 5593SOL     OW28809   1.181   2.431   6.686
 5593SOL    HW128810   1.193   2.441   6.785
 5593SOL    HW228811   1.244   2.361   6.652
 5594SOL     OW28812   1.802   4.581   6.163
 5594SOL    HW128813   1.729   4.600   6.228
 5594SOL    HW228814   1.778   4.619   6.073
 5595SOL     OW28815   3.549   7.421   6.796
 5595SOL    HW128816   3.471   7.393   6.740
 5595SOL    HW228817   3.562   7.355   6.870
 5596SOL     OW28818   1.278   2.796   0.291
 5596SOL    HW128819   1.312   2.854   0.217
 5596SOL    HW228820   1.352   2.739   0.325
 5597SOL     OW28821   3.150   7.785   5.574
 5597SOL    HW128822   3.241   7.827   5.573
 5597SOL    HW228823   3.110   7.792   5.483
 5598SOL     OW28824   3.015   7.078   0.744
 5598SOL    HW128825   3.040   7.012   0.674
 5598SOL    HW228826   2.924   7.057   0.780
 5599SOL     OW28827   0.360   2.354   5.779
 5599SOL    HW128828   0.311   2.279   5.823
 5599SOL    HW228829   0.455   2.329   5.766
 5600SOL     OW28830   0.368   8.113   0.904
 5600SOL    HW128831   0.348   8.126   0.807
 5600SOL    HW228832   0.351   8.018   0.929
 5601SOL     OW28833   1.923   3.458   5.560
 5601SOL    HW128834   1.945   3.416   5.648
 5601SOL    HW228835   1.939   3.392   5.487
 5602SOL     OW28836   7.834   1.552   0.420
 5602SOL    HW128837   7.747   1.601   0.409
 5602SOL    HW228838   7.906   1.616   0.445
 5603SOL     OW28839   3.234   4.140   6.417
 5603SOL    HW128840   3.171   4.071   6.451
 5603SOL    HW228841   3.257   4.204   6.490
 5604SOL     OW28842   5.287   3.204   1.693
 5604SOL    HW128843   5.260   3.242   1.781
 5604SOL    HW228844   5.373   3.155   1.703
 5605SOL     OW28845   1.938   2.149   6.622
 5605SOL    HW128846   1.893   2.217   6.565
 5605SOL    HW228847   1.941   2.180   6.717
 5606SOL     OW28848   4.012   6.710   1.651
 5606SOL    HW128849   4.016   6.634   1.716
 5606SOL    HW228850   4.024   6.674   1.558
 5607SOL     OW28851   7.635   0.822   0.756
 5607SOL    HW128852   7.701   0.756   0.793
 5607SOL    HW228853   7.656   0.913   0.791
 5608SOL     OW28854   5.363   2.343   2.185
 5608SOL    HW128855   5.457   2.334   2.219
 5608SOL    HW228856   5.300   2.351   2.262
 5609SOL     OW28857   2.578   2.890   5.856
 5609SOL    HW128858   2.569   2.854   5.763
 5609SOL    HW228859   2.666   2.937   5.865
 5610SOL     OW28860   5.249   8.125   6.766
 5610SOL    HW128861   5.342   8.112   6.732
 5610SOL    HW228862   5.223   8.221   6.755
 5611SOL     OW28863   5.302   4.891   5.814
 5611SOL    HW128864   5.344   4.979   5.837
 5611SOL    HW228865   5.209   4.905   5.780
 5612SOL     OW28866   8.313   1.034   6.912
 5612SOL    HW128867   8.373   0.973   6.860
 5612SOL    HW228868   8.345   1.037   7.007
 5613SOL     OW28869   8.386   3.688   0.398
 5613SOL    HW128870   8.345   3.655   0.483
 5613SOL    HW228871   8.406   3.610   0.338
 5614SOL     OW28872   3.429   0.369   0.792
 5614SOL    HW128873   3.416   0.271   0.780
 5614SOL    HW228874   3.385   0.418   0.717
 5615SOL     OW28875   3.354   7.713   6.584
 5615SOL    HW128876   3.389   7.690   6.675
 5615SOL    HW228877   3.303   7.635   6.548
 5616SOL     OW28878   6.576   7.208   5.539
 5616SOL    HW128879   6.480   7.188   5.561
 5616SOL    HW228880   6.607   7.146   5.467
 5617SOL     OW28881   3.694   5.259   1.597
 5617SOL    HW128882   3.729   5.352   1.584
 5617SOL    HW228883   3.671   5.245   1.693
 5618SOL     OW28884   5.418   6.369   6.203
 5618SOL    HW128885   5.337   6.423   6.222
 5618SOL    HW228886   5.394   6.272   6.204
 5619SOL     OW28887   9.080   2.109   5.330
 5619SOL    HW128888   8.985   2.124   5.305
 5619SOL    HW228889   9.098   2.149   5.420
 5620SOL     OW28890   6.457   8.176   6.588
 5620SOL    HW128891   6.384   8.232   6.628
 5620SOL    HW228892   6.545   8.207   6.623
 5621SOL     OW28893   2.342   0.641   6.031
 5621SOL    HW128894   2.335   0.592   5.944
 5621SOL    HW228895   2.422   0.701   6.029
 5622SOL     OW28896   4.250   3.762   6.747
 5622SOL    HW128897   4.280   3.672   6.778
 5622SOL    HW228898   4.278   3.777   6.652
 5623SOL     OW28899   2.557   2.628   5.304
 5623SOL    HW128900   2.656   2.640   5.307
 5623SOL    HW228901   2.519   2.680   5.227
 5624SOL     OW28902   2.021   0.011   6.512
 5624SOL    HW128903   2.055   0.074   6.581
 5624SOL    HW228904   2.089   0.002   6.439
 5625SOL     OW28905   5.479   8.243   2.376
 5625SOL    HW128906   5.578   8.248   2.387
 5625SOL    HW228907   5.438   8.331   2.399
 5626SOL     OW28908   3.512   6.792   6.051
 5626SOL    HW128909   3.494   6.695   6.035
 5626SOL    HW228910   3.432   6.846   6.025
 5627SOL     OW28911   5.351   2.034   1.009
 5627SOL    HW128912   5.331   2.120   1.056
 5627SOL    HW228913   5.357   1.960   1.077
 5628SOL     OW28914   6.724   1.799   1.862
 5628SOL    HW128915   6.710   1.801   1.960
 5628SOL    HW228916   6.647   1.753   1.818
 5629SOL     OW28917   6.453   3.423   6.692
 5629SOL    HW128918   6.482   3.518   6.684
 5629SOL    HW228919   6.533   3.364   6.703
 5630SOL     OW28920   2.230   6.583   6.724
 5630SOL    HW128921   2.175   6.645   6.668
 5630SOL    HW228922   2.170   6.516   6.768
 5631SOL     OW28923   4.128   0.462   0.515
 5631SOL    HW128924   4.223   0.485   0.496
 5631SOL    HW228925   4.112   0.366   0.492
 5632SOL     OW28926   6.940   7.140   1.980
 5632SOL    HW128927   6.900   7.050   1.965
 5632SOL    HW228928   7.016   7.133   2.046
 5633SOL     OW28929   8.300   4.315   5.924
 5633SOL    HW128930   8.242   4.234   5.913
 5633SOL    HW228931   8.387   4.288   5.964
 5634SOL     OW28932   1.356   7.919   6.524
 5634SOL    HW128933   1.389   7.933   6.431
 5634SOL    HW228934   1.411   7.848   6.568
 5635SOL     OW28935   5.313   0.926   6.693
 5635SOL    HW128936   5.411   0.946   6.698
 5635SOL    HW228937   5.277   0.915   6.786
 5636SOL     OW28938   6.428   3.849   1.323
 5636SOL    HW128939   6.470   3.929   1.282
 5636SOL    HW228940   6.347   3.823   1.271
 5637SOL     OW28941   6.703   0.539   1.597
 5637SOL    HW128942   6.786   0.484   1.598
 5637SOL    HW228943   6.659   0.537   1.686
 5638SOL     OW28944   6.070   4.417   1.587
 5638SOL    HW128945   6.120   4.464   1.660
 5638SOL    HW228946   6.091   4.319   1.591
 5639SOL     OW28947   3.298   2.513   6.079
 5639SOL    HW128948   3.246   2.430   6.058
 5639SOL    HW228949   3.284   2.580   6.006
 5640SOL     OW28950   1.412   3.170   6.752
 5640SOL    HW128951   1.439   3.108   6.678
 5640SOL    HW228952   1.332   3.134   6.799
 5641SOL     OW28953   1.788   4.566   0.424
 5641SOL    HW128954   1.833   4.636   0.367
 5641SOL    HW228955   1.729   4.611   0.491
 5642SOL     OW28956   0.491   5.776   1.057
 5642SOL    HW128957   0.525   5.788   0.964
 5642SOL    HW228958   0.567   5.751   1.117
 5643SOL     OW28959   8.288   1.090   0.752
 5643SOL    HW128960   8.200   1.124   0.718
 5643SOL    HW228961   8.335   1.163   0.801
 5644SOL     OW28962   8.579   3.238   6.002
 5644SOL    HW128963   8.513   3.170   5.969
 5644SOL    HW228964   8.610   3.213   6.093
 5645SOL     OW28965   0.687   0.821   5.371
 5645SOL    HW128966   0.676   0.903   5.316
 5645SOL    HW228967   0.628   0.748   5.334
 5646SOL     OW28968   1.859   2.614   5.457
 5646SOL    HW128969   1.861   2.530   5.404
 5646SOL    HW228970   1.914   2.684   5.411
 5647SOL     OW28971   9.174   7.097   6.445
 5647SOL    HW128972   9.195   7.063   6.353
 5647SOL    HW228973   9.083   7.138   6.445
 5648SOL     OW28974   6.887   4.221   0.445
 5648SOL    HW128975   6.868   4.125   0.467
 5648SOL    HW228976   6.806   4.262   0.402
 5649SOL     OW28977   7.456   5.796   6.326
 5649SOL    HW128978   7.381   5.857   6.352
 5649SOL    HW228979   7.501   5.761   6.408
 5650SOL     OW28980   0.759   2.499   6.860
 5650SOL    HW128981   0.669   2.520   6.823
 5650SOL    HW228982   0.768   2.538   6.952
 5651SOL     OW28983   8.355   7.976   6.859
 5651SOL    HW128984   8.296   8.022   6.792
 5651SOL    HW228985   8.438   7.943   6.813
 5652SOL     OW28986   8.279   3.521   6.232
 5652SOL    HW128987   8.286   3.453   6.160
 5652SOL    HW228988   8.236   3.604   6.196
 5653SOL     OW28989   2.294   3.869   1.066
 5653SOL    HW128990   2.261   3.963   1.077
 5653SOL    HW228991   2.294   3.845   0.969
 5654SOL     OW28992   0.757   2.290   1.258
 5654SOL    HW128993   0.729   2.207   1.307
 5654SOL    HW228994   0.691   2.363   1.276
 5655SOL     OW28995   5.299   7.043   1.257
 5655SOL    HW128996   5.389   7.032   1.214
 5655SOL    HW228997   5.229   7.054   1.186
 5656SOL     OW28998   3.627   2.968   0.619
 5656SOL    HW128999   3.717   2.933   0.644
 5656SOL    HW229000   3.599   3.037   0.686
 5657SOL     OW29001   8.491   6.308   0.822
 5657SOL    HW129002   8.490   6.408   0.823
 5657SOL    HW229003   8.584   6.276   0.841
 5658SOL     OW29004   2.516   5.913   1.102
 5658SOL    HW129005   2.532   5.822   1.064
 5658SOL    HW229006   2.550   5.917   1.196
 5659SOL     OW29007   6.338   4.236   5.808
 5659SOL    HW129008   6.376   4.297   5.878
 5659SOL    HW229009   6.349   4.141   5.837
 5660SOL     OW29010   3.119   0.602   6.103
 5660SOL    HW129011   3.132   0.518   6.156
 5660SOL    HW229012   3.185   0.671   6.132
 5661SOL     OW29013   6.357   2.010   6.214
 5661SOL    HW129014   6.389   1.917   6.235
 5661SOL    HW229015   6.432   2.061   6.172
 5662SOL     OW29016   6.608   3.690   0.493
 5662SOL    HW129017   6.560   3.661   0.576
 5662SOL    HW229018   6.570   3.777   0.461
 5663SOL     OW29019   3.846   0.018   6.554
 5663SOL    HW129020   3.896  -0.061   6.588
 5663SOL    HW229021   3.837   0.012   6.454
 5664SOL     OW29022   2.493   1.376   5.851
 5664SOL    HW129023   2.433   1.448   5.816
 5664SOL    HW229024   2.503   1.304   5.782
 5665SOL     OW29025   4.422   4.803   2.124
 5665SOL    HW129026   4.508   4.753   2.112
 5665SOL    HW229027   4.437   4.880   2.187
 5666SOL     OW29028   7.547   6.028   6.143
 5666SOL    HW129029   7.483   6.038   6.067
 5666SOL    HW229030   7.515   5.956   6.204
 5667SOL     OW29031   3.466   2.446   1.200
 5667SOL    HW129032   3.469   2.369   1.265
 5667SOL    HW229033   3.406   2.423   1.124
 5668SOL     OW29034   7.931   4.664   1.354
 5668SOL    HW129035   8.009   4.602   1.348
 5668SOL    HW229036   7.912   4.685   1.450
 5669SOL     OW29037   4.600   3.750   6.775
 5669SOL    HW129038   4.533   3.698   6.721
 5669SOL    HW229039   4.605   3.843   6.740
 5670SOL     OW29040   5.616   4.995   6.759
 5670SOL    HW129041   5.601   4.925   6.689
 5670SOL    HW229042   5.639   4.951   6.846
 5671SOL     OW29043   3.875   3.822   6.991
 5671SOL    HW129044   3.808   3.895   6.993
 5671SOL    HW229045   3.864   3.769   6.906
 5672SOL     OW29046   5.746   2.167   0.341
 5672SOL    HW129047   5.832   2.207   0.372
 5672SOL    HW229048   5.752   2.067   0.347
 5673SOL     OW29049   8.225   0.182   0.736
 5673SOL    HW129050   8.205   0.113   0.806
 5673SOL    HW229051   8.159   0.256   0.743
 5674SOL     OW29052   7.192   1.270   5.974
 5674SOL    HW129053   7.212   1.236   5.882
 5674SOL    HW229054   7.161   1.365   5.968
 5675SOL     OW29055   4.016   7.483   6.592
 5675SOL    HW129056   3.976   7.489   6.501
 5675SOL    HW229057   3.944   7.495   6.661
 5676SOL     OW29058   8.901   6.297   6.425
 5676SOL    HW129059   8.809   6.335   6.438
 5676SOL    HW229060   8.946   6.287   6.514
 5677SOL     OW29061   1.020   0.025   6.975
 5677SOL    HW129062   0.994   0.122   6.970
 5677SOL    HW229063   1.089   0.005   6.905
 5678SOL     OW29064   0.250   5.801   6.366
 5678SOL    HW129065   0.280   5.744   6.289
 5678SOL    HW229066   0.176   5.754   6.415
 5679SOL     OW29067   5.915   0.920   1.002
 5679SOL    HW129068   5.869   0.888   1.084
 5679SOL    HW229069   5.959   1.008   1.021
 5680SOL     OW29070   2.778   3.673   6.189
 5680SOL    HW129071   2.727   3.755   6.214
 5680SOL    HW229072   2.876   3.689   6.202
 5681SOL     OW29073   5.370   4.164   6.342
 5681SOL    HW129074   5.335   4.077   6.376
 5681SOL    HW229075   5.375   4.161   6.242
 5682SOL     OW29076   2.709   7.738   6.505
 5682SOL    HW129077   2.666   7.669   6.564
 5682SOL    HW229078   2.638   7.799   6.468
 5683SOL     OW29079   1.757   7.097   0.943
 5683SOL    HW129080   1.702   7.120   1.023
 5683SOL    HW229081   1.726   7.009   0.906
 5684SOL     OW29082   4.036   3.246   6.018
 5684SOL    HW129083   3.956   3.239   5.959
 5684SOL    HW229084   4.102   3.174   5.994
 5685SOL     OW29085   1.057   4.443   1.224
 5685SOL    HW129086   1.053   4.387   1.307
 5685SOL    HW229087   0.977   4.502   1.221
 5686SOL     OW29088   2.996   5.796   6.808
 5686SOL    HW129089   3.026   5.867   6.872
 5686SOL    HW229090   2.908   5.822   6.768
 5687SOL     OW29091   3.893   4.019   6.021
 5687SOL    HW129092   3.846   3.931   6.018
 5687SOL    HW229093   3.842   4.087   5.969
 5688SOL     OW29094   7.538   1.717   0.739
 5688SOL    HW129095   7.543   1.665   0.824
 5688SOL    HW229096   7.617   1.779   0.734
 5689SOL     OW29097   6.262   5.362   6.577
 5689SOL    HW129098   6.274   5.345   6.479
 5689SOL    HW229099   6.288   5.280   6.629
 5690SOL     OW29100   6.227   0.917   0.326
 5690SOL    HW129101   6.141   0.968   0.328
 5690SOL    HW229102   6.214   0.832   0.276
 5691SOL     OW29103   1.338   6.566   5.774
 5691SOL    HW129104   1.306   6.641   5.715
 5691SOL    HW229105   1.373   6.492   5.717
 5692SOL     OW29106   1.572   5.444   1.721
 5692SOL    HW129107   1.604   5.512   1.787
 5692SOL    HW229108   1.616   5.356   1.739
 5693SOL     OW29109   0.964   5.125   5.663
 5693SOL    HW129110   1.014   5.210   5.684
 5693SOL    HW229111   1.017   5.047   5.695
 5694SOL     OW29112   5.221   3.649   6.546
 5694SOL    HW129113   5.311   3.690   6.558
 5694SOL    HW229114   5.176   3.639   6.635
 5695SOL     OW29115   3.969   0.895   1.933
 5695SOL    HW129116   4.068   0.886   1.928
 5695SOL    HW229117   3.936   0.857   2.019
 5696SOL     OW29118   4.225   1.003   6.288
 5696SOL    HW129119   4.218   1.044   6.379
 5696SOL    HW229120   4.315   1.022   6.249
 5697SOL     OW29121   1.844   0.832   5.196
 5697SOL    HW129122   1.783   0.810   5.120
 5697SOL    HW229123   1.915   0.762   5.203
 5698SOL     OW29124   5.896   6.813   6.822
 5698SOL    HW129125   5.896   6.722   6.861
 5698SOL    HW229126   5.860   6.810   6.729
 5699SOL     OW29127   6.383   5.704   5.600
 5699SOL    HW129128   6.337   5.632   5.548
 5699SOL    HW229129   6.329   5.725   5.681
 5700SOL     OW29130   5.808   0.120   1.127
 5700SOL    HW129131   5.793   0.150   1.033
 5700SOL    HW229132   5.772   0.188   1.190
 5701SOL     OW29133   7.897   5.319   5.416
 5701SOL    HW129134   7.929   5.229   5.386
 5701SOL    HW229135   7.893   5.380   5.337
 5702SOL     OW29136   1.831   5.522   6.609
 5702SOL    HW129137   1.817   5.499   6.512
 5702SOL    HW229138   1.908   5.585   6.617
 5703SOL     OW29139   0.990   7.365   0.466
 5703SOL    HW129140   1.017   7.288   0.409
 5703SOL    HW229141   0.976   7.334   0.560
 5704SOL     OW29142   3.106   0.243   1.696
 5704SOL    HW129143   3.010   0.258   1.671
 5704SOL    HW229144   3.135   0.153   1.664
 5705SOL     OW29145   6.108   3.497   1.382
 5705SOL    HW129146   6.205   3.517   1.368
 5705SOL    HW229147   6.086   3.505   1.479
 5706SOL     OW29148   9.136   4.210   1.356
 5706SOL    HW129149   9.048   4.204   1.308
 5706SOL    HW229150   9.196   4.275   1.308
 5707SOL     OW29151   2.915   3.051   0.996
 5707SOL    HW129152   2.880   3.100   0.916
 5707SOL    HW229153   2.975   3.111   1.049
 5708SOL     OW29154   2.150   0.494   0.408
 5708SOL    HW129155   2.203   0.552   0.470
 5708SOL    HW229156   2.155   0.532   0.316
 5709SOL     OW29157   3.170   0.774   2.505
 5709SOL    HW129158   3.268   0.771   2.524
 5709SOL    HW229159   3.126   0.841   2.565
 5710SOL     OW29160   3.333   6.457   6.477
 5710SOL    HW129161   3.235   6.449   6.491
 5710SOL    HW229162   3.367   6.537   6.526
 5711SOL     OW29163   6.151   7.504   1.925
 5711SOL    HW129164   6.241   7.489   1.965
 5711SOL    HW229165   6.085   7.525   1.998
 5712SOL     OW29166   8.083   6.866   1.741
 5712SOL    HW129167   8.096   6.965   1.737
 5712SOL    HW229168   8.000   6.845   1.794
 5713SOL     OW29169   3.845   3.655   6.778
 5713SOL    HW129170   3.843   3.558   6.798
 5713SOL    HW229171   3.939   3.682   6.754
 5714SOL     OW29172   2.668   0.558   6.053
 5714SOL    HW129173   2.583   0.506   6.042
 5714SOL    HW229174   2.664   0.641   5.997
 5715SOL     OW29175   4.711   4.936   1.339
 5715SOL    HW129176   4.788   4.871   1.345
 5715SOL    HW229177   4.747   5.029   1.334
 5716SOL     OW29178   1.345   3.947   1.089
 5716SOL    HW129179   1.338   4.046   1.104
 5716SOL    HW229180   1.310   3.899   1.170
 5717SOL     OW29181   7.543   7.076   6.187
 5717SOL    HW129182   7.626   7.122   6.218
 5717SOL    HW229183   7.480   7.065   6.264
 5718SOL     OW29184   5.780   5.259   1.369
 5718SOL    HW129185   5.795   5.348   1.324
 5718SOL    HW229186   5.764   5.273   1.466
 5719SOL     OW29187   5.981   7.454   5.624
 5719SOL    HW129188   5.896   7.456   5.571
 5719SOL    HW229189   6.049   7.513   5.580
 5720SOL     OW29190   3.601   4.835   6.271
 5720SOL    HW129191   3.574   4.784   6.189
 5720SOL    HW229192   3.519   4.869   6.318
 5721SOL     OW29193   3.915   6.247   6.562
 5721SOL    HW129194   4.002   6.239   6.514
 5721SOL    HW229195   3.922   6.205   6.652
 5722SOL     OW29196   8.545   7.290   5.724
 5722SOL    HW129197   8.539   7.387   5.703
 5722SOL    HW229198   8.627   7.251   5.682
 5723SOL     OW29199   2.555   0.287   1.302
 5723SOL    HW129200   2.536   0.258   1.208
 5723SOL    HW229201   2.481   0.346   1.334
 5724SOL     OW29202   3.759   2.342   5.211
 5724SOL    HW129203   3.803   2.302   5.131
 5724SOL    HW229204   3.661   2.351   5.193
 5725SOL     OW29205   0.163   6.587   1.034
 5725SOL    HW129206   0.213   6.638   1.104
 5725SOL    HW229207   0.203   6.496   1.024
 5726SOL     OW29208   0.806   2.859   0.267
 5726SOL    HW129209   0.758   2.771   0.271
 5726SOL    HW229210   0.829   2.888   0.360
 5727SOL     OW29211   6.014   5.121   6.342
 5727SOL    HW129212   5.985   5.080   6.429
 5727SOL    HW229213   5.968   5.074   6.267
 5728SOL     OW29214   8.765   3.093   1.253
 5728SOL    HW129215   8.805   3.010   1.214
 5728SOL    HW229216   8.825   3.128   1.325
 5729SOL     OW29217   8.428   5.267   0.611
 5729SOL    HW129218   8.506   5.326   0.590
 5729SOL    HW229219   8.344   5.312   0.583
 5730SOL     OW29220   4.089   3.688   6.188
 5730SOL    HW129221   4.136   3.602   6.168
 5730SOL    HW229222   4.152   3.749   6.237
 5731SOL     OW29223   0.366   6.390   6.876
 5731SOL    HW129224   0.375   6.396   6.975
 5731SOL    HW229225   0.281   6.434   6.848
 5732SOL     OW29226   8.386   8.346   6.680
 5732SOL    HW129227   8.349   8.342   6.587
 5732SOL    HW229228   8.394   8.441   6.708
 5733SOL     OW29229   1.596   7.827   1.405
 5733SOL    HW129230   1.655   7.893   1.359
 5733SOL    HW229231   1.577   7.858   1.498
 5734SOL     OW29232   3.698   8.229   0.803
 5734SOL    HW129233   3.612   8.248   0.755
 5734SOL    HW229234   3.731   8.138   0.779
 5735SOL     OW29235   1.794   2.870   0.680
 5735SOL    HW129236   1.853   2.947   0.655
 5735SOL    HW229237   1.841   2.811   0.746
 5736SOL     OW29238   9.082   5.702   5.793
 5736SOL    HW129239   9.094   5.801   5.794
 5736SOL    HW229240   9.134   5.662   5.869
 5737SOL     OW29241   2.868   1.402   0.316
 5737SOL    HW129242   2.956   1.399   0.270
 5737SOL    HW229243   2.814   1.321   0.291
 5738SOL     OW29244   2.291   5.009   5.384
 5738SOL    HW129245   2.220   4.939   5.379
 5738SOL    HW229246   2.367   4.984   5.323
 5739SOL     OW29247   2.566   4.152   1.678
 5739SOL    HW129248   2.507   4.071   1.688
 5739SOL    HW229249   2.661   4.124   1.672
 5740SOL     OW29250   6.509   7.040   6.103
 5740SOL    HW129251   6.493   7.072   6.196
 5740SOL    HW229252   6.601   7.066   6.074
 5741SOL     OW29253   7.457   0.079   0.854
 5741SOL    HW129254   7.468  -0.019   0.870
 5741SOL    HW229255   7.543   0.125   0.874
 5742SOL     OW29256   8.842   6.084   4.993
 5742SOL    HW129257   8.919   6.143   4.970
 5742SOL    HW229258   8.871   6.017   5.062
 5743SOL     OW29259   8.188   1.500   0.281
 5743SOL    HW129260   8.126   1.450   0.221
 5743SOL    HW229261   8.264   1.537   0.227
 5744SOL     OW29262   6.330   1.675   5.871
 5744SOL    HW129263   6.290   1.765   5.854
 5744SOL    HW229264   6.256   1.607   5.878
 5745SOL     OW29265   4.585   2.650   6.515
 5745SOL    HW129266   4.530   2.612   6.441
 5745SOL    HW229267   4.660   2.705   6.477
 5746SOL     OW29268   7.280   4.695   1.191
 5746SOL    HW129269   7.289   4.618   1.254
 5746SOL    HW229270   7.366   4.745   1.187
 5747SOL     OW29271   4.633   7.043   1.172
 5747SOL    HW129272   4.567   7.092   1.229
 5747SOL    HW229273   4.597   6.952   1.152
 5748SOL     OW29274   0.564   1.601   0.407
 5748SOL    HW129275   0.522   1.606   0.498
 5748SOL    HW229276   0.614   1.686   0.389
 5749SOL     OW29277   2.025   6.526   1.531
 5749SOL    HW129278   2.085   6.592   1.486
 5749SOL    HW229279   1.995   6.457   1.465
 5750SOL     OW29280   7.264   7.895   5.694
 5750SOL    HW129281   7.334   7.962   5.722
 5750SOL    HW229282   7.235   7.916   5.601
 5751SOL     OW29283   7.328   6.145   1.937
 5751SOL    HW129284   7.376   6.058   1.935
 5751SOL    HW229285   7.379   6.213   1.884
 5752SOL     OW29286   7.412   0.504   0.681
 5752SOL    HW129287   7.339   0.549   0.732
 5752SOL    HW229288   7.498   0.551   0.699
 5753SOL     OW29289   7.922   5.592   6.382
 5753SOL    HW129290   7.937   5.496   6.405
 5753SOL    HW229291   7.884   5.599   6.290
 5754SOL     OW29292   6.142   2.803   1.026
 5754SOL    HW129293   6.216   2.735   1.023
 5754SOL    HW229294   6.055   2.757   1.043
 5755SOL     OW29295   5.814   2.373   1.706
 5755SOL    HW129296   5.762   2.290   1.726
 5755SOL    HW229297   5.755   2.439   1.659
 5756SOL     OW29298   7.328   7.030   6.354
 5756SOL    HW129299   7.260   7.084   6.404
 5756SOL    HW229300   7.351   6.948   6.406
 5757SOL     OW29301   9.066   3.525   6.563
 5757SOL    HW129302   8.998   3.599   6.559
 5757SOL    HW229303   9.104   3.511   6.472
 5758SOL     OW29304   2.787   4.806   5.409
 5758SOL    HW129305   2.745   4.821   5.319
 5758SOL    HW229306   2.877   4.850   5.411
 5759SOL     OW29307   0.250   4.808   0.696
 5759SOL    HW129308   0.169   4.805   0.756
 5759SOL    HW229309   0.231   4.757   0.612
 5760SOL     OW29310   6.594   7.234   6.504
 5760SOL    HW129311   6.549   7.171   6.440
 5760SOL    HW229312   6.564   7.213   6.597
 5761SOL     OW29313   4.531   8.269   6.999
 5761SOL    HW129314   4.505   8.174   7.017
 5761SOL    HW229315   4.566   8.276   6.905
 5762SOL     OW29316   4.837   6.783   6.196
 5762SOL    HW129317   4.853   6.700   6.249
 5762SOL    HW229318   4.746   6.778   6.153
 5763SOL     OW29319   8.656   7.780   5.280
 5763SOL    HW129320   8.721   7.843   5.320
 5763SOL    HW229321   8.704   7.720   5.215
 5764SOL     OW29322   2.469   1.026   6.435
 5764SOL    HW129323   2.488   0.932   6.407
 5764SOL    HW229324   2.421   1.026   6.523
 5765SOL     OW29325   9.189   1.862   6.950
 5765SOL    HW129326   9.104   1.818   6.919
 5765SOL    HW229327   9.171   1.957   6.974
 5766SOL     OW29328   3.029   1.038   6.322
 5766SOL    HW129329   3.117   1.085   6.312
 5766SOL    HW229330   3.039   0.961   6.384
 5767SOL     OW29331   3.070   4.649   1.608
 5767SOL    HW129332   2.996   4.697   1.561
 5767SOL    HW229333   3.033   4.604   1.690
 5768SOL     OW29334   7.856   6.085   0.375
 5768SOL    HW129335   7.829   6.169   0.421
 5768SOL    HW229336   7.916   6.106   0.298
 5769SOL     OW29337   8.472   1.982   1.991
 5769SOL    HW129338   8.566   1.955   1.970
 5769SOL    HW229339   8.449   1.953   2.084
 5770SOL     OW29340   0.941   0.959   1.251
 5770SOL    HW129341   0.923   0.996   1.343
 5770SOL    HW229342   0.878   1.001   1.186
 5771SOL     OW29343   2.001   7.027   0.579
 5771SOL    HW129344   1.948   7.111   0.577
 5771SOL    HW229345   1.960   6.963   0.645
 5772SOL     OW29346   4.868   4.726   1.636
 5772SOL    HW129347   4.964   4.715   1.664
 5772SOL    HW229348   4.808   4.696   1.711
 5773SOL     OW29349   8.319   1.731   6.332
 5773SOL    HW129350   8.234   1.780   6.312
 5773SOL    HW229351   8.357   1.694   6.247
 5774SOL     OW29352   8.514   6.079   6.979
 5774SOL    HW129353   8.599   6.074   7.031
 5774SOL    HW229354   8.466   6.164   7.003
 5775SOL     OW29355   1.282   8.423   5.906
 5775SOL    HW129356   1.319   8.408   5.815
 5775SOL    HW229357   1.260   8.520   5.918
 5776SOL     OW29358   8.814   2.999   0.618
 5776SOL    HW129359   8.906   3.038   0.619
 5776SOL    HW229360   8.777   3.002   0.525
 5777SOL     OW29361   6.541   6.315   6.281
 5777SOL    HW129362   6.445   6.315   6.254
 5777SOL    HW229363   6.583   6.228   6.257
 5778SOL     OW29364   5.100   2.593   1.705
 5778SOL    HW129365   5.011   2.637   1.715
 5778SOL    HW229366   5.147   2.592   1.793
 5779SOL     OW29367   7.519   0.364   1.262
 5779SOL    HW129368   7.435   0.380   1.315
 5779SOL    HW229369   7.546   0.268   1.272
 5780SOL     OW29370   8.919   0.128   6.982
 5780SOL    HW129371   8.927   0.058   6.912
 5780SOL    HW229372   8.845   0.191   6.959
 5781SOL     OW29373   2.150   3.680   5.889
 5781SOL    HW129374   2.101   3.705   5.806
 5781SOL    HW229375   2.089   3.690   5.968
 5782SOL     OW29376   7.074   7.706   0.939
 5782SOL    HW129377   7.086   7.687   1.036
 5782SOL    HW229378   7.140   7.653   0.886
 5783SOL     OW29379   0.557   2.885   0.562
 5783SOL    HW129380   0.545   2.805   0.503
 5783SOL    HW229381   0.613   2.953   0.517
 5784SOL     OW29382   6.344   1.312   6.661
 5784SOL    HW129383   6.424   1.367   6.684
 5784SOL    HW229384   6.347   1.225   6.711
 5785SOL     OW29385   5.754   0.423   5.762
 5785SOL    HW129386   5.736   0.329   5.791
 5785SOL    HW229387   5.690   0.448   5.689
 5786SOL     OW29388   0.629   5.769   6.463
 5786SOL    HW129389   0.709   5.710   6.459
 5786SOL    HW229390   0.547   5.712   6.474
 5787SOL     OW29391   4.022   0.532   6.677
 5787SOL    HW129392   3.978   0.444   6.660
 5787SOL    HW229393   4.029   0.548   6.776
 5788SOL     OW29394   7.190   1.528   1.782
 5788SOL    HW129395   7.277   1.564   1.747
 5788SOL    HW229396   7.123   1.601   1.787
 5789SOL     OW29397   4.558   0.244   6.636
 5789SOL    HW129398   4.472   0.286   6.608
 5789SOL    HW229399   4.630   0.268   6.570
 5790SOL     OW29400   3.748   8.196   1.318
 5790SOL    HW129401   3.657   8.170   1.285
 5790SOL    HW229402   3.818   8.145   1.268
 5791SOL     OW29403   6.458   2.300   6.650
 5791SOL    HW129404   6.503   2.294   6.561
 5791SOL    HW229405   6.402   2.383   6.654
 5792SOL     OW29406   2.872   2.852   1.190
 5792SOL    HW129407   2.881   2.893   1.099
 5792SOL    HW229408   2.787   2.801   1.196
 5793SOL     OW29409   6.377   5.149   5.458
 5793SOL    HW129410   6.313   5.170   5.383
 5793SOL    HW229411   6.424   5.063   5.438
 5794SOL     OW29412   1.358   8.402   5.658
 5794SOL    HW129413   1.282   8.385   5.595
 5794SOL    HW229414   1.411   8.318   5.669
 5795SOL     OW29415   9.390   0.734   1.523
 5795SOL    HW129416   9.442   0.649   1.512
 5795SOL    HW229417   9.293   0.712   1.532
 5796SOL     OW29418   4.142   5.302   6.513
 5796SOL    HW129419   4.098   5.254   6.437
 5796SOL    HW229420   4.210   5.366   6.477
 5797SOL     OW29421   0.687   3.670   0.780
 5797SOL    HW129422   0.746   3.655   0.700
 5797SOL    HW229423   0.724   3.621   0.859
 5798SOL     OW29424   4.899   6.876   5.584
 5798SOL    HW129425   4.842   6.843   5.659
 5798SOL    HW229426   4.922   6.800   5.523
 5799SOL     OW29427   7.983   3.984   1.964
 5799SOL    HW129428   7.999   3.999   1.867
 5799SOL    HW229429   8.018   3.893   1.990
 5800SOL     OW29430   3.472   5.468   1.325
 5800SOL    HW129431   3.552   5.461   1.385
 5800SOL    HW229432   3.492   5.532   1.250
 5801SOL     OW29433   6.788   3.589   0.812
 5801SOL    HW129434   6.766   3.503   0.857
 5801SOL    HW229435   6.722   3.659   0.840
 5802SOL     OW29436   3.604   3.039   6.212
 5802SOL    HW129437   3.566   2.966   6.269
 5802SOL    HW229438   3.587   3.018   6.116
 5803SOL     OW29439   7.411   6.488   1.093
 5803SOL    HW129440   7.461   6.426   1.033
 5803SOL    HW229441   7.453   6.578   1.090
 5804SOL     OW29442   1.954   5.276   0.458
 5804SOL    HW129443   1.862   5.296   0.425
 5804SOL    HW229444   1.965   5.177   0.469
 5805SOL     OW29445   5.177   3.278   0.829
 5805SOL    HW129446   5.267   3.234   0.837
 5805SOL    HW229447   5.106   3.208   0.828
 5806SOL     OW29448   4.927   8.037   6.674
 5806SOL    HW129449   4.934   8.098   6.753
 5806SOL    HW229450   4.994   7.964   6.683
 5807SOL     OW29451   1.856   0.788   5.729
 5807SOL    HW129452   1.943   0.764   5.771
 5807SOL    HW229453   1.864   0.785   5.630
 5808SOL     OW29454   2.443   7.903   4.696
 5808SOL    HW129455   2.513   7.950   4.642
 5808SOL    HW229456   2.448   7.805   4.680
 5809SOL     OW29457   3.901   2.665   2.003
 5809SOL    HW129458   3.918   2.581   2.053
 5809SOL    HW229459   3.854   2.731   2.062
 5810SOL     OW29460   5.013   3.762   6.695
 5810SOL    HW129461   5.024   3.783   6.598
 5810SOL    HW229462   5.042   3.841   6.749
 5811SOL     OW29463   9.160   2.099   6.660
 5811SOL    HW129464   9.147   2.169   6.730
 5811SOL    HW229465   9.256   2.097   6.632
 5812SOL     OW29466   5.675   6.942   6.943
 5812SOL    HW129467   5.713   7.033   6.962
 5812SOL    HW229468   5.740   6.890   6.888
 5813SOL     OW29469   7.598   3.899   6.033
 5813SOL    HW129470   7.529   3.911   5.962
 5813SOL    HW229471   7.659   3.824   6.008
 5814SOL     OW29472   0.281   3.995   0.936
 5814SOL    HW129473   0.271   3.905   0.894
 5814SOL    HW229474   0.217   4.002   1.014
 5815SOL     OW29475   5.022   3.488   0.355
 5815SOL    HW129476   4.982   3.440   0.433
 5815SOL    HW229477   5.000   3.585   0.360
 5816SOL     OW29478   2.566   6.979   6.294
 5816SOL    HW129479   2.492   7.035   6.257
 5816SOL    HW229480   2.529   6.894   6.331
 5817SOL     OW29481   1.250   0.028   6.813
 5817SOL    HW129482   1.308  -0.008   6.886
 5817SOL    HW229483   1.290   0.113   6.778
 5818SOL     OW29484   5.825   1.822   6.704
 5818SOL    HW129485   5.923   1.820   6.726
 5818SOL    HW229486   5.805   1.906   6.652
 5819SOL     OW29487   6.363   2.151   6.990
 5819SOL    HW129488   6.438   2.181   6.932
 5819SOL    HW229489   6.398   2.127   7.081
 5820SOL     OW29490   3.274   6.063   2.190
 5820SOL    HW129491   3.180   6.095   2.190
 5820SOL    HW229492   3.284   5.990   2.258
 5821SOL     OW29493   6.662   4.664   5.776
 5821SOL    HW129494   6.567   4.633   5.772
 5821SOL    HW229495   6.679   4.731   5.704
 5822SOL     OW29496   4.604   1.502   6.676
 5822SOL    HW129497   4.542   1.486   6.753
 5822SOL    HW229498   4.697   1.516   6.711
 5823SOL     OW29499   5.673   6.055   2.117
 5823SOL    HW129500   5.701   6.144   2.153
 5823SOL    HW229501   5.755   6.001   2.096
 5824SOL     OW29502   2.958   7.247   0.398
 5824SOL    HW129503   2.900   7.173   0.366
 5824SOL    HW229504   2.994   7.297   0.319
 5825SOL     OW29505   2.850   2.031   0.779
 5825SOL    HW129506   2.876   2.006   0.872
 5825SOL    HW229507   2.834   1.949   0.725
 5826SOL     OW29508   6.762   0.456   6.253
 5826SOL    HW129509   6.840   0.492   6.305
 5826SOL    HW229510   6.691   0.527   6.248
 5827SOL     OW29511   1.744   6.831   6.972
 5827SOL    HW129512   1.843   6.826   6.957
 5827SOL    HW229513   1.705   6.904   6.915
 5828SOL     OW29514   8.079   7.178   6.826
 5828SOL    HW129515   8.163   7.197   6.878
 5828SOL    HW229516   8.032   7.264   6.807
 5829SOL     OW29517   9.477   4.987   5.869
 5829SOL    HW129518   9.427   4.955   5.789
 5829SOL    HW229519   9.454   5.082   5.887
 5830SOL     OW29520   1.382   7.033   6.893
 5830SOL    HW129521   1.291   7.067   6.869
 5830SOL    HW229522   1.382   6.999   6.987
 5831SOL     OW29523   5.671   4.943   1.612
 5831SOL    HW129524   5.716   4.905   1.693
 5831SOL    HW229525   5.633   5.033   1.633
 5832SOL     OW29526   8.887   6.218   1.327
 5832SOL    HW129527   8.853   6.129   1.358
 5832SOL    HW229528   8.865   6.288   1.395
 5833SOL     OW29529   3.519   7.084   6.361
 5833SOL    HW129530   3.419   7.077   6.357
 5833SOL    HW229531   3.559   7.009   6.309
 5834SOL     OW29532   2.818   8.041   0.281
 5834SOL    HW129533   2.815   8.141   0.282
 5834SOL    HW229534   2.761   8.006   0.206
 5835SOL     OW29535   6.468   8.106   5.892
 5835SOL    HW129536   6.504   8.131   5.801
 5835SOL    HW229537   6.376   8.144   5.903
 5836SOL     OW29538   2.208   7.067   0.831
 5836SOL    HW129539   2.126   7.115   0.864
 5836SOL    HW229540   2.193   6.969   0.835
 5837SOL     OW29541   7.887   0.730   0.800
 5837SOL    HW129542   7.865   0.801   0.868
 5837SOL    HW229543   7.945   0.660   0.843
 5838SOL     OW29544   0.967   0.307   1.062
 5838SOL    HW129545   0.947   0.216   1.025
 5838SOL    HW229546   1.064   0.314   1.085
 5839SOL     OW29547   4.107   7.201   1.343
 5839SOL    HW129548   4.059   7.179   1.428
 5839SOL    HW229549   4.088   7.295   1.317
 5840SOL     OW29550   3.618   6.306   1.438
 5840SOL    HW129551   3.650   6.360   1.516
 5840SOL    HW229552   3.560   6.231   1.470
 5841SOL     OW29553   9.099   0.198   0.719
 5841SOL    HW129554   9.171   0.267   0.716
 5841SOL    HW229555   9.010   0.243   0.725
 5842SOL     OW29556   4.891   2.014   5.694
 5842SOL    HW129557   4.802   1.969   5.702
 5842SOL    HW229558   4.906   2.074   5.772
 5843SOL     OW29559   0.410   2.755   6.245
 5843SOL    HW129560   0.313   2.770   6.228
 5843SOL    HW229561   0.460   2.841   6.234
 5844SOL     OW29562   1.612  -0.034   0.638
 5844SOL    HW129563   1.580  -0.070   0.550
 5844SOL    HW229564   1.567   0.054   0.655
 5845SOL     OW29565   0.818   0.250   0.482
 5845SOL    HW129566   0.805   0.286   0.575
 5845SOL    HW229567   0.864   0.161   0.488
 5846SOL     OW29568   1.068   3.759   6.624
 5846SOL    HW129569   1.057   3.852   6.659
 5846SOL    HW229570   1.165   3.735   6.625
 5847SOL     OW29571   7.396   3.925   5.849
 5847SOL    HW129572   7.380   4.002   5.788
 5847SOL    HW229573   7.343   3.846   5.818
 5848SOL     OW29574   1.925   5.974   6.879
 5848SOL    HW129575   1.992   5.908   6.843
 5848SOL    HW229576   1.902   6.040   6.808
 5849SOL     OW29577   1.414   2.975   0.502
 5849SOL    HW129578   1.414   2.933   0.593
 5849SOL    HW229579   1.475   2.924   0.442
 5850SOL     OW29580   0.525   1.222   6.401
 5850SOL    HW129581   0.427   1.202   6.392
 5850SOL    HW229582   0.576   1.160   6.341
 5851SOL     OW29583   2.798   1.118   1.355
 5851SOL    HW129584   2.797   1.213   1.323
 5851SOL    HW229585   2.707   1.094   1.390
 5852SOL     OW29586   4.496   4.730   1.332
 5852SOL    HW129587   4.538   4.655   1.280
 5852SOL    HW229588   4.565   4.798   1.355
 5853SOL     OW29589   7.481   6.333   6.530
 5853SOL    HW129590   7.516   6.308   6.439
 5853SOL    HW229591   7.542   6.398   6.573
 5854SOL     OW29592   5.847   1.291   0.346
 5854SOL    HW129593   5.806   1.324   0.261
 5854SOL    HW229594   5.855   1.191   0.343
 5855SOL     OW29595   6.213   8.074   0.617
 5855SOL    HW129596   6.126   8.075   0.666
 5855SOL    HW229597   6.253   7.983   0.623
 5856SOL     OW29598   8.208   4.663   1.583
 5856SOL    HW129599   8.175   4.652   1.676
 5856SOL    HW229600   8.224   4.760   1.565
 5857SOL     OW29601   6.920   0.581   6.791
 5857SOL    HW129602   6.824   0.606   6.777
 5857SOL    HW229603   6.925   0.489   6.831
 5858SOL     OW29604   5.069   6.462   6.859
 5858SOL    HW129605   5.095   6.552   6.892
 5858SOL    HW229606   5.116   6.443   6.773
 5859SOL     OW29607   0.753   0.121   5.879
 5859SOL    HW129608   0.762   0.036   5.932
 5859SOL    HW229609   0.732   0.099   5.784
 5860SOL     OW29610   7.388   5.038   6.267
 5860SOL    HW129611   7.480   4.999   6.271
 5860SOL    HW229612   7.389   5.121   6.213
 5861SOL     OW29613   0.337   7.957   1.567
 5861SOL    HW129614   0.430   7.975   1.599
 5861SOL    HW229615   0.285   7.911   1.639
 5862SOL     OW29616   3.729   4.450   6.913
 5862SOL    HW129617   3.717   4.496   7.001
 5862SOL    HW229618   3.641   4.419   6.878
 5863SOL     OW29619   6.859   0.314   5.639
 5863SOL    HW129620   6.785   0.316   5.572
 5863SOL    HW229621   6.883   0.219   5.659
 5864SOL     OW29622   0.495   4.227   5.445
 5864SOL    HW129623   0.442   4.147   5.419
 5864SOL    HW229624   0.593   4.209   5.432
 5865SOL     OW29625   5.021   4.630   6.523
 5865SOL    HW129626   4.958   4.693   6.566
 5865SOL    HW229627   5.056   4.670   6.438
 5866SOL     OW29628   3.298   6.274   6.866
 5866SOL    HW129629   3.347   6.263   6.780
 5866SOL    HW229630   3.363   6.291   6.940
 5867SOL     OW29631   2.858   8.087   1.078
 5867SOL    HW129632   2.869   7.987   1.072
 5867SOL    HW229633   2.927   8.132   1.022
 5868SOL     OW29634   4.921   5.028   6.315
 5868SOL    HW129635   4.871   5.068   6.392
 5868SOL    HW229636   4.965   4.943   6.344
 5869SOL     OW29637   1.383   0.338   4.976
 5869SOL    HW129638   1.324   0.329   4.895
 5869SOL    HW229639   1.409   0.247   5.008
 5870SOL     OW29640   8.125   5.940   5.640
 5870SOL    HW129641   8.121   6.025   5.694
 5870SOL    HW229642   8.035   5.921   5.601
 5871SOL     OW29643   6.826   0.790   1.556
 5871SOL    HW129644   6.780   0.721   1.612
 5871SOL    HW229645   6.915   0.811   1.596
 5872SOL     OW29646   3.676   2.556   0.997
 5872SOL    HW129647   3.609   2.532   1.067
 5872SOL    HW229648   3.694   2.654   1.000
 5873SOL     OW29649   4.361   7.395   6.370
 5873SOL    HW129650   4.333   7.457   6.443
 5873SOL    HW229651   4.460   7.398   6.360
 5874SOL     OW29652   3.331   5.488   6.801
 5874SOL    HW129653   3.430   5.490   6.797
 5874SOL    HW229654   3.300   5.397   6.829
 5875SOL     OW29655   3.233   7.494   1.089
 5875SOL    HW129656   3.193   7.556   1.022
 5875SOL    HW229657   3.188   7.405   1.085
 5876SOL     OW29658   0.516   7.162   6.248
 5876SOL    HW129659   0.492   7.112   6.165
 5876SOL    HW229660   0.603   7.127   6.283
 5877SOL     OW29661   4.329   0.132   4.879
 5877SOL    HW129662   4.410   0.103   4.827
 5877SOL    HW229663   4.248   0.128   4.820
 5878SOL     OW29664   1.530   3.099   6.458
 5878SOL    HW129665   1.450   3.152   6.429
 5878SOL    HW229666   1.555   3.034   6.387
 5879SOL     OW29667   1.290   5.826   5.707
 5879SOL    HW129668   1.194   5.804   5.724
 5879SOL    HW229669   1.320   5.895   5.773
 5880SOL     OW29670   3.724   7.564   0.352
 5880SOL    HW129671   3.814   7.523   0.337
 5880SOL    HW229672   3.670   7.505   0.413
 5881SOL     OW29673   4.666   1.778   6.326
 5881SOL    HW129674   4.760   1.802   6.352
 5881SOL    HW229675   4.624   1.855   6.278
 5882SOL     OW29676   3.782   2.697   6.646
 5882SOL    HW129677   3.825   2.757   6.578
 5882SOL    HW229678   3.778   2.744   6.734
 5883SOL     OW29679   3.520   4.331   5.888
 5883SOL    HW129680   3.480   4.317   5.978
 5883SOL    HW229681   3.457   4.384   5.831
 5884SOL     OW29682   7.379   7.554   5.213
 5884SOL    HW129683   7.361   7.649   5.240
 5884SOL    HW229684   7.442   7.553   5.135
 5885SOL     OW29685   5.572   4.057   6.917
 5885SOL    HW129686   5.632   3.984   6.886
 5885SOL    HW229687   5.614   4.146   6.897
 5886SOL     OW29688   8.722   0.737   6.237
 5886SOL    HW129689   8.626   0.758   6.259
 5886SOL    HW229690   8.755   0.802   6.168
 5887SOL     OW29691   3.722   0.074   1.557
 5887SOL    HW129692   3.702  -0.024   1.550
 5887SOL    HW229693   3.642   0.127   1.529
 5888SOL     OW29694   8.270   4.297   1.201
 5888SOL    HW129695   8.281   4.301   1.102
 5888SOL    HW229696   8.344   4.242   1.241
 5889SOL     OW29697   4.365   1.822   1.235
 5889SOL    HW129698   4.374   1.741   1.292
 5889SOL    HW229699   4.270   1.854   1.237
 5890SOL     OW29700   3.880   0.739   6.549
 5890SOL    HW129701   3.929   0.654   6.571
 5890SOL    HW229702   3.788   0.735   6.588
 5891SOL     OW29703   2.541   8.119   6.359
 5891SOL    HW129704   2.608   8.141   6.430
 5891SOL    HW229705   2.586   8.123   6.269
 5892SOL     OW29706   4.521   8.062   1.427
 5892SOL    HW129707   4.448   8.053   1.359
 5892SOL    HW229708   4.515   7.987   1.492
 5893SOL     OW29709   2.861   3.646   6.545
 5893SOL    HW129710   2.802   3.720   6.514
 5893SOL    HW229711   2.954   3.660   6.511
 5894SOL     OW29712   4.030   2.234   5.869
 5894SOL    HW129713   3.933   2.212   5.865
 5894SOL    HW229714   4.076   2.201   5.787
 5895SOL     OW29715   5.299   4.640   1.582
 5895SOL    HW129716   5.317   4.733   1.550
 5895SOL    HW229717   5.234   4.643   1.658
 5896SOL     OW29718   4.242   7.438   1.566
 5896SOL    HW129719   4.315   7.456   1.631
 5896SOL    HW229720   4.166   7.392   1.612
 5897SOL     OW29721   6.796   1.393   1.595
 5897SOL    HW129722   6.711   1.341   1.585
 5897SOL    HW229723   6.816   1.404   1.692
 5898SOL     OW29724   1.383   0.786   0.428
 5898SOL    HW129725   1.390   0.687   0.427
 5898SOL    HW229726   1.409   0.823   0.339
 5899SOL     OW29727   8.148   3.064   0.508
 5899SOL    HW129728   8.194   2.998   0.567
 5899SOL    HW229729   8.050   3.062   0.525
 5900SOL     OW29730   6.385   6.134   0.657
 5900SOL    HW129731   6.411   6.088   0.572
 5900SOL    HW229732   6.464   6.181   0.695
 5901SOL     OW29733   3.149   1.061   2.316
 5901SOL    HW129734   3.070   1.112   2.283
 5901SOL    HW229735   3.192   1.013   2.239
 5902SOL     OW29736   0.186   7.322   5.138
 5902SOL    HW129737   0.107   7.379   5.116
 5902SOL    HW229738   0.236   7.300   5.054
 5903SOL     OW29739   2.369   7.815   6.061
 5903SOL    HW129740   2.465   7.829   6.083
 5903SOL    HW229741   2.322   7.903   6.057
 5904SOL     OW29742   7.714   0.180   0.883
 5904SOL    HW129743   7.793   0.202   0.941
 5904SOL    HW229744   7.690   0.260   0.828
 5905SOL     OW29745   8.007   0.106   0.354
 5905SOL    HW129746   7.927   0.068   0.308
 5905SOL    HW229747   8.079   0.124   0.286
 5906SOL     OW29748   6.206   5.447   1.723
 5906SOL    HW129749   6.195   5.387   1.802
 5906SOL    HW229750   6.237   5.538   1.753
 5907SOL     OW29751   1.733   0.186   2.188
 5907SOL    HW129752   1.643   0.230   2.184
 5907SOL    HW229753   1.761   0.160   2.096
 5908SOL     OW29754   0.752   6.729   0.848
 5908SOL    HW129755   0.826   6.771   0.899
 5908SOL    HW229756   0.760   6.629   0.855
 5909SOL     OW29757   0.500   2.357   6.107
 5909SOL    HW129758   0.471   2.431   6.047
 5909SOL    HW229759   0.442   2.276   6.092
 5910SOL     OW29760   2.645   0.670   0.661
 5910SOL    HW129761   2.573   0.601   0.663
 5910SOL    HW229762   2.731   0.628   0.634
 5911SOL     OW29763   0.821   6.372   5.671
 5911SOL    HW129764   0.900   6.433   5.678
 5911SOL    HW229765   0.852   6.279   5.650
 5912SOL     OW29766   6.116   7.607   0.926
 5912SOL    HW129767   6.168   7.652   0.997
 5912SOL    HW229768   6.046   7.670   0.890
 5913SOL     OW29769   3.455   0.676   1.135
 5913SOL    HW129770   3.472   0.766   1.177
 5913SOL    HW229771   3.357   0.658   1.135
 5914SOL     OW29772   9.382   3.999   6.269
 5914SOL    HW129773   9.471   3.995   6.222
 5914SOL    HW229774   9.333   3.913   6.253
 5915SOL     OW29775   1.985   3.192   6.778
 5915SOL    HW129776   1.963   3.243   6.861
 5915SOL    HW229777   2.085   3.181   6.772
 5916SOL     OW29778   8.117   0.022   6.609
 5916SOL    HW129779   8.062  -0.062   6.616
 5916SOL    HW229780   8.060   0.096   6.573
 5917SOL     OW29781   6.073   2.753   0.410
 5917SOL    HW129782   6.172   2.740   0.406
 5917SOL    HW229783   6.053   2.847   0.441
 5918SOL     OW29784   6.887   8.313   1.181
 5918SOL    HW129785   6.804   8.299   1.126
 5918SOL    HW229786   6.966   8.275   1.133
 5919SOL     OW29787   6.609   7.370   5.308
 5919SOL    HW129788   6.663   7.304   5.256
 5919SOL    HW229789   6.574   7.326   5.390
 5920SOL     OW29790   5.312   5.241   6.390
 5920SOL    HW129791   5.222   5.232   6.347
 5920SOL    HW229792   5.303   5.227   6.488
 5921SOL     OW29793   4.649   4.306   6.542
 5921SOL    HW129794   4.571   4.364   6.515
 5921SOL    HW229795   4.708   4.357   6.604
 5922SOL     OW29796   2.788   2.488   6.763
 5922SOL    HW129797   2.805   2.538   6.848
 5922SOL    HW229798   2.874   2.448   6.731
 5923SOL     OW29799   5.602   6.346   6.950
 5923SOL    HW129800   5.538   6.418   6.979
 5923SOL    HW229801   5.684   6.349   7.007
 5924SOL     OW29802   0.208   0.812   5.691
 5924SOL    HW129803   0.188   0.718   5.663
 5924SOL    HW229804   0.262   0.811   5.775
 5925SOL     OW29805   2.562   1.545   1.377
 5925SOL    HW129806   2.507   1.614   1.330
 5925SOL    HW229807   2.547   1.552   1.476
 5926SOL     OW29808   8.849   3.271   1.048
 5926SOL    HW129809   8.789   3.251   1.125
 5926SOL    HW229810   8.905   3.191   1.027
 5927SOL     OW29811   6.383   1.466   6.999
 5927SOL    HW129812   6.444   1.545   7.000
 5927SOL    HW229813   6.289   1.497   6.983
 5928SOL     OW29814   8.128   7.137   1.667
 5928SOL    HW129815   8.164   7.153   1.759
 5928SOL    HW229816   8.162   7.208   1.605
 5929SOL     OW29817   2.578   5.790   0.344
 5929SOL    HW129818   2.620   5.788   0.435
 5929SOL    HW229819   2.637   5.842   0.282
 5930SOL     OW29820   6.392   5.580   1.063
 5930SOL    HW129821   6.441   5.589   1.150
 5930SOL    HW229822   6.449   5.532   0.997
 5931SOL     OW29823   2.097   0.357   5.916
 5931SOL    HW129824   2.053   0.446   5.921
 5931SOL    HW229825   2.188   0.366   5.875
 5932SOL     OW29826   8.419   1.736   1.627
 5932SOL    HW129827   8.491   1.804   1.612
 5932SOL    HW229828   8.460   1.652   1.664
 5933SOL     OW29829   3.307   1.193   6.725
 5933SOL    HW129830   3.242   1.120   6.745
 5933SOL    HW229831   3.341   1.232   6.810
 5934SOL     OW29832   5.947   4.420   0.440
 5934SOL    HW129833   5.957   4.339   0.383
 5934SOL    HW229834   5.917   4.394   0.531
 5935SOL     OW29835   7.181   8.300   5.994
 5935SOL    HW129836   7.207   8.357   5.916
 5935SOL    HW229837   7.093   8.256   5.975
 5936SOL     OW29838   4.455   6.222   1.172
 5936SOL    HW129839   4.428   6.290   1.104
 5936SOL    HW229840   4.386   6.218   1.244
 5937SOL     OW29841   5.186   8.017   6.163
 5937SOL    HW129842   5.248   7.944   6.134
 5937SOL    HW229843   5.239   8.093   6.200
 5938SOL     OW29844   7.424   6.936   5.996
 5938SOL    HW129845   7.463   6.966   6.083
 5938SOL    HW229846   7.487   6.872   5.951
 5939SOL     OW29847   1.133   3.369   6.518
 5939SOL    HW129848   1.195   3.396   6.592
 5939SOL    HW229849   1.067   3.302   6.552
 5940SOL     OW29850   7.854   7.333   6.070
 5940SOL    HW129851   7.818   7.266   6.134
 5940SOL    HW229852   7.901   7.406   6.121
 5941SOL     OW29853   4.018   2.077   2.363
 5941SOL    HW129854   4.041   2.054   2.458
 5941SOL    HW229855   4.075   2.154   2.333
 5942SOL     OW29856   6.968   4.003   6.749
 5942SOL    HW129857   6.901   3.997   6.823
 5942SOL    HW229858   7.057   3.970   6.782
 5943SOL     OW29859   3.211   3.122   1.359
 5943SOL    HW129860   3.267   3.049   1.397
 5943SOL    HW229861   3.114   3.103   1.377
 5944SOL     OW29862   4.874   5.863   1.031
 5944SOL    HW129863   4.866   5.963   1.034
 5944SOL    HW229864   4.828   5.824   1.111
 5945SOL     OW29865   7.850   1.191   6.595
 5945SOL    HW129866   7.927   1.165   6.536
 5945SOL    HW229867   7.792   1.112   6.611
 5946SOL     OW29868   4.097   3.096   5.458
 5946SOL    HW129869   4.071   3.076   5.552
 5946SOL    HW229870   4.018   3.084   5.398
 5947SOL     OW29871   7.619   7.329   1.418
 5947SOL    HW129872   7.683   7.388   1.368
 5947SOL    HW229873   7.668   7.278   1.489
 5948SOL     OW29874   0.986   4.728   1.472
 5948SOL    HW129875   1.045   4.675   1.533
 5948SOL    HW229876   0.900   4.748   1.518
 5949SOL     OW29877   1.541   4.239   0.710
 5949SOL    HW129878   1.443   4.249   0.724
 5949SOL    HW229879   1.558   4.213   0.615
 5950SOL     OW29880   8.120   2.297   6.415
 5950SOL    HW129881   8.157   2.363   6.481
 5950SOL    HW229882   8.168   2.210   6.424
 5951SOL     OW29883   6.323   4.635   1.306
 5951SOL    HW129884   6.229   4.617   1.337
 5951SOL    HW229885   6.321   4.687   1.221
 5952SOL     OW29886   8.830   4.452   6.756
 5952SOL    HW129887   8.734   4.471   6.777
 5952SOL    HW229888   8.866   4.523   6.695
 5953SOL     OW29889   9.381   3.399   5.714
 5953SOL    HW129890   9.439   3.376   5.636
 5953SOL    HW229891   9.318   3.473   5.688
 5954SOL     OW29892   7.863   4.951   6.550
 5954SOL    HW129893   7.850   5.030   6.490
 5954SOL    HW229894   7.884   4.870   6.496
 5955SOL     OW29895   2.217   8.357   5.502
 5955SOL    HW129896   2.164   8.285   5.458
 5955SOL    HW229897   2.269   8.407   5.432
 5956SOL     OW29898   2.571   4.292   6.020
 5956SOL    HW129899   2.597   4.267   5.926
 5956SOL    HW229900   2.625   4.238   6.084
 5957SOL     OW29901   0.530   0.993   6.970
 5957SOL    HW129902   0.589   0.935   6.913
 5957SOL    HW229903   0.514   1.080   6.923
 5958SOL     OW29904   6.881   2.275   0.969
 5958SOL    HW129905   6.939   2.241   0.895
 5958SOL    HW229906   6.853   2.370   0.948
 5959SOL     OW29907   7.143   1.687   1.101
 5959SOL    HW129908   7.183   1.773   1.131
 5959SOL    HW229909   7.060   1.705   1.048
 5960SOL     OW29910   2.268   2.147   6.085
 5960SOL    HW129911   2.258   2.211   6.009
 5960SOL    HW229912   2.212   2.179   6.162
 5961SOL     OW29913   8.270   4.932   1.542
 5961SOL    HW129914   8.228   5.008   1.592
 5961SOL    HW229915   8.334   4.968   1.474
 5962SOL     OW29916   4.057   0.478   1.249
 5962SOL    HW129917   4.049   0.496   1.347
 5962SOL    HW229918   3.974   0.509   1.203
 5963SOL     OW29919   0.185   2.381   6.546
 5963SOL    HW129920   0.098   2.371   6.496
 5963SOL    HW229921   0.188   2.314   6.621
 5964SOL     OW29922   4.720   6.862   1.600
 5964SOL    HW129923   4.698   6.855   1.697
 5964SOL    HW229924   4.765   6.777   1.570
 5965SOL     OW29925   4.307   3.353   0.812
 5965SOL    HW129926   4.389   3.408   0.828
 5965SOL    HW229927   4.295   3.339   0.714
 5966SOL     OW29928   2.208   3.098   6.424
 5966SOL    HW129929   2.183   3.187   6.386
 5966SOL    HW229930   2.126   3.041   6.434
 5967SOL     OW29931   2.463   5.390   0.512
 5967SOL    HW129932   2.388   5.362   0.453
 5967SOL    HW229933   2.494   5.312   0.566
 5968SOL     OW29934   2.716   3.484   6.359
 5968SOL    HW129935   2.777   3.500   6.436
 5968SOL    HW229936   2.713   3.565   6.300
 5969SOL     OW29937   1.790   0.524   6.456
 5969SOL    HW129938   1.733   0.586   6.402
 5969SOL    HW229939   1.876   0.570   6.479
 5970SOL     OW29940   1.587   4.118   1.156
 5970SOL    HW129941   1.576   4.122   1.255
 5970SOL    HW229942   1.504   4.081   1.114
 5971SOL     OW29943   1.077   2.028   6.678
 5971SOL    HW129944   1.072   1.933   6.709
 5971SOL    HW229945   1.007   2.044   6.608
 5972SOL     OW29946   4.204   5.415   5.734
 5972SOL    HW129947   4.224   5.435   5.638
 5972SOL    HW229948   4.213   5.317   5.751
 5973SOL     OW29949   5.180   6.498   6.164
 5973SOL    HW129950   5.087   6.463   6.154
 5973SOL    HW229951   5.182   6.568   6.235
 5974SOL     OW29952   1.114   6.562   0.890
 5974SOL    HW129953   1.212   6.546   0.878
 5974SOL    HW229954   1.086   6.536   0.983
 5975SOL     OW29955   1.603   2.883   0.273
 5975SOL    HW129956   1.568   2.798   0.312
 5975SOL    HW229957   1.678   2.862   0.210
 5976SOL     OW29958   1.694   3.793   1.250
 5976SOL    HW129959   1.623   3.838   1.304
 5976SOL    HW229960   1.721   3.707   1.294
 5977SOL     OW29961   8.825   6.329   5.623
 5977SOL    HW129962   8.805   6.235   5.594
 5977SOL    HW229963   8.913   6.357   5.584
 5978SOL     OW29964   2.288   1.845   6.989
 5978SOL    HW129965   2.368   1.830   7.047
 5978SOL    HW229966   2.229   1.914   7.031
 5979SOL     OW29967   3.239   3.721   1.946
 5979SOL    HW129968   3.243   3.819   1.925
 5979SOL    HW229969   3.157   3.682   1.904
 5980SOL     OW29970   6.145   1.460   0.691
 5980SOL    HW129971   6.121   1.460   0.594
 5980SOL    HW229972   6.067   1.492   0.745
 5981SOL     OW29973   4.587   7.100   1.568
 5981SOL    HW129974   4.613   7.003   1.569
 5981SOL    HW229975   4.562   7.129   1.660
 5982SOL     OW29976   6.714   1.479   2.471
 5982SOL    HW129977   6.630   1.534   2.479
 5982SOL    HW229978   6.790   1.538   2.443
 5983SOL     OW29979   3.052   2.004   6.537
 5983SOL    HW129980   3.000   1.924   6.507
 5983SOL    HW229981   3.029   2.026   6.632
 5984SOL     OW29982   5.280   1.728   1.194
 5984SOL    HW129983   5.328   1.641   1.208
 5984SOL    HW229984   5.198   1.712   1.138
 5985SOL     OW29985   8.835   8.329   6.810
 5985SOL    HW129986   8.745   8.302   6.774
 5985SOL    HW229987   8.857   8.272   6.889
 5986SOL     OW29988   4.370   0.810   5.612
 5986SOL    HW129989   4.451   0.807   5.553
 5986SOL    HW229990   4.336   0.717   5.625
 5987SOL     OW29991   6.284   6.650   5.655
 5987SOL    HW129992   6.335   6.565   5.672
 5987SOL    HW229993   6.190   6.627   5.627
 5988SOL     OW29994   1.807   5.464   6.343
 5988SOL    HW129995   1.888   5.475   6.285
 5988SOL    HW229996   1.778   5.368   6.343
 5989SOL     OW29997   3.182   1.898   0.375
 5989SOL    HW129998   3.280   1.918   0.373
 5989SOL    HW229999   3.169   1.799   0.386
 5990SOL     OW30000   5.893   4.991   6.553
 5990SOL    HW130001   5.968   4.929   6.574
 5990SOL    HW230002   5.835   5.001   6.634
 5991SOL     OW30003   3.954   8.386   1.490
 5991SOL    HW130004   3.914   8.353   1.404
 5991SOL    HW230005   3.916   8.476   1.512
 5992SOL     OW30006   5.366   6.492   0.895
 5992SOL    HW130007   5.362   6.499   0.995
 5992SOL    HW230008   5.422   6.414   0.869
 5993SOL     OW30009   2.600   7.741   1.052
 5993SOL    HW130010   2.648   7.657   1.079
 5993SOL    HW230011   2.502   7.731   1.070
 5994SOL     OW30012   9.500   4.103   6.909
 5994SOL    HW130013   9.553   4.177   6.950
 5994SOL    HW230014   9.527   4.015   6.949
 5995SOL     OW30015   1.848   3.671   6.538
 5995SOL    HW130016   1.933   3.718   6.561
 5995SOL    HW230017   1.867   3.592   6.480
 5996SOL     OW30018   7.538   7.623   6.546
 5996SOL    HW130019   7.536   7.702   6.484
 5996SOL    HW230020   7.556   7.540   6.493
 5997SOL     OW30021   4.645   7.614   0.635
 5997SOL    HW130022   4.732   7.626   0.683
 5997SOL    HW230023   4.655   7.641   0.540
 5998SOL     OW30024   7.277   3.699   6.116
 5998SOL    HW130025   7.271   3.762   6.038
 5998SOL    HW230026   7.361   3.645   6.108
 5999SOL     OW30027   1.781   0.508   5.795
 5999SOL    HW130028   1.798   0.599   5.832
 5999SOL    HW230029   1.792   0.440   5.867
 6000SOL     OW30030   8.151   0.979   5.541
 6000SOL    HW130031   8.122   0.911   5.474
 6000SOL    HW230032   8.251   0.983   5.543
 6001SOL     OW30033   3.135   5.715   5.674
 6001SOL    HW130034   3.065   5.776   5.635
 6001SOL    HW230035   3.170   5.756   5.758
 6002SOL     OW30036   2.891   0.488   0.647
 6002SOL    HW130037   2.916   0.463   0.741
 6002SOL    HW230038   2.869   0.405   0.596
 6003SOL     OW30039   2.805   7.109   5.598
 6003SOL    HW130040   2.797   7.132   5.695
 6003SOL    HW230041   2.877   7.041   5.586
 6004SOL     OW30042   8.633   4.418   1.528
 6004SOL    HW130043   8.535   4.435   1.517
 6004SOL    HW230044   8.667   4.466   1.609
 6005SOL     OW30045   0.156   6.267   6.471
 6005SOL    HW130046   0.057   6.272   6.477
 6005SOL    HW230047   0.183   6.246   6.377
 6006SOL     OW30048   0.967   1.199   6.465
 6006SOL    HW130049   1.030   1.253   6.521
 6006SOL    HW230050   0.961   1.240   6.374
 6007SOL     OW30051   1.138   8.324   5.492
 6007SOL    HW130052   1.130   8.231   5.527
 6007SOL    HW230053   1.071   8.382   5.538
 6008SOL     OW30054   2.990   4.046   6.766
 6008SOL    HW130055   2.924   4.000   6.825
 6008SOL    HW230056   2.952   4.057   6.674
 6009SOL     OW30057   4.169   4.224   0.948
 6009SOL    HW130058   4.177   4.126   0.929
 6009SOL    HW230059   4.227   4.247   1.026
 6010SOL     OW30060   0.521   0.284   6.320
 6010SOL    HW130061   0.492   0.232   6.401
 6010SOL    HW230062   0.619   0.305   6.328
 6011SOL     OW30063   9.318   3.759   1.480
 6011SOL    HW130064   9.357   3.700   1.550
 6011SOL    HW230065   9.310   3.852   1.516
 6012SOL     OW30066   3.278   5.401   4.928
 6012SOL    HW130067   3.315   5.314   4.960
 6012SOL    HW230068   3.186   5.414   4.966
 6013SOL     OW30069   7.824   4.525   0.659
 6013SOL    HW130070   7.873   4.596   0.608
 6013SOL    HW230071   7.868   4.512   0.748
 6014SOL     OW30072   6.661   3.617   2.090
 6014SOL    HW130073   6.564   3.636   2.072
 6014SOL    HW230074   6.674   3.598   2.187
 6015SOL     OW30075   4.448   7.836   6.255
 6015SOL    HW130076   4.469   7.820   6.159
 6015SOL    HW230077   4.533   7.836   6.308
 6016SOL     OW30078   0.149   4.235   6.566
 6016SOL    HW130079   0.070   4.175   6.556
 6016SOL    HW230080   0.211   4.222   6.489
 6017SOL     OW30081   0.155   7.044   0.563
 6017SOL    HW130082   0.208   7.007   0.639
 6017SOL    HW230083   0.197   7.129   0.531
 6018SOL     OW30084   2.612   6.896   0.514
 6018SOL    HW130085   2.567   6.838   0.446
 6018SOL    HW230086   2.614   6.848   0.602
 6019SOL     OW30087   1.259   7.207   1.472
 6019SOL    HW130088   1.249   7.282   1.537
 6019SOL    HW230089   1.342   7.155   1.494
 6020SOL     OW30090   5.468   2.635   1.212
 6020SOL    HW130091   5.496   2.557   1.268
 6020SOL    HW230092   5.528   2.713   1.230
 6021SOL     OW30093   4.180   1.506   0.293
 6021SOL    HW130094   4.273   1.473   0.280
 6021SOL    HW230095   4.145   1.541   0.206
 6022SOL     OW30096   7.165   3.010   6.727
 6022SOL    HW130097   7.178   3.103   6.694
 6022SOL    HW230098   7.086   2.969   6.682
 6023SOL     OW30099   7.862   2.937   1.596
 6023SOL    HW130100   7.783   2.945   1.656
 6023SOL    HW230101   7.946   2.943   1.650
 6024SOL     OW30102   4.211   6.144   1.609
 6024SOL    HW130103   4.295   6.113   1.653
 6024SOL    HW230104   4.134   6.088   1.640
 6025SOL     OW30105   3.593   8.286   0.370
 6025SOL    HW130106   3.602   8.198   0.323
 6025SOL    HW230107   3.645   8.356   0.320
 6026SOL     OW30108   4.332   3.420   6.413
 6026SOL    HW130109   4.261   3.427   6.343
 6026SOL    HW230110   4.295   3.447   6.501
 6027SOL     OW30111   8.545   4.687   6.290
 6027SOL    HW130112   8.545   4.651   6.383
 6027SOL    HW230113   8.634   4.727   6.269
 6028SOL     OW30114   7.900   8.067   2.118
 6028SOL    HW130115   7.897   7.978   2.164
 6028SOL    HW230116   7.866   8.137   2.180
 6029SOL     OW30117   2.395   7.645   5.824
 6029SOL    HW130118   2.389   7.731   5.875
 6029SOL    HW230119   2.328   7.580   5.860
 6030SOL     OW30120   1.513   5.527   6.202
 6030SOL    HW130121   1.569   5.510   6.283
 6030SOL    HW230122   1.503   5.442   6.150
 6031SOL     OW30123   5.055   5.589   0.499
 6031SOL    HW130124   4.967   5.636   0.495
 6031SOL    HW230125   5.062   5.540   0.586
 6032SOL     OW30126   8.647   5.025   5.857
 6032SOL    HW130127   8.617   5.103   5.803
 6032SOL    HW230128   8.580   5.006   5.928
 6033SOL     OW30129   7.594   5.824   5.853
 6033SOL    HW130130   7.515   5.885   5.841
 6033SOL    HW230131   7.582   5.770   5.936
 6034SOL     OW30132   5.480   0.412   6.458
 6034SOL    HW130133   5.511   0.320   6.433
 6034SOL    HW230134   5.460   0.464   6.374
 6035SOL     OW30135   4.149   8.396   5.761
 6035SOL    HW130136   4.225   8.348   5.716
 6035SOL    HW230137   4.158   8.495   5.744
 6036SOL     OW30138   0.936   7.315   0.776
 6036SOL    HW130139   0.849   7.340   0.733
 6036SOL    HW230140   0.922   7.235   0.835
 6037SOL     OW30141   3.348   2.806   0.436
 6037SOL    HW130142   3.326   2.894   0.479
 6037SOL    HW230143   3.328   2.811   0.338
 6038SOL     OW30144   1.250   1.712   1.466
 6038SOL    HW130145   1.248   1.629   1.411
 6038SOL    HW230146   1.333   1.764   1.447
 6039SOL     OW30147   4.203   7.060   6.585
 6039SOL    HW130148   4.278   6.996   6.602
 6039SOL    HW230149   4.132   7.016   6.530
 6040SOL     OW30150   1.661   4.677   5.620
 6040SOL    HW130151   1.654   4.742   5.545
 6040SOL    HW230152   1.607   4.595   5.598
 6041SOL     OW30153   3.301   0.465   1.557
 6041SOL    HW130154   3.398   0.442   1.555
 6041SOL    HW230155   3.262   0.437   1.644
 6042SOL     OW30156   6.073   0.489   1.330
 6042SOL    HW130157   6.065   0.540   1.244
 6042SOL    HW230158   6.157   0.516   1.377
 6043SOL     OW30159   8.596   7.491   4.586
 6043SOL    HW130160   8.593   7.399   4.623
 6043SOL    HW230161   8.642   7.490   4.497
 6044SOL     OW30162   6.982   5.112   1.252
 6044SOL    HW130163   7.068   5.062   1.255
 6044SOL    HW230164   6.993   5.199   1.301
 6045SOL     OW30165   8.451   5.785   6.052
 6045SOL    HW130166   8.547   5.755   6.058
 6045SOL    HW230167   8.431   5.811   5.957
 6046SOL     OW30168   9.308   7.221   6.705
 6046SOL    HW130169   9.290   7.177   6.617
 6046SOL    HW230170   9.334   7.316   6.691
 6047SOL     OW30171   6.779   1.458   6.070
 6047SOL    HW130172   6.756   1.495   5.979
 6047SOL    HW230173   6.779   1.358   6.066
 6048SOL     OW30174   9.212   3.654   1.026
 6048SOL    HW130175   9.263   3.700   1.099
 6048SOL    HW230176   9.123   3.624   1.062
 6049SOL     OW30177   9.458   1.829   0.278
 6049SOL    HW130178   9.361   1.853   0.272
 6049SOL    HW230179   9.467   1.730   0.272
 6050SOL     OW30180   5.309   0.737   6.476
 6050SOL    HW130181   5.305   0.799   6.554
 6050SOL    HW230182   5.360   0.781   6.402
 6051SOL     OW30183   0.708   6.494   1.081
 6051SOL    HW130184   0.653   6.417   1.114
 6051SOL    HW230185   0.708   6.567   1.149
 6052SOL     OW30186   1.878   4.585   1.214
 6052SOL    HW130187   1.862   4.624   1.123
 6052SOL    HW230188   1.827   4.637   1.282
 6053SOL     OW30189   1.341   3.278   6.376
 6053SOL    HW130190   1.266   3.331   6.416
 6053SOL    HW230191   1.347   3.297   6.278
 6054SOL     OW30192   5.446   7.147   6.126
 6054SOL    HW130193   5.409   7.086   6.056
 6054SOL    HW230194   5.545   7.152   6.116
 6055SOL     OW30195   9.081   6.350   6.219
 6055SOL    HW130196   9.169   6.388   6.246
 6055SOL    HW230197   9.016   6.359   6.294
 6056SOL     OW30198   4.848   2.628   0.758
 6056SOL    HW130199   4.910   2.706   0.750
 6056SOL    HW230200   4.784   2.643   0.833
 6057SOL     OW30201   5.979   6.331   5.196
 6057SOL    HW130202   5.914   6.260   5.171
 6057SOL    HW230203   5.934   6.399   5.254
 6058SOL     OW30204   6.396   4.247   6.723
 6058SOL    HW130205   6.355   4.210   6.807
 6058SOL    HW230206   6.323   4.271   6.659
 6059SOL     OW30207   3.356   1.163   1.430
 6059SOL    HW130208   3.402   1.237   1.480
 6059SOL    HW230209   3.425   1.107   1.384
 6060SOL     OW30210   2.028   8.241   0.541
 6060SOL    HW130211   1.950   8.221   0.482
 6060SOL    HW230212   2.090   8.163   0.542
 6061SOL     OW30213   7.936   1.310   0.456
 6061SOL    HW130214   7.918   1.404   0.425
 6061SOL    HW230215   7.876   1.247   0.408
 6062SOL     OW30216   1.981   5.567   0.347
 6062SOL    HW130217   1.945   5.659   0.365
 6062SOL    HW230218   2.029   5.533   0.428
 6063SOL     OW30219   8.783   8.205   6.281
 6063SOL    HW130220   8.724   8.178   6.357
 6063SOL    HW230221   8.750   8.162   6.197
 6064SOL     OW30222   2.210   1.149   1.192
 6064SOL    HW130223   2.142   1.103   1.249
 6064SOL    HW230224   2.265   1.209   1.249
 6065SOL     OW30225   3.006   0.718   0.540
 6065SOL    HW130226   3.003   0.620   0.558
 6065SOL    HW230227   3.091   0.756   0.577
 6066SOL     OW30228   2.563   7.287   6.442
 6066SOL    HW130229   2.485   7.325   6.392
 6066SOL    HW230230   2.532   7.221   6.510
 6067SOL     OW30231   9.049   1.123   0.420
 6067SOL    HW130232   8.967   1.125   0.362
 6067SOL    HW230233   9.086   1.030   0.420
 6068SOL     OW30234   7.179   7.311   1.547
 6068SOL    HW130235   7.202   7.217   1.572
 6068SOL    HW230236   7.119   7.350   1.618
 6069SOL     OW30237   3.696   3.999   6.905
 6069SOL    HW130238   3.748   4.071   6.860
 6069SOL    HW230239   3.601   4.030   6.918
 6070SOL     OW30240   5.984   0.839   5.657
 6070SOL    HW130241   5.886   0.841   5.636
 6070SOL    HW230242   6.031   0.906   5.600
 6071SOL     OW30243   3.642   0.373   6.829
 6071SOL    HW130244   3.565   0.347   6.886
 6071SOL    HW230245   3.616   0.368   6.733
 6072SOL     OW30246   9.012   7.349   6.075
 6072SOL    HW130247   8.945   7.361   6.148
 6072SOL    HW230248   9.094   7.403   6.094
 6073SOL     OW30249   1.523   4.689   6.073
 6073SOL    HW130250   1.424   4.700   6.078
 6073SOL    HW230251   1.568   4.760   6.127
 6074SOL     OW30252   2.167   4.734   1.528
 6074SOL    HW130253   2.148   4.799   1.455
 6074SOL    HW230254   2.159   4.779   1.617
 6075SOL     OW30255   2.547   3.147   0.536
 6075SOL    HW130256   2.472   3.104   0.586
 6075SOL    HW230257   2.632   3.135   0.587
 6076SOL     OW30258   7.266   8.011   1.057
 6076SOL    HW130259   7.344   7.992   0.997
 6076SOL    HW230260   7.235   7.925   1.098
 6077SOL     OW30261   6.852   3.361   1.402
 6077SOL    HW130262   6.765   3.389   1.360
 6077SOL    HW230263   6.894   3.439   1.448
 6078SOL     OW30264   7.907   1.138   5.600
 6078SOL    HW130265   7.974   1.066   5.579
 6078SOL    HW230266   7.839   1.143   5.527
 6079SOL     OW30267   8.541   0.448   6.364
 6079SOL    HW130268   8.582   0.514   6.428
 6079SOL    HW230269   8.541   0.487   6.272
 6080SOL     OW30270   2.019   3.097   0.855
 6080SOL    HW130271   2.115   3.110   0.830
 6080SOL    HW230272   2.013   3.072   0.952
 6081SOL     OW30273   2.143   0.993   0.573
 6081SOL    HW130274   2.099   0.984   0.484
 6081SOL    HW230275   2.243   0.988   0.561
 6082SOL     OW30276   3.226   1.249   1.959
 6082SOL    HW130277   3.290   1.325   1.945
 6082SOL    HW230278   3.141   1.285   1.998
 6083SOL     OW30279   6.215   6.124   6.462
 6083SOL    HW130280   6.309   6.115   6.495
 6083SOL    HW230281   6.204   6.212   6.416
 6084SOL     OW30282   7.508   1.552   0.521
 6084SOL    HW130283   7.519   1.592   0.612
 6084SOL    HW230284   7.453   1.613   0.463
 6085SOL     OW30285   0.840   0.672   0.816
 6085SOL    HW130286   0.751   0.632   0.793
 6085SOL    HW230287   0.828   0.742   0.886
 6086SOL     OW30288   3.709   4.796   2.004
 6086SOL    HW130289   3.620   4.822   2.041
 6086SOL    HW230290   3.765   4.755   2.076
 6087SOL     OW30291   9.538   5.245   1.394
 6087SOL    HW130292   9.536   5.331   1.446
 6087SOL    HW230293   9.628   5.203   1.402
 6088SOL     OW30294   0.973   2.831   6.326
 6088SOL    HW130295   0.917   2.781   6.392
 6088SOL    HW230296   0.914   2.884   6.265
 6089SOL     OW30297   6.987   7.416   6.772
 6089SOL    HW130298   7.052   7.447   6.702
 6089SOL    HW230299   6.946   7.496   6.817
 6090SOL     OW30300   4.360   0.842   0.625
 6090SOL    HW130301   4.275   0.803   0.590
 6090SOL    HW230302   4.435   0.779   0.607
 6091SOL     OW30303   8.282   2.212   6.680
 6091SOL    HW130304   8.301   2.117   6.702
 6091SOL    HW230305   8.254   2.261   6.762
 6092SOL     OW30306   7.380   7.566   1.114
 6092SOL    HW130307   7.319   7.632   1.159
 6092SOL    HW230308   7.378   7.480   1.166
 6093SOL     OW30309   4.735   0.773   6.405
 6093SOL    HW130310   4.794   0.846   6.439
 6093SOL    HW230311   4.708   0.714   6.480
 6094SOL     OW30312   7.756   5.383   5.675
 6094SOL    HW130313   7.783   5.381   5.579
 6094SOL    HW230314   7.715   5.472   5.696
 6095SOL     OW30315   4.139   1.217   1.888
 6095SOL    HW130316   4.083   1.221   1.970
 6095SOL    HW230317   4.117   1.134   1.836
 6096SOL     OW30318   6.978   1.823   2.090
 6096SOL    HW130319   6.981   1.830   1.990
 6096SOL    HW230320   6.906   1.758   2.117
 6097SOL     OW30321   4.015   5.656   0.800
 6097SOL    HW130322   4.094   5.714   0.822
 6097SOL    HW230323   4.033   5.605   0.716
 6098SOL     OW30324   6.153   5.257   5.805
 6098SOL    HW130325   6.073   5.257   5.865
 6098SOL    HW230326   6.232   5.296   5.854
 6099SOL     OW30327   4.408   1.662   1.647
 6099SOL    HW130328   4.442   1.751   1.676
 6099SOL    HW230329   4.320   1.672   1.602
 6100SOL     OW30330   6.187   7.405   5.286
 6100SOL    HW130331   6.103   7.456   5.302
 6100SOL    HW230332   6.265   7.468   5.287
 6101SOL     OW30333   4.927   5.964   5.861
 6101SOL    HW130334   4.951   5.922   5.773
 6101SOL    HW230335   4.829   5.987   5.860
 6102SOL     OW30336   8.944   6.608   6.788
 6102SOL    HW130337   8.845   6.612   6.773
 6102SOL    HW230338   8.991   6.613   6.700
 6103SOL     OW30339   7.854   3.243   0.633
 6103SOL    HW130340   7.916   3.321   0.628
 6103SOL    HW230341   7.770   3.271   0.679
 6104SOL     OW30342   6.419   6.879   5.707
 6104SOL    HW130343   6.514   6.866   5.736
 6104SOL    HW230344   6.371   6.791   5.708
 6105SOL     OW30345   5.774   3.246   1.000
 6105SOL    HW130346   5.778   3.166   1.061
 6105SOL    HW230347   5.703   3.308   1.032
 6106SOL     OW30348   7.161   2.257   1.995
 6106SOL    HW130349   7.175   2.160   1.975
 6106SOL    HW230350   7.082   2.267   2.056
 6107SOL     OW30351   0.654   7.304   0.387
 6107SOL    HW130352   0.558   7.322   0.368
 6107SOL    HW230353   0.671   7.313   0.485
 6108SOL     OW30354   0.913   5.125   5.065
 6108SOL    HW130355   0.926   5.207   5.009
 6108SOL    HW230356   0.904   5.045   5.006
 6109SOL     OW30357   4.138   4.365   0.323
 6109SOL    HW130358   4.167   4.283   0.373
 6109SOL    HW230359   4.176   4.364   0.231
 6110SOL     OW30360   1.153   7.555   4.326
 6110SOL    HW130361   1.231   7.550   4.264
 6110SOL    HW230362   1.103   7.640   4.311
 6111SOL     OW30363   7.503   0.041   6.306
 6111SOL    HW130364   7.518   0.032   6.405
 6111SOL    HW230365   7.428  -0.020   6.278
 6112SOL     OW30366   3.090   1.085   6.002
 6112SOL    HW130367   3.140   1.036   5.930
 6112SOL    HW230368   3.048   1.020   6.064
 6113SOL     OW30369   6.627   1.321   0.636
 6113SOL    HW130370   6.684   1.363   0.707
 6113SOL    HW230371   6.531   1.330   0.662
 6114SOL     OW30372   2.194   5.459   6.631
 6114SOL    HW130373   2.134   5.450   6.710
 6114SOL    HW230374   2.286   5.483   6.661
 6115SOL     OW30375   4.429   7.469   1.778
 6115SOL    HW130376   4.443   7.371   1.790
 6115SOL    HW230377   4.512   7.519   1.805
 6116SOL     OW30378   6.610   8.346   1.051
 6116SOL    HW130379   6.651   8.258   1.027
 6116SOL    HW230380   6.530   8.362   0.994
 6117SOL     OW30381   1.170   7.804   5.730
 6117SOL    HW130382   1.095   7.784   5.793
 6117SOL    HW230383   1.136   7.804   5.636
 6118SOL     OW30384   1.716   0.412   0.667
 6118SOL    HW130385   1.764   0.500   0.661
 6118SOL    HW230386   1.620   0.428   0.691
 6119SOL     OW30387   3.779   4.081   2.013
 6119SOL    HW130388   3.798   4.109   2.107
 6119SOL    HW230389   3.688   4.113   1.987
 6120SOL     OW30390   9.272   5.463   0.749
 6120SOL    HW130391   9.330   5.382   0.742
 6120SOL    HW230392   9.282   5.503   0.841
 6121SOL     OW30393   0.390   0.894   1.561
 6121SOL    HW130394   0.293   0.915   1.544
 6121SOL    HW230395   0.398   0.840   1.645
 6122SOL     OW30396   9.137   1.785   1.051
 6122SOL    HW130397   9.062   1.831   1.003
 6122SOL    HW230398   9.135   1.810   1.148
 6123SOL     OW30399   1.885   4.822   4.875
 6123SOL    HW130400   1.844   4.857   4.791
 6123SOL    HW230401   1.835   4.742   4.906
 6124SOL     OW30402   2.491   7.569   1.445
 6124SOL    HW130403   2.410   7.555   1.387
 6124SOL    HW230404   2.463   7.612   1.531
 6125SOL     OW30405   6.970   7.080   6.256
 6125SOL    HW130406   6.893   7.099   6.195
 6125SOL    HW230407   7.045   7.142   6.236
 6126SOL     OW30408   6.186   8.251   1.779
 6126SOL    HW130409   6.226   8.268   1.868
 6126SOL    HW230410   6.253   8.273   1.707
 6127SOL     OW30411   3.184   4.240   5.817
 6127SOL    HW130412   3.222   4.186   5.742
 6127SOL    HW230413   3.232   4.218   5.902
 6128SOL     OW30414   2.827   0.859   6.605
 6128SOL    HW130415   2.778   0.832   6.688
 6128SOL    HW230416   2.837   0.958   6.602
 6129SOL     OW30417   3.006   1.707   6.653
 6129SOL    HW130418   2.975   1.620   6.691
 6129SOL    HW230419   2.941   1.737   6.582
 6130SOL     OW30420   3.115   6.864   6.630
 6130SOL    HW130421   3.056   6.942   6.648
 6130SOL    HW230422   3.199   6.896   6.586
 6131SOL     OW30423   4.470   4.099   6.507
 6131SOL    HW130424   4.455   4.115   6.409
 6131SOL    HW230425   4.542   4.160   6.540
 6132SOL     OW30426   0.187   6.142   0.351
 6132SOL    HW130427   0.256   6.071   0.363
 6132SOL    HW230428   0.119   6.112   0.284
 6133SOL     OW30429   7.040   6.980   5.762
 6133SOL    HW130430   7.072   7.052   5.823
 6133SOL    HW230431   7.119   6.931   5.724
 6134SOL     OW30432   5.913   7.725   1.490
 6134SOL    HW130433   5.944   7.696   1.580
 6134SOL    HW230434   5.932   7.822   1.478
 6135SOL     OW30435   7.486   4.856   1.167
 6135SOL    HW130436   7.412   4.898   1.114
 6135SOL    HW230437   7.514   4.919   1.239
 6136SOL     OW30438   6.610   5.790   0.924
 6136SOL    HW130439   6.555   5.840   0.991
 6136SOL    HW230440   6.643   5.854   0.855
 6137SOL     OW30441   4.172   0.183   6.407
 6137SOL    HW130442   4.195   0.114   6.477
 6137SOL    HW230443   4.224   0.165   6.324
 6138SOL     OW30444   0.622   3.364   0.676
 6138SOL    HW130445   0.606   3.454   0.635
 6138SOL    HW230446   0.536   3.330   0.714
 6139SOL     OW30447   4.032   3.894   6.707
 6139SOL    HW130448   4.006   3.971   6.765
 6139SOL    HW230449   4.117   3.854   6.741
 6140SOL     OW30450   4.618   6.101   6.198
 6140SOL    HW130451   4.581   6.095   6.291
 6140SOL    HW230452   4.708   6.058   6.194
 6141SOL     OW30453   0.880   3.363   0.822
 6141SOL    HW130454   0.950   3.387   0.755
 6141SOL    HW230455   0.790   3.384   0.786
 6142SOL     OW30456   2.336   0.151   6.089
 6142SOL    HW130457   2.257   0.123   6.033
 6142SOL    HW230458   2.328   0.248   6.112
 6143SOL     OW30459   3.179   7.769   6.223
 6143SOL    HW130460   3.088   7.791   6.189
 6143SOL    HW230461   3.245   7.834   6.184
 6144SOL     OW30462   4.222   6.840   0.659
 6144SOL    HW130463   4.172   6.823   0.575
 6144SOL    HW230464   4.203   6.767   0.725
 6145SOL     OW30465   1.482   2.641   0.417
 6145SOL    HW130466   1.565   2.644   0.471
 6145SOL    HW230467   1.432   2.556   0.436
 6146SOL     OW30468   3.141   3.630   5.915
 6146SOL    HW130469   3.160   3.550   5.858
 6146SOL    HW230470   3.132   3.711   5.858
 6147SOL     OW30471   2.253   1.496   6.590
 6147SOL    HW130472   2.242   1.462   6.496
 6147SOL    HW230473   2.167   1.487   6.639
 6148SOL     OW30474   1.820   4.213   6.204
 6148SOL    HW130475   1.734   4.236   6.159
 6148SOL    HW230476   1.884   4.289   6.196
 6149SOL     OW30477   4.944   7.193   0.689
 6149SOL    HW130478   5.041   7.214   0.678
 6149SOL    HW230479   4.922   7.184   0.786
 6150SOL     OW30480   1.680   7.209   1.442
 6150SOL    HW130481   1.637   7.135   1.493
 6150SOL    HW230482   1.618   7.287   1.438
 6151SOL     OW30483   9.596   8.023   5.136
 6151SOL    HW130484   9.689   8.018   5.172
 6151SOL    HW230485   9.583   8.112   5.092
 6152SOL     OW30486   8.801   3.794   5.939
 6152SOL    HW130487   8.722   3.826   5.887
 6152SOL    HW230488   8.868   3.753   5.877
 6153SOL     OW30489   5.904   8.400   2.074
 6153SOL    HW130490   5.835   8.330   2.091
 6153SOL    HW230491   5.922   8.450   2.159
 6154SOL     OW30492   7.346   0.278   1.495
 6154SOL    HW130493   7.389   0.197   1.535
 6154SOL    HW230494   7.254   0.290   1.535
 6155SOL     OW30495   6.593   2.700   6.558
 6155SOL    HW130496   6.561   2.746   6.475
 6155SOL    HW230497   6.663   2.757   6.603
 6156SOL     OW30498   2.080   3.664   6.217
 6156SOL    HW130499   2.018   3.632   6.145
 6156SOL    HW230500   2.043   3.640   6.307
 6157SOL     OW30501   6.252   6.051   6.892
 6157SOL    HW130502   6.171   5.994   6.900
 6157SOL    HW230503   6.302   6.026   6.808
 6158SOL     OW30504   3.696   2.973   1.251
 6158SOL    HW130505   3.612   2.993   1.200
 6158SOL    HW230506   3.741   2.893   1.212
 6159SOL     OW30507   1.159   8.224   6.276
 6159SOL    HW130508   1.109   8.275   6.346
 6159SOL    HW230509   1.247   8.267   6.260
 6160SOL     OW30510   7.307   5.310   6.116
 6160SOL    HW130511   7.233   5.318   6.183
 6160SOL    HW230512   7.272   5.268   6.033
 6161SOL     OW30513   9.213   1.529   5.991
 6161SOL    HW130514   9.172   1.619   5.976
 6161SOL    HW230515   9.312   1.535   5.982
 6162SOL     OW30516   6.834   7.335   5.480
 6162SOL    HW130517   6.809   7.243   5.511
 6162SOL    HW230518   6.789   7.354   5.393
 6163SOL     OW30519   1.448   6.858   6.375
 6163SOL    HW130520   1.463   6.919   6.453
 6163SOL    HW230521   1.490   6.769   6.394
 6164SOL     OW30522   2.549   1.742   1.070
 6164SOL    HW130523   2.541   1.644   1.057
 6164SOL    HW230524   2.462   1.779   1.103
 6165SOL     OW30525   8.491   1.120   6.030
 6165SOL    HW130526   8.537   1.044   5.984
 6165SOL    HW230527   8.401   1.134   5.989
 6166SOL     OW30528   2.970   5.883   6.427
 6166SOL    HW130529   2.987   5.981   6.418
 6166SOL    HW230530   3.014   5.849   6.511
 6167SOL     OW30531   3.390   1.333   2.215
 6167SOL    HW130532   3.392   1.233   2.221
 6167SOL    HW230533   3.466   1.371   2.267
 6168SOL     OW30534   4.646   5.993   1.887
 6168SOL    HW130535   4.712   5.946   1.946
 6168SOL    HW230536   4.693   6.029   1.807
 6169SOL     OW30537   1.195   4.519   0.639
 6169SOL    HW130538   1.096   4.522   0.624
 6169SOL    HW230539   1.242   4.502   0.553
 6170SOL     OW30540   1.571   0.675   6.037
 6170SOL    HW130541   1.559   0.774   6.038
 6170SOL    HW230542   1.482   0.630   6.039
 6171SOL     OW30543   6.313   7.468   0.608
 6171SOL    HW130544   6.288   7.376   0.576
 6171SOL    HW230545   6.230   7.520   0.628
 6172SOL     OW30546   1.409   0.204   6.010
 6172SOL    HW130547   1.401   0.276   6.079
 6172SOL    HW230548   1.499   0.161   6.017
 6173SOL     OW30549   3.499   2.921   1.690
 6173SOL    HW130550   3.495   2.930   1.590
 6173SOL    HW230551   3.592   2.943   1.721
 6174SOL     OW30552   2.954   3.430   0.600
 6174SOL    HW130553   3.003   3.352   0.639
 6174SOL    HW230554   2.994   3.455   0.512
 6175SOL     OW30555   0.144   3.179   0.926
 6175SOL    HW130556   0.127   3.275   0.947
 6175SOL    HW230557   0.202   3.139   0.998
 6176SOL     OW30558   6.810   4.920   6.219
 6176SOL    HW130559   6.831   4.919   6.122
 6176SOL    HW230560   6.828   5.011   6.257
 6177SOL     OW30561   2.887   5.557   6.300
 6177SOL    HW130562   2.892   5.646   6.346
 6177SOL    HW230563   2.979   5.519   6.291
 6178SOL     OW30564   3.639   7.851   6.736
 6178SOL    HW130565   3.627   7.934   6.682
 6178SOL    HW230566   3.552   7.802   6.741
 6179SOL     OW30567   7.025   3.946   0.834
 6179SOL    HW130568   7.040   3.951   0.735
 6179SOL    HW230569   7.101   3.989   0.882
 6180SOL     OW30570   4.339   0.525   6.793
 6180SOL    HW130571   4.336   0.458   6.719
 6180SOL    HW230572   4.361   0.615   6.757
 6181SOL     OW30573   6.343   5.986   0.877
 6181SOL    HW130574   6.349   6.037   0.791
 6181SOL    HW230575   6.426   6.003   0.931
 6182SOL     OW30576   8.219   6.092   0.643
 6182SOL    HW130577   8.240   6.141   0.727
 6182SOL    HW230578   8.121   6.074   0.638
 6183SOL     OW30579   4.424   0.015   1.262
 6183SOL    HW130580   4.489  -0.050   1.300
 6183SOL    HW230581   4.333  -0.026   1.262
 6184SOL     OW30582   3.249   7.337   1.860
 6184SOL    HW130583   3.171   7.384   1.819
 6184SOL    HW230584   3.270   7.378   1.949
 6185SOL     OW30585   4.630   5.432   5.506
 6185SOL    HW130586   4.578   5.387   5.433
 6185SOL    HW230587   4.713   5.471   5.468
 6186SOL     OW30588   3.095   7.246   5.614
 6186SOL    HW130589   3.084   7.147   5.610
 6186SOL    HW230590   3.156   7.276   5.541
 6187SOL     OW30591   9.462   7.272   6.324
 6187SOL    HW130592   9.520   7.349   6.353
 6187SOL    HW230593   9.514   7.187   6.330
 6188SOL     OW30594   2.848   0.808   1.703
 6188SOL    HW130595   2.887   0.729   1.749
 6188SOL    HW230596   2.749   0.797   1.695
 6189SOL     OW30597   4.835   3.207   6.913
 6189SOL    HW130598   4.754   3.163   6.875
 6189SOL    HW230599   4.917   3.168   6.872
 6190SOL     OW30600   8.223   4.671   0.811
 6190SOL    HW130601   8.285   4.616   0.755
 6190SOL    HW230602   8.129   4.659   0.778
 6191SOL     OW30603   2.399   2.575   1.266
 6191SOL    HW130604   2.325   2.509   1.279
 6191SOL    HW230605   2.383   2.654   1.325
 6192SOL     OW30606   4.813   0.449   5.658
 6192SOL    HW130607   4.869   0.516   5.608
 6192SOL    HW230608   4.733   0.496   5.698
 6193SOL     OW30609   8.678   3.441   0.471
 6193SOL    HW130610   8.579   3.431   0.475
 6193SOL    HW230611   8.711   3.405   0.383
 6194SOL     OW30612   4.860   0.687   5.011
 6194SOL    HW130613   4.780   0.745   5.021
 6194SOL    HW230614   4.929   0.733   4.956
 6195SOL     OW30615   8.232   6.634   4.946
 6195SOL    HW130616   8.157   6.630   5.012
 6195SOL    HW230617   8.221   6.560   4.880
 6196SOL     OW30618   5.478   5.205   1.495
 6196SOL    HW130619   5.536   5.194   1.576
 6196SOL    HW230620   5.536   5.218   1.414
 6197SOL     OW30621   1.756   6.810   5.247
 6197SOL    HW130622   1.840   6.757   5.261
 6197SOL    HW230623   1.739   6.819   5.148
 6198SOL     OW30624   2.534   2.327   1.073
 6198SOL    HW130625   2.512   2.270   0.994
 6198SOL    HW230626   2.588   2.406   1.044
 6199SOL     OW30627   7.246   4.057   1.001
 6199SOL    HW130628   7.279   3.992   1.069
 6199SOL    HW230629   7.264   4.150   1.033
 6200SOL     OW30630   0.677   6.024   6.974
 6200SOL    HW130631   0.670   5.982   6.883
 6200SOL    HW230632   0.595   6.002   7.026
 6201SOL     OW30633   1.708   7.309   0.729
 6201SOL    HW130634   1.666   7.240   0.788
 6201SOL    HW230635   1.775   7.361   0.782
 6202SOL     OW30636   0.545   0.580   0.326
 6202SOL    HW130637   0.606   0.659   0.324
 6202SOL    HW230638   0.491   0.581   0.411
 6203SOL     OW30639   5.295   6.482   5.343
 6203SOL    HW130640   5.205   6.512   5.314
 6203SOL    HW230641   5.322   6.401   5.290
 6204SOL     OW30642   1.473   1.106   1.091
 6204SOL    HW130643   1.436   1.094   1.183
 6204SOL    HW230644   1.477   1.017   1.045
 6205SOL     OW30645   6.531   5.935   6.828
 6205SOL    HW130646   6.494   5.843   6.816
 6205SOL    HW230647   6.594   5.936   6.905
 6206SOL     OW30648   3.850   2.874   6.429
 6206SOL    HW130649   3.837   2.858   6.331
 6206SOL    HW230650   3.915   2.948   6.443
 6207SOL     OW30651   8.430   2.628   6.386
 6207SOL    HW130652   8.403   2.622   6.290
 6207SOL    HW230653   8.469   2.540   6.415
 6208SOL     OW30654   0.871   7.170   1.686
 6208SOL    HW130655   0.821   7.246   1.728
 6208SOL    HW230656   0.880   7.096   1.752
 6209SOL     OW30657   5.781   0.493   1.181
 6209SOL    HW130658   5.758   0.416   1.240
 6209SOL    HW230659   5.865   0.472   1.131
 6210SOL     OW30660   8.828   7.080   6.775
 6210SOL    HW130661   8.896   7.118   6.837
 6210SOL    HW230662   8.737   7.111   6.802
 6211SOL     OW30663   9.352   2.275   6.170
 6211SOL    HW130664   9.404   2.196   6.138
 6211SOL    HW230665   9.260   2.272   6.130
 6212SOL     OW30666   2.279   7.129   5.722
 6212SOL    HW130667   2.291   7.159   5.628
 6212SOL    HW230668   2.321   7.039   5.734
 6213SOL     OW30669   1.182   6.920   4.790
 6213SOL    HW130670   1.257   6.892   4.730
 6213SOL    HW230671   1.188   6.871   4.877
 6214SOL     OW30672   9.442   0.233   0.959
 6214SOL    HW130673   9.386   0.160   0.920
 6214SOL    HW230674   9.538   0.214   0.941
 6215SOL     OW30675   1.942   7.771   1.175
 6215SOL    HW130676   1.965   7.696   1.237
 6215SOL    HW230677   1.973   7.750   1.083
 6216SOL     OW30678   3.772   7.129   1.282
 6216SOL    HW130679   3.826   7.082   1.352
 6216SOL    HW230680   3.781   7.228   1.294
 6217SOL     OW30681   5.631   7.354   6.891
 6217SOL    HW130682   5.570   7.346   6.812
 6217SOL    HW230683   5.680   7.268   6.904
 6218SOL     OW30684   8.885   3.834   1.108
 6218SOL    HW130685   8.881   3.740   1.142
 6218SOL    HW230686   8.975   3.872   1.129
 6219SOL     OW30687   9.456   2.801   0.635
 6219SOL    HW130688   9.472   2.759   0.545
 6219SOL    HW230689   9.530   2.776   0.697
 6220SOL     OW30690   6.568   0.580   0.857
 6220SOL    HW130691   6.549   0.676   0.834
 6220SOL    HW230692   6.506   0.551   0.930
 6221SOL     OW30693   9.562   1.310   0.838
 6221SOL    HW130694   9.487   1.374   0.856
 6221SOL    HW230695   9.648   1.349   0.871
 6222SOL     OW30696   7.972   3.596   2.084
 6222SOL    HW130697   7.923   3.616   2.168
 6222SOL    HW230698   7.982   3.497   2.075
 6223SOL     OW30699   6.166   0.988   6.769
 6223SOL    HW130700   6.216   0.957   6.688
 6223SOL    HW230701   6.230   1.006   6.843
 6224SOL     OW30702   3.984   4.536   0.765
 6224SOL    HW130703   4.039   4.618   0.778
 6224SOL    HW230704   3.912   4.532   0.835
 6225SOL     OW30705   6.715   1.558   5.812
 6225SOL    HW130706   6.654   1.532   5.737
 6225SOL    HW230707   6.777   1.630   5.782
 6226SOL     OW30708   0.294   0.200   0.676
 6226SOL    HW130709   0.261   0.107   0.692
 6226SOL    HW230710   0.386   0.209   0.715
 6227SOL     OW30711   4.382   4.693   0.809
 6227SOL    HW130712   4.362   4.653   0.720
 6227SOL    HW230713   4.297   4.710   0.858
 6228SOL     OW30714   6.071   6.597   1.229
 6228SOL    HW130715   6.127   6.623   1.151
 6228SOL    HW230716   6.025   6.511   1.210
 6229SOL     OW30717   4.644   3.086   6.773
 6229SOL    HW130718   4.612   2.997   6.739
 6229SOL    HW230719   4.690   3.135   6.699
 6230SOL     OW30720   9.241   5.393   6.646
 6230SOL    HW130721   9.339   5.379   6.638
 6230SOL    HW230722   9.223   5.474   6.702
 6231SOL     OW30723   9.462   8.368   0.936
 6231SOL    HW130724   9.498   8.414   1.017
 6231SOL    HW230725   9.390   8.424   0.895
 6232SOL     OW30726   6.657   2.457   1.535
 6232SOL    HW130727   6.591   2.444   1.461
 6232SOL    HW230728   6.623   2.526   1.599
 6233SOL     OW30729   5.606   4.675   1.544
 6233SOL    HW130730   5.621   4.770   1.571
 6233SOL    HW230731   5.584   4.621   1.625
 6234SOL     OW30732   0.627   7.031   4.140
 6234SOL    HW130733   0.716   6.988   4.154
 6234SOL    HW230734   0.639   7.130   4.133
 6235SOL     OW30735   7.737   1.896   0.863
 6235SOL    HW130736   7.808   1.848   0.915
 6235SOL    HW230737   7.757   1.994   0.861
 6236SOL     OW30738   5.079   0.696   1.445
 6236SOL    HW130739   5.155   0.703   1.509
 6236SOL    HW230740   5.016   0.625   1.476
 6237SOL     OW30741   9.052   4.234   6.142
 6237SOL    HW130742   9.135   4.185   6.115
 6237SOL    HW230743   8.975   4.201   6.087
 6238SOL     OW30744   7.773   7.186   6.311
 6238SOL    HW130745   7.813   7.233   6.390
 6238SOL    HW230746   7.801   7.090   6.313
 6239SOL     OW30747   5.635   5.077   0.396
 6239SOL    HW130748   5.575   5.018   0.450
 6239SOL    HW230749   5.719   5.093   0.446
 6240SOL     OW30750   7.673   2.419   5.880
 6240SOL    HW130751   7.635   2.506   5.850
 6240SOL    HW230752   7.773   2.424   5.878
 6241SOL     OW30753   6.838   3.349   6.126
 6241SOL    HW130754   6.844   3.328   6.028
 6241SOL    HW230755   6.744   3.339   6.156
 6242SOL     OW30756   7.710   4.638   6.878
 6242SOL    HW130757   7.616   4.672   6.880
 6242SOL    HW230758   7.723   4.573   6.953
 6243SOL     OW30759   7.852   2.144   0.877
 6243SOL    HW130760   7.852   2.209   0.801
 6243SOL    HW230761   7.941   2.146   0.923
 6244SOL     OW30762   6.414   4.124   5.072
 6244SOL    HW130763   6.372   4.177   4.999
 6244SOL    HW230764   6.358   4.131   5.155
 6245SOL     OW30765   2.799   2.424   0.317
 6245SOL    HW130766   2.776   2.348   0.257
 6245SOL    HW230767   2.722   2.444   0.377
 6246SOL     OW30768   1.654   6.306   1.431
 6246SOL    HW130769   1.743   6.270   1.405
 6246SOL    HW230770   1.631   6.275   1.524
 6247SOL     OW30771   8.658   7.780   6.318
 6247SOL    HW130772   8.663   7.783   6.218
 6247SOL    HW230773   8.600   7.704   6.347
 6248SOL     OW30774   0.904   7.711   6.935
 6248SOL    HW130775   0.884   7.613   6.937
 6248SOL    HW230776   0.993   7.728   6.978
 6249SOL     OW30777   3.192   6.395   6.202
 6249SOL    HW130778   3.188   6.355   6.110
 6249SOL    HW230779   3.271   6.358   6.250
 6250SOL     OW30780   0.158   8.383   1.164
 6250SOL    HW130781   0.241   8.386   1.109
 6250SOL    HW230782   0.127   8.288   1.171
 6251SOL     OW30783   4.796   0.285   0.465
 6251SOL    HW130784   4.861   0.239   0.526
 6251SOL    HW230785   4.730   0.218   0.430
 6252SOL     OW30786   5.055   0.963   0.854
 6252SOL    HW130787   4.973   1.019   0.855
 6252SOL    HW230788   5.032   0.871   0.822
 6253SOL     OW30789   0.259   4.222   6.299
 6253SOL    HW130790   0.241   4.314   6.266
 6253SOL    HW230791   0.350   4.193   6.271
 6254SOL     OW30792   6.911   4.976   5.588
 6254SOL    HW130793   6.825   4.924   5.587
 6254SOL    HW230794   6.916   5.034   5.507
 6255SOL     OW30795   8.494   7.416   1.219
 6255SOL    HW130796   8.477   7.511   1.193
 6255SOL    HW230797   8.592   7.399   1.222
 6256SOL     OW30798   7.441   5.019   1.552
 6256SOL    HW130799   7.412   5.012   1.648
 6256SOL    HW230800   7.518   4.958   1.537
 6257SOL     OW30801   8.175   6.573   6.388
 6257SOL    HW130802   8.104   6.554   6.321
 6257SOL    HW230803   8.247   6.628   6.346
 6258SOL     OW30804   0.937   6.775   1.582
 6258SOL    HW130805   0.986   6.862   1.571
 6258SOL    HW230806   0.983   6.720   1.651
 6259SOL     OW30807   1.055   7.607   1.158
 6259SOL    HW130808   1.084   7.532   1.099
 6259SOL    HW230809   1.091   7.592   1.251
 6260SOL     OW30810   5.081   0.129   6.635
 6260SOL    HW130811   5.026   0.183   6.697
 6260SOL    HW230812   5.147   0.188   6.588
 6261SOL     OW30813   4.588   2.110   0.984
 6261SOL    HW130814   4.557   2.021   0.952
 6261SOL    HW230815   4.657   2.098   1.056
 6262SOL     OW30816   6.831   6.692   6.399
 6262SOL    HW130817   6.858   6.679   6.303
 6262SOL    HW230818   6.887   6.634   6.457
 6263SOL     OW30819   4.974   4.343   1.123
 6263SOL    HW130820   5.041   4.418   1.118
 6263SOL    HW230821   5.014   4.261   1.082
 6264SOL     OW30822   8.405   3.068   5.891
 6264SOL    HW130823   8.390   3.100   5.797
 6264SOL    HW230824   8.391   2.969   5.895
 6265SOL     OW30825   8.675   0.556   0.548
 6265SOL    HW130826   8.745   0.507   0.600
 6265SOL    HW230827   8.627   0.493   0.488
 6266SOL     OW30828   3.382   8.431   6.874
 6266SOL    HW130829   3.295   8.459   6.915
 6266SOL    HW230830   3.370   8.420   6.775
 6267SOL     OW30831   8.432   6.602   1.699
 6267SOL    HW130832   8.423   6.549   1.783
 6267SOL    HW230833   8.344   6.605   1.651
 6268SOL     OW30834   0.745   0.549   0.543
 6268SOL    HW130835   0.764   0.522   0.637
 6268SOL    HW230836   0.787   0.483   0.480
 6269SOL     OW30837   6.520   3.037   6.641
 6269SOL    HW130838   6.426   3.072   6.638
 6269SOL    HW230839   6.570   3.071   6.561
 6270SOL     OW30840   2.268   2.277   6.470
 6270SOL    HW130841   2.283   2.179   6.474
 6270SOL    HW230842   2.189   2.296   6.411
 6271SOL     OW30843   7.286   7.903   6.067
 6271SOL    HW130844   7.296   7.803   6.065
 6271SOL    HW230845   7.194   7.926   6.098
 6272SOL     OW30846   4.796   3.725   1.716
 6272SOL    HW130847   4.697   3.729   1.721
 6272SOL    HW230848   4.833   3.710   1.808
 6273SOL     OW30849   5.151   2.003   0.507
 6273SOL    HW130850   5.089   2.064   0.556
 6273SOL    HW230851   5.233   2.053   0.481
 6274SOL     OW30852   3.319   6.401   0.806
 6274SOL    HW130853   3.350   6.456   0.883
 6274SOL    HW230854   3.369   6.315   0.803
 6275SOL     OW30855   4.835   6.773   5.855
 6275SOL    HW130856   4.836   6.688   5.908
 6275SOL    HW230857   4.753   6.825   5.878
 6276SOL     OW30858   8.273   2.256   5.654
 6276SOL    HW130859   8.194   2.208   5.616
 6276SOL    HW230860   8.355   2.233   5.601
 6277SOL     OW30861   1.548   6.640   6.961
 6277SOL    HW130862   1.622   6.706   6.974
 6277SOL    HW230863   1.538   6.621   6.863
 6278SOL     OW30864   7.811   7.145   1.882
 6278SOL    HW130865   7.831   7.047   1.884
 6278SOL    HW230866   7.858   7.190   1.958
 6279SOL     OW30867   2.182   7.518   5.992
 6279SOL    HW130868   2.127   7.539   6.073
 6279SOL    HW230869   2.188   7.419   5.980
 6280SOL     OW30870   3.219   8.064   0.826
 6280SOL    HW130871   3.221   7.964   0.820
 6280SOL    HW230872   3.309   8.098   0.851
 6281SOL     OW30873   7.084   4.457   5.689
 6281SOL    HW130874   7.160   4.512   5.655
 6281SOL    HW230875   7.076   4.373   5.635
 6282SOL     OW30876   3.241   6.862   6.994
 6282SOL    HW130877   3.207   6.768   6.996
 6282SOL    HW230878   3.333   6.863   6.956
 6283SOL     OW30879   3.982   8.154   5.929
 6283SOL    HW130880   3.985   8.248   5.895
 6283SOL    HW230881   4.072   8.128   5.964
 6284SOL     OW30882   5.348   7.606   0.427
 6284SOL    HW130883   5.293   7.690   0.429
 6284SOL    HW230884   5.434   7.622   0.475
 6285SOL     OW30885   2.234   6.205   6.677
 6285SOL    HW130886   2.211   6.228   6.583
 6285SOL    HW230887   2.252   6.289   6.729
 6286SOL     OW30888   7.284   0.866   6.839
 6286SOL    HW130889   7.325   0.818   6.917
 6286SOL    HW230890   7.265   0.801   6.765
 6287SOL     OW30891   5.257   3.067   6.713
 6287SOL    HW130892   5.179   3.109   6.667
 6287SOL    HW230893   5.248   2.967   6.709
 6288SOL     OW30894   7.851   4.721   1.076
 6288SOL    HW130895   7.870   4.817   1.057
 6288SOL    HW230896   7.828   4.710   1.173
 6289SOL     OW30897   3.799   7.971   0.823
 6289SOL    HW130898   3.726   7.967   0.755
 6289SOL    HW230899   3.768   7.925   0.906
 6290SOL     OW30900   2.059   8.238   1.942
 6290SOL    HW130901   2.156   8.229   1.966
 6290SOL    HW230902   2.027   8.153   1.901
 6291SOL     OW30903   9.437   0.447   6.101
 6291SOL    HW130904   9.438   0.468   6.003
 6291SOL    HW230905   9.513   0.385   6.123
 6292SOL     OW30906   4.265   4.145   0.405
 6292SOL    HW130907   4.289   4.073   0.470
 6292SOL    HW230908   4.281   4.112   0.312
 6293SOL     OW30909   0.309   0.831   0.502
 6293SOL    HW130910   0.246   0.900   0.467
 6293SOL    HW230911   0.364   0.871   0.575
 6294SOL     OW30912   6.001   0.236   1.433
 6294SOL    HW130913   6.074   0.179   1.396
 6294SOL    HW230914   5.999   0.323   1.385
 6295SOL     OW30915   6.270   7.900   5.905
 6295SOL    HW130916   6.208   7.822   5.895
 6295SOL    HW230917   6.289   7.939   5.815
 6296SOL     OW30918   3.390   5.932   0.494
 6296SOL    HW130919   3.464   5.984   0.453
 6296SOL    HW230920   3.304   5.953   0.447
 6297SOL     OW30921   4.270   7.457   5.731
 6297SOL    HW130922   4.246   7.535   5.673
 6297SOL    HW230923   4.187   7.412   5.762
 6298SOL     OW30924   1.616   1.745   6.797
 6298SOL    HW130925   1.621   1.830   6.745
 6298SOL    HW230926   1.545   1.752   6.867
 6299SOL     OW30927   7.617   4.971   5.116
 6299SOL    HW130928   7.703   4.919   5.116
 6299SOL    HW230929   7.627   5.051   5.175
 6300SOL     OW30930   8.346   1.309   1.098
 6300SOL    HW130931   8.342   1.330   1.000
 6300SOL    HW230932   8.257   1.275   1.128
 6301SOL     OW30933   0.420   0.609   0.562
 6301SOL    HW130934   0.373   0.534   0.609
 6301SOL    HW230935   0.357   0.685   0.549
 6302SOL     OW30936   8.808   6.037   5.909
 6302SOL    HW130937   8.720   6.017   5.866
 6302SOL    HW230938   8.882   6.014   5.846
 6303SOL     OW30939   7.553  -0.055   6.938
 6303SOL    HW130940   7.528  -0.121   7.009
 6303SOL    HW230941   7.518   0.035   6.963
 6304SOL     OW30942   2.373   0.353   6.607
 6304SOL    HW130943   2.431   0.317   6.679
 6304SOL    HW230944   2.285   0.382   6.646
 6305SOL     OW30945   9.418   5.479   6.154
 6305SOL    HW130946   9.368   5.453   6.236
 6305SOL    HW230947   9.508   5.516   6.181
 6306SOL     OW30948   6.500   4.573   6.432
 6306SOL    HW130949   6.574   4.612   6.377
 6306SOL    HW230950   6.533   4.491   6.479
 6307SOL     OW30951   6.429   7.679   6.804
 6307SOL    HW130952   6.371   7.697   6.883
 6307SOL    HW230953   6.377   7.690   6.720
 6308SOL     OW30954   2.950   3.485   1.009
 6308SOL    HW130955   3.028   3.509   0.952
 6308SOL    HW230956   2.914   3.567   1.053
 6309SOL     OW30957   7.277   2.089   0.473
 6309SOL    HW130958   7.203   2.048   0.527
 6309SOL    HW230959   7.249   2.092   0.377
 6310SOL     OW30960   4.230   3.313   1.169
 6310SOL    HW130961   4.146   3.266   1.194
 6310SOL    HW230962   4.210   3.380   1.097
 6311SOL     OW30963   3.786   4.903   0.847
 6311SOL    HW130964   3.730   4.975   0.806
 6311SOL    HW230965   3.883   4.922   0.831
 6312SOL     OW30966   4.055   1.354   1.533
 6312SOL    HW130967   4.129   1.288   1.522
 6312SOL    HW230968   4.071   1.409   1.615
 6313SOL     OW30969   7.946   0.286   6.200
 6313SOL    HW130970   7.898   0.281   6.113
 6313SOL    HW230971   8.045   0.278   6.185
 6314SOL     OW30972   2.031   4.450   6.105
 6314SOL    HW130973   1.942   4.494   6.116
 6314SOL    HW230974   2.100   4.501   6.157
 6315SOL     OW30975   4.011   0.871   1.467
 6315SOL    HW130976   4.038   0.899   1.375
 6315SOL    HW230977   3.971   0.779   1.464
 6316SOL     OW30978   7.722   0.754   5.015
 6316SOL    HW130979   7.790   0.817   5.053
 6316SOL    HW230980   7.668   0.801   4.945
 6317SOL     OW30981   6.003   7.629   6.539
 6317SOL    HW130982   5.921   7.608   6.593
 6317SOL    HW230983   5.992   7.594   6.446
 6318SOL     OW30984   1.603   2.693   5.426
 6318SOL    HW130985   1.696   2.657   5.426
 6318SOL    HW230986   1.605   2.791   5.406
 6319SOL     OW30987   7.036   3.665   0.703
 6319SOL    HW130988   7.097   3.593   0.737
 6319SOL    HW230989   6.942   3.644   0.729
 6320SOL     OW30990   1.643   2.498   6.280
 6320SOL    HW130991   1.583   2.459   6.350
 6320SOL    HW230992   1.590   2.560   6.222
 6321SOL     OW30993   5.834   2.240   2.000
 6321SOL    HW130994   5.888   2.321   1.977
 6321SOL    HW230995   5.794   2.202   1.916
 6322SOL     OW30996   3.459   6.861   5.665
 6322SOL    HW130997   3.364   6.892   5.668
 6322SOL    HW230998   3.509   6.912   5.594
 6323SOL     OW30999   6.762   2.528   6.386
 6323SOL    HW131000   6.725   2.588   6.457
 6323SOL    HW231001   6.809   2.583   6.317
 6324SOL     OW31002   0.822   7.057   5.190
 6324SOL    HW131003   0.737   7.046   5.242
 6324SOL    HW231004   0.859   6.967   5.168
 6325SOL     OW31005   7.477   5.079   6.587
 6325SOL    HW131006   7.400   5.128   6.629
 6325SOL    HW231007   7.490   4.992   6.634
 6326SOL     OW31008   1.130   6.937   6.040
 6326SOL    HW131009   1.039   6.900   6.019
 6326SOL    HW231010   1.197   6.863   6.034
 6327SOL     OW31011   5.823   2.835   1.601
 6327SOL    HW131012   5.800   2.855   1.696
 6327SOL    HW231013   5.830   2.920   1.549
 6328SOL     OW31014   7.760   4.092   2.105
 6328SOL    HW131015   7.839   4.048   2.065
 6328SOL    HW231016   7.750   4.184   2.067
 6329SOL     OW31017   4.465   6.135   5.968
 6329SOL    HW131018   4.407   6.214   5.986
 6329SOL    HW231019   4.531   6.124   6.043
 6330SOL     OW31020   8.421   0.579   6.882
 6330SOL    HW131021   8.411   0.607   6.977
 6330SOL    HW231022   8.347   0.516   6.857
 6331SOL     OW31023   0.526   2.829   5.457
 6331SOL    HW131024   0.511   2.909   5.398
 6331SOL    HW231025   0.522   2.746   5.402
 6332SOL     OW31026   7.412   4.675   6.263
 6332SOL    HW131027   7.489   4.700   6.323
 6332SOL    HW231028   7.333   4.650   6.320
 6333SOL     OW31029   0.906   2.004   6.899
 6333SOL    HW131030   0.962   2.047   6.829
 6333SOL    HW231031   0.866   1.919   6.863
 6334SOL     OW31032   1.877   4.989   1.180
 6334SOL    HW131033   1.790   4.941   1.171
 6334SOL    HW231034   1.898   5.035   1.094
 6335SOL     OW31035   7.960   8.158   0.334
 6335SOL    HW131036   7.963   8.236   0.397
 6335SOL    HW231037   7.964   8.073   0.387
 6336SOL     OW31038   2.864   5.206   6.103
 6336SOL    HW131039   2.864   5.167   6.195
 6336SOL    HW231040   2.951   5.186   6.058
 6337SOL     OW31041   3.813   7.541   6.763
 6337SOL    HW131042   3.721   7.504   6.749
 6337SOL    HW231043   3.845   7.516   6.854
 6338SOL     OW31044   0.789   6.398   6.846
 6338SOL    HW131045   0.753   6.481   6.804
 6338SOL    HW231046   0.889   6.397   6.835
 6339SOL     OW31047   6.378   2.640   1.011
 6339SOL    HW131048   6.425   2.557   0.981
 6339SOL    HW231049   6.413   2.667   1.101
 6340SOL     OW31050   1.533   5.273   1.476
 6340SOL    HW131051   1.589   5.331   1.536
 6340SOL    HW231052   1.540   5.178   1.507
 6341SOL     OW31053   1.479   1.884   5.114
 6341SOL    HW131054   1.566   1.931   5.105
 6341SOL    HW231055   1.470   1.816   5.041
 6342SOL     OW31056   9.565   4.500   6.437
 6342SOL    HW131057   9.625   4.544   6.505
 6342SOL    HW231058   9.581   4.401   6.438
 6343SOL     OW31059   2.702   5.936   6.898
 6343SOL    HW131060   2.648   6.008   6.855
 6343SOL    HW231061   2.749   5.972   6.978
 6344SOL     OW31062   5.420   1.642   6.559
 6344SOL    HW131063   5.496   1.601   6.509
 6344SOL    HW231064   5.334   1.609   6.520
 6345SOL     OW31065   5.010   4.235   5.548
 6345SOL    HW131066   5.090   4.196   5.502
 6345SOL    HW231067   4.931   4.174   5.534
 6346SOL     OW31068   7.090   1.255   1.832
 6346SOL    HW131069   7.161   1.324   1.814
 6346SOL    HW231070   7.008   1.300   1.868
 6347SOL     OW31071   8.314   1.994   6.885
 6347SOL    HW131072   8.410   1.984   6.857
 6347SOL    HW231073   8.257   1.933   6.830
 6348SOL     OW31074   1.795   6.862   0.724
 6348SOL    HW131075   1.764   6.770   0.748
 6348SOL    HW231076   1.773   6.881   0.628
 6349SOL     OW31077   5.381   7.061   0.689
 6349SOL    HW131078   5.443   7.081   0.612
 6349SOL    HW231079   5.306   7.003   0.657
 6350SOL     OW31080   6.024   5.413   5.259
 6350SOL    HW131081   5.977   5.481   5.202
 6350SOL    HW231082   6.121   5.437   5.265
 6351SOL     OW31083   2.226   6.793   0.570
 6351SOL    HW131084   2.185   6.769   0.659
 6351SOL    HW231085   2.206   6.888   0.549
 6352SOL     OW31086   0.213   7.794   4.980
 6352SOL    HW131087   0.192   7.875   5.035
 6352SOL    HW231088   0.312   7.788   4.966
 6353SOL     OW31089   4.068   2.000   2.626
 6353SOL    HW131090   3.986   1.975   2.677
 6353SOL    HW231091   4.078   2.099   2.624
 6354SOL     OW31092   4.693   6.063   5.834
 6354SOL    HW131093   4.604   6.098   5.862
 6354SOL    HW231094   4.704   6.073   5.735
 6355SOL     OW31095   6.469  -0.033   7.000
 6355SOL    HW131096   6.401   0.019   6.948
 6355SOL    HW231097   6.463  -0.008   7.097
 6356SOL     OW31098   1.876   5.863   6.550
 6356SOL    HW131099   1.955   5.811   6.516
 6356SOL    HW231100   1.796   5.843   6.493
 6357SOL     OW31101   4.501   4.394   6.028
 6357SOL    HW131102   4.499   4.295   6.016
 6357SOL    HW231103   4.429   4.436   5.971
 6358SOL     OW31104   3.648   7.835   0.450
 6358SOL    HW131105   3.678   7.914   0.396
 6358SOL    HW231106   3.673   7.751   0.403
 6359SOL     OW31107   3.074   5.173   1.106
 6359SOL    HW131108   3.049   5.268   1.087
 6359SOL    HW231109   3.081   5.158   1.204
 6360SOL     OW31110   9.179   6.109   6.726
 6360SOL    HW131111   9.202   6.097   6.823
 6360SOL    HW231112   9.096   6.165   6.718
 6361SOL     OW31113   8.850   7.001   5.710
 6361SOL    HW131114   8.851   6.902   5.692
 6361SOL    HW231115   8.934   7.027   5.758
 6362SOL     OW31116   3.145   0.268   0.625
 6362SOL    HW131117   3.169   0.243   0.718
 6362SOL    HW231118   3.057   0.228   0.601
 6363SOL     OW31119   6.764   2.742   0.830
 6363SOL    HW131120   6.857   2.748   0.792
 6363SOL    HW231121   6.707   2.814   0.789
 6364SOL     OW31122   2.242   5.626   4.983
 6364SOL    HW131123   2.260   5.653   4.889
 6364SOL    HW231124   2.321   5.646   5.040
 6365SOL     OW31125   8.436   7.972   1.669
 6365SOL    HW131126   8.411   7.919   1.750
 6365SOL    HW231127   8.421   8.069   1.686
 6366SOL     OW31128   8.852   0.441   6.496
 6366SOL    HW131129   8.872   0.343   6.501
 6366SOL    HW231130   8.871   0.474   6.403
 6367SOL     OW31131   4.308   3.857   6.214
 6367SOL    HW131132   4.277   3.929   6.152
 6367SOL    HW231133   4.370   3.796   6.165
 6368SOL     OW31134   4.922   3.304   1.698
 6368SOL    HW131135   4.930   3.396   1.660
 6368SOL    HW231136   5.002   3.250   1.671
 6369SOL     OW31137   0.878   3.516   5.202
 6369SOL    HW131138   0.849   3.610   5.219
 6369SOL    HW231139   0.947   3.515   5.130
 6370SOL     OW31140   8.116   6.305   6.780
 6370SOL    HW131141   8.120   6.244   6.701
 6370SOL    HW231142   8.136   6.399   6.750
 6371SOL     OW31143   8.255   7.286   5.783
 6371SOL    HW131144   8.352   7.280   5.757
 6371SOL    HW231145   8.199   7.247   5.710
 6372SOL     OW31146   9.215   3.785   6.239
 6372SOL    HW131147   9.207   3.686   6.242
 6372SOL    HW231148   9.143   3.826   6.295
 6373SOL     OW31149   4.045   6.825   1.248
 6373SOL    HW131150   4.051   6.725   1.241
 6373SOL    HW231151   3.954   6.851   1.282
 6374SOL     OW31152   2.519   2.985   1.769
 6374SOL    HW131153   2.519   2.887   1.747
 6374SOL    HW231154   2.514   2.997   1.868
 6375SOL     OW31155   7.227   7.570   0.744
 6375SOL    HW131156   7.220   7.622   0.659
 6375SOL    HW231157   7.307   7.511   0.742
 6376SOL     OW31158   9.105   7.941   6.612
 6376SOL    HW131159   9.071   7.848   6.602
 6376SOL    HW231160   9.179   7.957   6.547
 6377SOL     OW31161   3.319   5.292   6.489
 6377SOL    HW131162   3.239   5.232   6.485
 6377SOL    HW231163   3.348   5.315   6.396
 6378SOL     OW31164   4.785   5.334   2.328
 6378SOL    HW131165   4.884   5.347   2.338
 6378SOL    HW231166   4.738   5.421   2.344
 6379SOL     OW31167   2.018   5.354   0.891
 6379SOL    HW131168   2.110   5.314   0.895
 6379SOL    HW231169   1.999   5.403   0.977
 6380SOL     OW31170   4.000   0.894   5.216
 6380SOL    HW131171   4.068   0.837   5.170
 6380SOL    HW231172   4.019   0.897   5.314
 6381SOL     OW31173   3.925   1.617   0.811
 6381SOL    HW131174   3.950   1.704   0.768
 6381SOL    HW231175   4.006   1.558   0.815
 6382SOL     OW31176   4.628   3.900   5.490
 6382SOL    HW131177   4.593   3.810   5.466
 6382SOL    HW231178   4.565   3.970   5.459
 6383SOL     OW31179   7.848   7.068   5.731
 6383SOL    HW131180   7.946   7.072   5.712
 6383SOL    HW231181   7.798   7.066   5.645
 6384SOL     OW31182   1.666   1.506   1.112
 6384SOL    HW131183   1.695   1.440   1.181
 6384SOL    HW231184   1.632   1.456   1.031
 6385SOL     OW31185   3.648   8.107   6.571
 6385SOL    HW131186   3.552   8.116   6.544
 6385SOL    HW231187   3.663   8.152   6.658
 6386SOL     OW31188   2.048   5.489   6.216
 6386SOL    HW131189   2.118   5.561   6.220
 6386SOL    HW231190   2.057   5.440   6.129
 6387SOL     OW31191   9.349   5.987   6.567
 6387SOL    HW131192   9.270   6.035   6.605
 6387SOL    HW231193   9.431   6.010   6.620
 6388SOL     OW31194   1.971   1.781   6.712
 6388SOL    HW131195   1.941   1.711   6.777
 6388SOL    HW231196   2.071   1.781   6.707
 6389SOL     OW31197   5.952   5.749   0.560
 6389SOL    HW131198   6.014   5.806   0.506
 6389SOL    HW231199   6.003   5.670   0.595
 6390SOL     OW31200   4.224   3.589   0.458
 6390SOL    HW131201   4.283   3.538   0.396
 6390SOL    HW231202   4.195   3.674   0.413
 6391SOL     OW31203   5.414   7.040   1.581
 6391SOL    HW131204   5.490   6.980   1.605
 6391SOL    HW231205   5.388   7.094   1.661
 6392SOL     OW31206   6.393   7.685   1.853
 6392SOL    HW131207   6.344   7.624   1.916
 6392SOL    HW231208   6.490   7.660   1.851
 6393SOL     OW31209   4.911   4.010   2.083
 6393SOL    HW131210   4.904   4.104   2.116
 6393SOL    HW231211   4.842   3.953   2.127
 6394SOL     OW31212   1.472   6.757   0.668
 6394SOL    HW131213   1.407   6.720   0.602
 6394SOL    HW231214   1.545   6.806   0.620
 6395SOL     OW31215   6.274   2.923   5.920
 6395SOL    HW131216   6.331   2.852   5.879
 6395SOL    HW231217   6.190   2.934   5.866
 6396SOL     OW31218   2.893   4.991   1.017
 6396SOL    HW131219   2.891   4.899   1.058
 6396SOL    HW231220   2.961   5.046   1.064
 6397SOL     OW31221   1.322   2.199   6.590
 6397SOL    HW131222   1.261   2.153   6.525
 6397SOL    HW231223   1.298   2.171   6.683
 6398SOL     OW31224   2.323   0.885   6.667
 6398SOL    HW131225   2.288   0.899   6.759
 6398SOL    HW231226   2.379   0.802   6.664
 6399SOL     OW31227   3.845   6.143   1.471
 6399SOL    HW131228   3.755   6.181   1.452
 6399SOL    HW231229   3.848   6.048   1.441
 6400SOL     OW31230   1.472   6.004   6.510
 6400SOL    HW131231   1.399   6.001   6.578
 6400SOL    HW231232   1.478   5.915   6.464
 6401SOL     OW31233   3.755   4.175   5.857
 6401SOL    HW131234   3.676   4.234   5.866
 6401SOL    HW231235   3.834   4.228   5.825
 6402SOL     OW31236   4.157   6.690   6.581
 6402SOL    HW131237   4.131   6.755   6.510
 6402SOL    HW231238   4.114   6.716   6.667
 6403SOL     OW31239   3.714   3.702   1.778
 6403SOL    HW131240   3.759   3.685   1.866
 6403SOL    HW231241   3.646   3.774   1.788
 6404SOL     OW31242   3.907   0.503   6.009
 6404SOL    HW131243   3.891   0.519   6.106
 6404SOL    HW231244   3.932   0.589   5.964
 6405SOL     OW31245   5.766   6.803   6.565
 6405SOL    HW131246   5.793   6.759   6.480
 6405SOL    HW231247   5.708   6.882   6.545
 6406SOL     OW31248   3.758   7.977   5.961
 6406SOL    HW131249   3.839   8.035   5.951
 6406SOL    HW231250   3.759   7.933   6.051
 6407SOL     OW31251   0.926   1.095   1.490
 6407SOL    HW131252   0.858   1.167   1.475
 6407SOL    HW231253   0.899   1.040   1.569
 6408SOL     OW31254   3.233   2.643   6.587
 6408SOL    HW131255   3.326   2.671   6.611
 6408SOL    HW231256   3.227   2.543   6.584
 6409SOL     OW31257   2.583   7.444   5.820
 6409SOL    HW131258   2.569   7.381   5.744
 6409SOL    HW231259   2.509   7.511   5.823
 6410SOL     OW31260   0.566   4.118   0.581
 6410SOL    HW131261   0.543   4.021   0.583
 6410SOL    HW231262   0.482   4.171   0.570
 6411SOL     OW31263   0.668   1.323   1.125
 6411SOL    HW131264   0.651   1.391   1.197
 6411SOL    HW231265   0.693   1.236   1.166
 6412SOL     OW31266   9.114   2.214   6.040
 6412SOL    HW131267   9.138   2.150   5.967
 6412SOL    HW231268   9.016   2.234   6.036
 6413SOL     OW31269   7.834   3.891   6.329
 6413SOL    HW131270   7.845   3.807   6.381
 6413SOL    HW231271   7.810   3.966   6.391
 6414SOL     OW31272   7.211   6.389   5.149
 6414SOL    HW131273   7.199   6.299   5.107
 6414SOL    HW231274   7.212   6.460   5.078
 6415SOL     OW31275   5.015   5.489   2.236
 6415SOL    HW131276   5.054   5.536   2.157
 6415SOL    HW231277   5.034   5.391   2.228
 6416SOL     OW31278   2.307   2.838   0.960
 6416SOL    HW131279   2.387   2.863   1.015
 6416SOL    HW231280   2.227   2.888   0.994
 6417SOL     OW31281   6.376   1.144   6.911
 6417SOL    HW131282   6.451   1.093   6.953
 6417SOL    HW231283   6.373   1.236   6.949
 6418SOL     OW31284   2.479   7.877   6.445
 6418SOL    HW131285   2.453   7.913   6.535
 6418SOL    HW231286   2.477   7.952   6.379
 6419SOL     OW31287   5.135   3.826   6.209
 6419SOL    HW131288   5.198   3.769   6.262
 6419SOL    HW231289   5.174   3.846   6.119
 6420SOL     OW31290   1.367   1.236   6.479
 6420SOL    HW131291   1.349   1.153   6.426
 6420SOL    HW231292   1.435   1.292   6.432
 6421SOL     OW31293   3.280   0.494   6.782
 6421SOL    HW131294   3.314   0.425   6.845
 6421SOL    HW231295   3.246   0.573   6.834
 6422SOL     OW31296   2.125   2.464   1.302
 6422SOL    HW131297   2.078   2.421   1.224
 6422SOL    HW231298   2.069   2.538   1.338
 6423SOL     OW31299   3.022   2.838   0.605
 6423SOL    HW131300   3.040   2.870   0.512
 6423SOL    HW231301   3.094   2.871   0.666
 6424SOL     OW31302   5.920   3.842   5.684
 6424SOL    HW131303   5.822   3.819   5.686
 6424SOL    HW231304   5.969   3.787   5.751
 6425SOL     OW31305   3.705   5.198   5.630
 6425SOL    HW131306   3.636   5.126   5.630
 6425SOL    HW231307   3.742   5.209   5.722
 6426SOL     OW31308   7.999   4.468   6.275
 6426SOL    HW131309   7.944   4.541   6.235
 6426SOL    HW231310   8.085   4.461   6.226
 6427SOL     OW31311   8.251   5.647   6.153
 6427SOL    HW131312   8.179   5.713   6.175
 6427SOL    HW231313   8.333   5.697   6.125
 6428SOL     OW31314   1.905   1.089   0.407
 6428SOL    HW131315   1.972   1.147   0.360
 6428SOL    HW231316   1.883   1.127   0.496
 6429SOL     OW31317   2.761   0.854   6.175
 6429SOL    HW131318   2.831   0.840   6.104
 6429SOL    HW231319   2.749   0.770   6.227
 6430SOL     OW31320   7.924   8.137   6.805
 6430SOL    HW131321   7.913   8.164   6.901
 6430SOL    HW231322   7.842   8.088   6.775
 6431SOL     OW31323   5.995   7.383   0.370
 6431SOL    HW131324   5.989   7.304   0.432
 6431SOL    HW231325   5.904   7.421   0.356
 6432SOL     OW31326   3.396   5.768   1.586
 6432SOL    HW131327   3.468   5.803   1.646
 6432SOL    HW231328   3.395   5.668   1.591
 6433SOL     OW31329   0.400   6.779   5.350
 6433SOL    HW131330   0.473   6.717   5.320
 6433SOL    HW231331   0.357   6.821   5.270
 6434SOL     OW31332   5.608   5.912   5.899
 6434SOL    HW131333   5.622   6.007   5.927
 6434SOL    HW231334   5.545   5.910   5.821
 6435SOL     OW31335   1.463   3.182   1.373
 6435SOL    HW131336   1.557   3.161   1.399
 6435SOL    HW231337   1.407   3.195   1.455
 6436SOL     OW31338   7.670   0.172   0.546
 6436SOL    HW131339   7.746   0.236   0.551
 6436SOL    HW231340   7.589   0.212   0.589
 6437SOL     OW31341   9.164   2.170   1.144
 6437SOL    HW131342   9.261   2.182   1.122
 6437SOL    HW231343   9.154   2.098   1.212
 6438SOL     OW31344   4.835   2.256   1.345
 6438SOL    HW131345   4.809   2.277   1.439
 6438SOL    HW231346   4.791   2.321   1.283
 6439SOL     OW31347   5.402   0.037   1.115
 6439SOL    HW131348   5.399  -0.062   1.128
 6439SOL    HW231349   5.410   0.082   1.204
 6440SOL     OW31350   0.392   7.566   0.832
 6440SOL    HW131351   0.383   7.615   0.919
 6440SOL    HW231352   0.422   7.472   0.850
 6441SOL     OW31353   3.575   8.124   5.416
 6441SOL    HW131354   3.629   8.158   5.339
 6441SOL    HW231355   3.569   8.194   5.486
 6442SOL     OW31356   5.831   7.553   5.909
 6442SOL    HW131357   5.867   7.461   5.892
 6442SOL    HW231358   5.820   7.565   6.008
 6443SOL     OW31359   0.556   5.526   5.450
 6443SOL    HW131360   0.601   5.465   5.386
 6443SOL    HW231361   0.480   5.572   5.405
 6444SOL     OW31362   2.363   5.279   1.150
 6444SOL    HW131363   2.323   5.240   1.233
 6444SOL    HW231364   2.331   5.374   1.140
 6445SOL     OW31365   2.678   4.336   6.959
 6445SOL    HW131366   2.605   4.404   6.950
 6445SOL    HW231367   2.637   4.244   6.957
 6446SOL     OW31368   3.714   4.890   6.860
 6446SOL    HW131369   3.650   4.888   6.936
 6446SOL    HW231370   3.760   4.979   6.857
 6447SOL     OW31371   3.126   7.320   1.317
 6447SOL    HW131372   3.157   7.415   1.316
 6447SOL    HW231373   3.198   7.261   1.354
 6448SOL     OW31374   0.244   2.902   5.918
 6448SOL    HW131375   0.314   2.880   5.850
 6448SOL    HW231376   0.215   2.997   5.907
 6449SOL     OW31377   3.566   6.342   1.920
 6449SOL    HW131378   3.518   6.291   1.991
 6449SOL    HW231379   3.499   6.395   1.867
 6450SOL     OW31380   0.888   2.044   6.455
 6450SOL    HW131381   0.812   2.102   6.484
 6450SOL    HW231382   0.918   2.071   6.364
 6451SOL     OW31383   1.513   0.411   5.761
 6451SOL    HW131384   1.603   0.455   5.767
 6451SOL    HW231385   1.524   0.313   5.750
 6452SOL     OW31386   7.925   6.876   0.803
 6452SOL    HW131387   7.929   6.788   0.851
 6452SOL    HW231388   8.008   6.888   0.749
 6453SOL     OW31389   2.665   2.664   6.540
 6453SOL    HW131390   2.575   2.644   6.578
 6453SOL    HW231391   2.736   2.626   6.599
 6454SOL     OW31392   8.346   8.292   6.149
 6454SOL    HW131393   8.327   8.247   6.236
 6454SOL    HW231394   8.260   8.316   6.104
 6455SOL     OW31395   6.558   6.364   6.961
 6455SOL    HW131396   6.640   6.307   6.949
 6455SOL    HW231397   6.561   6.408   7.051
 6456SOL     OW31398   6.483   2.259   1.320
 6456SOL    HW131399   6.548   2.307   1.262
 6456SOL    HW231400   6.399   2.240   1.269
 6457SOL     OW31401   6.124   3.013   6.646
 6457SOL    HW131402   6.180   2.971   6.574
 6457SOL    HW231403   6.027   3.007   6.621
 6458SOL     OW31404   7.079   6.240   1.101
 6458SOL    HW131405   7.058   6.264   1.195
 6458SOL    HW231406   7.073   6.321   1.043
 6459SOL     OW31407   6.367   5.965   0.394
 6459SOL    HW131408   6.280   5.943   0.439
 6459SOL    HW231409   6.350   5.999   0.302
 6460SOL     OW31410   1.267   5.676   5.980
 6460SOL    HW131411   1.339   5.696   5.913
 6460SOL    HW231412   1.180   5.711   5.946
 6461SOL     OW31413   5.184   8.080   5.431
 6461SOL    HW131414   5.174   7.990   5.474
 6461SOL    HW231415   5.127   8.084   5.349
 6462SOL     OW31416   2.750   6.213   0.542
 6462SOL    HW131417   2.654   6.200   0.568
 6462SOL    HW231418   2.755   6.261   0.455
 6463SOL     OW31419   2.093   1.279   1.468
 6463SOL    HW131420   2.066   1.251   1.561
 6463SOL    HW231421   2.059   1.371   1.449
 6464SOL     OW31422   1.972   6.272   1.901
 6464SOL    HW131423   1.970   6.182   1.944
 6464SOL    HW231424   1.987   6.262   1.802
 6465SOL     OW31425   6.845   6.861   5.944
 6465SOL    HW131426   6.916   6.879   5.875
 6465SOL    HW231427   6.867   6.777   5.993
 6466SOL     OW31428   1.228   3.786   5.836
 6466SOL    HW131429   1.167   3.850   5.789
 6466SOL    HW231430   1.182   3.751   5.919
 6467SOL     OW31431   2.736   2.829   0.317
 6467SOL    HW131432   2.747   2.920   0.277
 6467SOL    HW231433   2.801   2.767   0.275
 6468SOL     OW31434   3.588   3.576   1.155
 6468SOL    HW131435   3.525   3.515   1.203
 6468SOL    HW231436   3.670   3.590   1.210
 6469SOL     OW31437   8.651   8.098   6.997
 6469SOL    HW131438   8.598   8.139   6.923
 6469SOL    HW231439   8.720   8.163   7.028
 6470SOL     OW31440   2.539   5.335   6.638
 6470SOL    HW131441   2.508   5.297   6.551
 6470SOL    HW231442   2.485   5.417   6.660
 6471SOL     OW31443   2.416   6.899   5.805
 6471SOL    HW131444   2.450   6.879   5.713
 6471SOL    HW231445   2.493   6.912   5.867
 6472SOL     OW31446   8.620   0.958   6.462
 6472SOL    HW131447   8.548   0.924   6.401
 6472SOL    HW231448   8.709   0.942   6.419
 6473SOL     OW31449   6.389   7.767   6.186
 6473SOL    HW131450   6.332   7.821   6.248
 6473SOL    HW231451   6.331   7.700   6.138
 6474SOL     OW31452   3.128   6.075   0.385
 6474SOL    HW131453   3.085   6.129   0.313
 6474SOL    HW231454   3.138   6.131   0.467
 6475SOL     OW31455   4.985   8.264   4.823
 6475SOL    HW131456   4.934   8.181   4.803
 6475SOL    HW231457   5.059   8.274   4.756
 6476SOL     OW31458   4.452   2.910   0.854
 6476SOL    HW131459   4.448   2.992   0.911
 6476SOL    HW231460   4.529   2.918   0.790
 6477SOL     OW31461   0.780   0.089   6.826
 6477SOL    HW131462   0.695   0.038   6.812
 6477SOL    HW231463   0.842   0.036   6.883
 6478SOL     OW31464   8.399   3.163   6.907
 6478SOL    HW131465   8.299   3.165   6.904
 6478SOL    HW231466   8.435   3.188   6.818
 6479SOL     OW31467   3.434   3.552   1.845
 6479SOL    HW131468   3.524   3.570   1.884
 6479SOL    HW231469   3.365   3.602   1.897
 6480SOL     OW31470   4.808   7.066   5.920
 6480SOL    HW131471   4.737   7.084   5.988
 6480SOL    HW231472   4.874   7.001   5.957
 6481SOL     OW31473   5.381   5.726   0.462
 6481SOL    HW131474   5.408   5.731   0.558
 6481SOL    HW231475   5.297   5.778   0.448
 6482SOL     OW31476   9.315   4.012   0.633
 6482SOL    HW131477   9.263   3.960   0.700
 6482SOL    HW231478   9.357   3.949   0.567
 6483SOL     OW31479   3.066   7.834   6.793
 6483SOL    HW131480   3.078   7.932   6.778
 6483SOL    HW231481   3.141   7.800   6.849
 6484SOL     OW31482   3.437   2.618   6.267
 6484SOL    HW131483   3.470   2.555   6.337
 6484SOL    HW231484   3.386   2.567   6.198
 6485SOL     OW31485   0.419   5.229   5.487
 6485SOL    HW131486   0.396   5.240   5.391
 6485SOL    HW231487   0.387   5.140   5.520
 6486SOL     OW31488   3.198   3.149   0.349
 6486SOL    HW131489   3.121   3.087   0.333
 6486SOL    HW231490   3.164   3.242   0.361
 6487SOL     OW31491   1.364   1.819   6.704
 6487SOL    HW131492   1.403   1.759   6.633
 6487SOL    HW231493   1.267   1.800   6.714
 6488SOL     OW31494   5.167   0.267   0.839
 6488SOL    HW131495   5.161   0.300   0.934
 6488SOL    HW231496   5.261   0.244   0.817
 6489SOL     OW31497   2.398   8.312   5.699
 6489SOL    HW131498   2.316   8.314   5.641
 6489SOL    HW231499   2.460   8.386   5.673
 6490SOL     OW31500   2.773   4.514   6.432
 6490SOL    HW131501   2.868   4.482   6.429
 6490SOL    HW231502   2.772   4.612   6.453
 6491SOL     OW31503   6.865   6.973   6.976
 6491SOL    HW131504   6.825   7.026   6.902
 6491SOL    HW231505   6.963   6.989   6.979
 6492SOL     OW31506   1.892   1.950   1.402
 6492SOL    HW131507   1.866   2.046   1.410
 6492SOL    HW231508   1.946   1.923   1.482
 6493SOL     OW31509   2.950   2.102   1.553
 6493SOL    HW131510   2.952   2.180   1.490
 6493SOL    HW231511   2.954   2.017   1.501
 6494SOL     OW31512   4.484   0.261   1.403
 6494SOL    HW131513   4.392   0.290   1.428
 6494SOL    HW231514   4.479   0.188   1.335
 6495SOL     OW31515   3.173   4.376   1.040
 6495SOL    HW131516   3.174   4.280   1.070
 6495SOL    HW231517   3.230   4.386   0.959
 6496SOL     OW31518   2.799   3.317   2.073
 6496SOL    HW131519   2.706   3.307   2.038
 6496SOL    HW231520   2.809   3.405   2.118
 6497SOL     OW31521   7.082   2.354   1.670
 6497SOL    HW131522   7.126   2.441   1.690
 6497SOL    HW231523   6.998   2.370   1.617
 6498SOL     OW31524   0.322   4.580   0.270
 6498SOL    HW131525   0.318   4.509   0.200
 6498SOL    HW231526   0.378   4.656   0.237
 6499SOL     OW31527   5.462   4.517   0.915
 6499SOL    HW131528   5.502   4.468   0.838
 6499SOL    HW231529   5.460   4.615   0.896
 6500SOL     OW31530   9.146   0.085   6.349
 6500SOL    HW131531   9.229   0.029   6.345
 6500SOL    HW231532   9.067   0.025   6.365
 6501SOL     OW31533   8.179   1.782   6.719
 6501SOL    HW131534   8.120   1.801   6.641
 6501SOL    HW231535   8.167   1.687   6.748
 6502SOL     OW31536   3.618   5.908   0.996
 6502SOL    HW131537   3.592   5.950   1.083
 6502SOL    HW231538   3.536   5.891   0.941
 6503SOL     OW31539   2.435   4.184   6.753
 6503SOL    HW131540   2.492   4.239   6.691
 6503SOL    HW231541   2.343   4.224   6.756
 6504SOL     OW31542   2.611   0.647   2.076
 6504SOL    HW131543   2.661   0.611   1.997
 6504SOL    HW231544   2.595   0.573   2.141
 6505SOL     OW31545   5.353   3.136   1.390
 6505SOL    HW131546   5.298   3.113   1.470
 6505SOL    HW231547   5.335   3.069   1.317
 6506SOL     OW31548   3.991   4.327   5.796
 6506SOL    HW131549   4.035   4.239   5.780
 6506SOL    HW231550   3.948   4.359   5.712
 6507SOL     OW31551   4.826   4.402   5.722
 6507SOL    HW131552   4.881   4.352   5.655
 6507SOL    HW231553   4.817   4.347   5.805
 6508SOL     OW31554   7.074   1.971   0.592
 6508SOL    HW131555   6.999   1.940   0.534
 6508SOL    HW231556   7.043   2.047   0.649
 6509SOL     OW31557   7.073   0.119   6.270
 6509SOL    HW131558   7.163   0.108   6.312
 6509SOL    HW231559   7.028   0.029   6.265
 6510SOL     OW31560   4.792   5.393   6.270
 6510SOL    HW131561   4.752   5.331   6.203
 6510SOL    HW231562   4.885   5.364   6.290
 6511SOL     OW31563   8.733   2.088   5.461
 6511SOL    HW131564   8.781   2.120   5.379
 6511SOL    HW231565   8.673   2.011   5.437
 6512SOL     OW31566   3.790   0.775   6.989
 6512SOL    HW131567   3.859   0.815   6.928
 6512SOL    HW231568   3.807   0.676   6.997
 6513SOL     OW31569   3.326   8.019   1.546
 6513SOL    HW131570   3.272   8.080   1.602
 6513SOL    HW231571   3.368   7.948   1.603
 6514SOL     OW31572   8.562   2.077   6.718
 6514SOL    HW131573   8.659   2.060   6.704
 6514SOL    HW231574   8.509   2.029   6.648
 6515SOL     OW31575   5.586   1.877   1.002
 6515SOL    HW131576   5.506   1.928   0.972
 6515SOL    HW231577   5.576   1.781   0.977
 6516SOL     OW31578   5.993   6.074   1.860
 6516SOL    HW131579   6.034   6.027   1.938
 6516SOL    HW231580   5.947   6.158   1.890
 6517SOL     OW31581   8.051   2.072   0.649
 6517SOL    HW131582   8.069   2.094   0.745
 6517SOL    HW231583   7.952   2.072   0.633
 6518SOL     OW31584   4.664   2.552   5.866
 6518SOL    HW131585   4.675   2.526   5.770
 6518SOL    HW231586   4.570   2.533   5.895
 6519SOL     OW31587   5.092   1.228   1.733
 6519SOL    HW131588   5.178   1.222   1.783
 6519SOL    HW231589   5.034   1.297   1.776
 6520SOL     OW31590   5.972   7.970   5.755
 6520SOL    HW131591   6.004   7.974   5.660
 6520SOL    HW231592   6.051   7.959   5.816
 6521SOL     OW31593   8.727   2.877   6.034
 6521SOL    HW131594   8.761   2.954   5.980
 6521SOL    HW231595   8.744   2.895   6.131
 6522SOL     OW31596   8.587   8.038   0.510
 6522SOL    HW131597   8.592   8.079   0.419
 6522SOL    HW231598   8.663   7.974   0.522
 6523SOL     OW31599   1.482   4.323   6.348
 6523SOL    HW131600   1.494   4.244   6.408
 6523SOL    HW231601   1.429   4.296   6.268
 6524SOL     OW31602   5.461   5.630   6.830
 6524SOL    HW131603   5.481   5.728   6.825
 6524SOL    HW231604   5.480   5.596   6.922
 6525SOL     OW31605   8.503   2.453   6.110
 6525SOL    HW131606   8.581   2.509   6.137
 6525SOL    HW231607   8.440   2.508   6.055
 6526SOL     OW31608   0.134   8.231   6.737
 6526SOL    HW131609   0.039   8.207   6.716
 6526SOL    HW231610   0.162   8.185   6.821
 6527SOL     OW31611   0.792   6.786   1.196
 6527SOL    HW131612   0.832   6.877   1.207
 6527SOL    HW231613   0.695   6.795   1.174
 6528SOL     OW31614   6.357   5.992   1.254
 6528SOL    HW131615   6.330   6.042   1.336
 6528SOL    HW231616   6.354   5.893   1.272
 6529SOL     OW31617   3.469   7.723   6.124
 6529SOL    HW131618   3.458   7.725   6.024
 6529SOL    HW231619   3.410   7.652   6.162
 6530SOL     OW31620   7.357   7.394   1.331
 6530SOL    HW131621   7.281   7.402   1.396
 6530SOL    HW231622   7.440   7.369   1.382
 6531SOL     OW31623   4.808   7.403   6.101
 6531SOL    HW131624   4.842   7.496   6.118
 6531SOL    HW231625   4.857   7.365   6.022
 6532SOL     OW31626   4.833   6.293   5.886
 6532SOL    HW131627   4.821   6.195   5.870
 6532SOL    HW231628   4.748   6.341   5.863
 6533SOL     OW31629   4.745   7.532   1.697
 6533SOL    HW131630   4.833   7.578   1.686
 6533SOL    HW231631   4.707   7.554   1.787
 6534SOL     OW31632   7.620   7.324   6.537
 6534SOL    HW131633   7.719   7.328   6.545
 6534SOL    HW231634   7.583   7.265   6.609
 6535SOL     OW31635   0.914   1.098   0.598
 6535SOL    HW131636   0.823   1.130   0.573
 6535SOL    HW231637   0.981   1.132   0.531
 6536SOL     OW31638   8.947   2.739   6.314
 6536SOL    HW131639   8.996   2.688   6.244
 6536SOL    HW231640   8.963   2.697   6.403
 6537SOL     OW31641   1.440   0.505   0.711
 6537SOL    HW131642   1.380   0.507   0.791
 6537SOL    HW231643   1.486   0.593   0.702
 6538SOL     OW31644   9.364   4.699   5.328
 6538SOL    HW131645   9.381   4.797   5.343
 6538SOL    HW231646   9.266   4.684   5.314
 6539SOL     OW31647   0.555   7.168   1.299
 6539SOL    HW131648   0.470   7.198   1.254
 6539SOL    HW231649   0.562   7.069   1.292
 6540SOL     OW31650   5.765   7.552   6.673
 6540SOL    HW131651   5.763   7.589   6.766
 6540SOL    HW231652   5.673   7.525   6.646
 6541SOL     OW31653   2.298   1.464   1.776
 6541SOL    HW131654   2.366   1.445   1.706
 6541SOL    HW231655   2.255   1.553   1.758
 6542SOL     OW31656   4.953   3.548   1.165
 6542SOL    HW131657   4.921   3.592   1.249
 6542SOL    HW231658   5.013   3.472   1.188
 6543SOL     OW31659   3.148   6.336   1.102
 6543SOL    HW131660   3.227   6.378   1.145
 6543SOL    HW231661   3.070   6.399   1.107
 6544SOL     OW31662   8.921   3.543   1.056
 6544SOL    HW131663   8.896   3.447   1.041
 6544SOL    HW231664   8.906   3.595   0.971
 6545SOL     OW31665   3.502   6.917   6.886
 6545SOL    HW131666   3.490   6.978   6.808
 6545SOL    HW231667   3.595   6.927   6.922
 6546SOL     OW31668   8.658   7.048   5.221
 6546SOL    HW131669   8.584   7.006   5.170
 6546SOL    HW231670   8.733   7.070   5.160
 6547SOL     OW31671   8.628   5.132   0.296
 6547SOL    HW131672   8.552   5.196   0.287
 6547SOL    HW231673   8.597   5.052   0.347
 6548SOL     OW31674   0.934   2.687   0.869
 6548SOL    HW131675   0.968   2.722   0.955
 6548SOL    HW231676   0.853   2.739   0.841
 6549SOL     OW31677   6.651   0.955   1.982
 6549SOL    HW131678   6.715   0.880   1.967
 6549SOL    HW231679   6.644   1.011   1.899
 6550SOL     OW31680   1.369   4.745   0.714
 6550SOL    HW131681   1.313   4.662   0.708
 6550SOL    HW231682   1.426   4.752   0.632
 6551SOL     OW31683   6.601   7.817   0.360
 6551SOL    HW131684   6.546   7.734   0.356
 6551SOL    HW231685   6.698   7.793   0.363
 6552SOL     OW31686   5.416   1.842   0.599
 6552SOL    HW131687   5.427   1.941   0.607
 6552SOL    HW231688   5.320   1.820   0.581
 6553SOL     OW31689   7.379   0.867   0.651
 6553SOL    HW131690   7.467   0.851   0.696
 6553SOL    HW231691   7.345   0.958   0.675
 6554SOL     OW31692   1.018   5.770   5.858
 6554SOL    HW131693   0.932   5.719   5.853
 6554SOL    HW231694   0.997   5.867   5.873
 6555SOL     OW31695   8.393   0.723   5.592
 6555SOL    HW131696   8.436   0.633   5.588
 6555SOL    HW231697   8.422   0.776   5.512
 6556SOL     OW31698   6.207   3.635   6.977
 6556SOL    HW131699   6.301   3.648   6.944
 6556SOL    HW231700   6.174   3.545   6.948
 6557SOL     OW31701   2.281   7.786   1.166
 6557SOL    HW131702   2.257   7.798   1.262
 6557SOL    HW231703   2.217   7.836   1.109
 6558SOL     OW31704   4.302   7.596   5.966
 6558SOL    HW131705   4.216   7.644   5.983
 6558SOL    HW231706   4.311   7.575   5.869
 6559SOL     OW31707   2.730   6.261   6.563
 6559SOL    HW131708   2.737   6.359   6.586
 6559SOL    HW231709   2.704   6.251   6.467
 6560SOL     OW31710   9.043   1.453   6.707
 6560SOL    HW131711   9.058   1.365   6.751
 6560SOL    HW231712   8.944   1.471   6.701
 6561SOL     OW31713   8.696   1.149   0.536
 6561SOL    HW131714   8.600   1.139   0.511
 6561SOL    HW231715   8.740   1.214   0.475
 6562SOL     OW31716   7.483   2.664   0.889
 6562SOL    HW131717   7.433   2.696   0.970
 6562SOL    HW231718   7.580   2.655   0.912
 6563SOL     OW31719   6.480   6.878   5.393
 6563SOL    HW131720   6.515   6.786   5.374
 6563SOL    HW231721   6.444   6.882   5.486
 6564SOL     OW31722   4.122   5.733   5.462
 6564SOL    HW131723   4.167   5.810   5.507
 6564SOL    HW231724   4.088   5.762   5.372
 6565SOL     OW31725   8.449   4.186   0.819
 6565SOL    HW131726   8.407   4.123   0.884
 6565SOL    HW231727   8.480   4.135   0.738
 6566SOL     OW31728   1.205   6.959   5.394
 6566SOL    HW131729   1.114   6.988   5.366
 6566SOL    HW231730   1.225   6.868   5.356
 6567SOL     OW31731   4.965   5.802   2.082
 6567SOL    HW131732   4.968   5.867   2.006
 6567SOL    HW231733   5.044   5.741   2.078
 6568SOL     OW31734   3.973   8.013   1.513
 6568SOL    HW131735   3.987   8.110   1.532
 6568SOL    HW231736   4.050   7.960   1.546
 6569SOL     OW31737   5.272   7.045   0.949
 6569SOL    HW131738   5.219   7.129   0.962
 6569SOL    HW231739   5.346   7.062   0.883
 6570SOL     OW31740   8.906   5.952   0.689
 6570SOL    HW131741   8.827   5.901   0.654
 6570SOL    HW231742   8.928   5.921   0.781
 6571SOL     OW31743   7.752   4.053   1.509
 6571SOL    HW131744   7.697   4.124   1.552
 6571SOL    HW231745   7.837   4.039   1.561
 6572SOL     OW31746   2.244   2.449   1.019
 6572SOL    HW131747   2.316   2.443   1.088
 6572SOL    HW231748   2.272   2.513   0.947
 6573SOL     OW31749   8.436   1.052   0.510
 6573SOL    HW131750   8.475   0.960   0.505
 6573SOL    HW231751   8.374   1.058   0.588
 6574SOL     OW31752   8.198   4.387   0.936
 6574SOL    HW131753   8.183   4.341   0.849
 6574SOL    HW231754   8.291   4.422   0.940
 6575SOL     OW31755   9.001   7.792   1.249
 6575SOL    HW131756   9.095   7.760   1.239
 6575SOL    HW231757   8.937   7.716   1.239
 6576SOL     OW31758   5.095   3.611   1.757
 6576SOL    HW131759   5.056   3.597   1.666
 6576SOL    HW231760   5.021   3.609   1.825
 6577SOL     OW31761   3.099   8.224   0.332
 6577SOL    HW131762   3.127   8.206   0.426
 6577SOL    HW231763   3.093   8.138   0.282
 6578SOL     OW31764   9.470   8.133   6.230
 6578SOL    HW131765   9.499   8.228   6.242
 6578SOL    HW231766   9.447   8.117   6.134
 6579SOL     OW31767   5.181   5.691   1.627
 6579SOL    HW131768   5.090   5.725   1.649
 6579SOL    HW231769   5.243   5.709   1.703
 6580SOL     OW31770   3.759   1.645   1.203
 6580SOL    HW131771   3.665   1.664   1.176
 6580SOL    HW231772   3.762   1.564   1.262
 6581SOL     OW31773   6.372   2.760   0.745
 6581SOL    HW131774   6.390   2.752   0.843
 6581SOL    HW231775   6.317   2.842   0.729
 6582SOL     OW31776   6.169   0.149   0.791
 6582SOL    HW131777   6.137   0.201   0.711
 6582SOL    HW231778   6.156   0.051   0.774
 6583SOL     OW31779   7.856   4.300   5.374
 6583SOL    HW131780   7.907   4.230   5.324
 6583SOL    HW231781   7.833   4.375   5.312
 6584SOL     OW31782   4.412   0.641   2.145
 6584SOL    HW131783   4.343   0.627   2.216
 6584SOL    HW231784   4.497   0.671   2.187
 6585SOL     OW31785   6.884   6.905   1.263
 6585SOL    HW131786   6.801   6.860   1.297
 6585SOL    HW231787   6.927   6.847   1.195
 6586SOL     OW31788   7.614   1.156   0.819
 6586SOL    HW131789   7.662   1.185   0.902
 6586SOL    HW231790   7.651   1.206   0.741
 6587SOL     OW31791   6.773   3.022   6.201
 6587SOL    HW131792   6.851   2.960   6.189
 6587SOL    HW231793   6.689   2.974   6.175
 6588SOL     OW31794   3.758   2.854   1.002
 6588SOL    HW131795   3.662   2.879   0.992
 6588SOL    HW231796   3.810   2.892   0.926
 6589SOL     OW31797   5.521   1.218   0.814
 6589SOL    HW131798   5.480   1.256   0.731
 6589SOL    HW231799   5.555   1.292   0.871
 6590SOL     OW31800   6.173   7.057   6.463
 6590SOL    HW131801   6.139   7.146   6.495
 6590SOL    HW231802   6.187   6.997   6.541
 6591SOL     OW31803   9.438   8.093   0.814
 6591SOL    HW131804   9.455   8.007   0.863
 6591SOL    HW231805   9.481   8.169   0.864
 6592SOL     OW31806   2.313   3.113   5.791
 6592SOL    HW131807   2.312   3.183   5.863
 6592SOL    HW231808   2.406   3.077   5.782
 6593SOL     OW31809   6.547   2.816   1.925
 6593SOL    HW131810   6.450   2.827   1.942
 6593SOL    HW231811   6.583   2.743   1.984
 6594SOL     OW31812   1.794   0.255   6.539
 6594SOL    HW131813   1.767   0.347   6.512
 6594SOL    HW231814   1.720   0.191   6.520
 6595SOL     OW31815   2.920   3.534   1.419
 6595SOL    HW131816   2.880   3.497   1.335
 6595SOL    HW231817   2.858   3.600   1.460
 6596SOL     OW31818   5.532  -0.040   0.777
 6596SOL    HW131819   5.452  -0.095   0.757
 6596SOL    HW231820   5.504   0.050   0.810
 6597SOL     OW31821   1.237   2.502   6.952
 6597SOL    HW131822   1.275   2.445   7.026
 6597SOL    HW231823   1.262   2.598   6.968
 6598SOL     OW31824   9.307   3.393   0.433
 6598SOL    HW131825   9.344   3.301   0.425
 6598SOL    HW231826   9.306   3.421   0.529
 6599SOL     OW31827   8.260   0.411   6.515
 6599SOL    HW131828   8.254   0.496   6.567
 6599SOL    HW231829   8.354   0.396   6.486
 6600SOL     OW31830   5.299   7.596   6.622
 6600SOL    HW131831   5.314   7.599   6.720
 6600SOL    HW231832   5.247   7.514   6.598
 6601SOL     OW31833   3.000   0.886   0.325
 6601SOL    HW131834   3.001   0.840   0.414
 6601SOL    HW231835   2.911   0.929   0.310
 6602SOL     OW31836   3.870   1.970   6.814
 6602SOL    HW131837   3.907   1.935   6.728
 6602SOL    HW231838   3.932   2.039   6.851
 6603SOL     OW31839   8.630   4.670   6.553
 6603SOL    HW131840   8.708   4.722   6.586
 6603SOL    HW231841   8.551   4.686   6.612
 6604SOL     OW31842   6.681   6.667   0.614
 6604SOL    HW131843   6.658   6.742   0.551
 6604SOL    HW231844   6.780   6.664   0.628
 6605SOL     OW31845   5.636   1.048   1.016
 6605SOL    HW131846   5.725   1.037   0.972
 6605SOL    HW231847   5.580   1.112   0.963
 6606SOL     OW31848   5.615   4.242   6.506
 6606SOL    HW131849   5.677   4.308   6.462
 6606SOL    HW231850   5.543   4.216   6.441
 6607SOL     OW31851   2.600   3.751   0.456
 6607SOL    HW131852   2.645   3.777   0.370
 6607SOL    HW231853   2.584   3.652   0.456
 6608SOL     OW31854   3.826   0.556   6.299
 6608SOL    HW131855   3.825   0.642   6.349
 6608SOL    HW231856   3.885   0.491   6.346
 6609SOL     OW31857   5.964   7.347   6.724
 6609SOL    HW131858   5.957   7.264   6.778
 6609SOL    HW231859   5.873   7.389   6.715
 6610SOL     OW31860   0.889   3.866   0.383
 6610SOL    HW131861   0.946   3.811   0.323
 6610SOL    HW231862   0.868   3.953   0.338
 6611SOL     OW31863   5.906   1.265   5.987
 6611SOL    HW131864   5.955   1.214   5.916
 6611SOL    HW231865   5.838   1.325   5.944
 6612SOL     OW31866   4.105   0.082   5.326
 6612SOL    HW131867   4.057  -0.006   5.321
 6612SOL    HW231868   4.098   0.129   5.237
 6613SOL     OW31869   4.259   0.428   1.061
 6613SOL    HW131870   4.189   0.431   1.133
 6613SOL    HW231871   4.290   0.334   1.049
 6614SOL     OW31872   8.739   1.308   5.173
 6614SOL    HW131873   8.799   1.384   5.197
 6614SOL    HW231874   8.696   1.326   5.084
 6615SOL     OW31875   7.572   1.472   1.346
 6615SOL    HW131876   7.488   1.493   1.295
 6615SOL    HW231877   7.581   1.373   1.357
 6616SOL     OW31878   4.895   3.389   6.101
 6616SOL    HW131879   4.880   3.326   6.024
 6616SOL    HW231880   4.993   3.401   6.114
 6617SOL     OW31881   6.068   4.708   6.897
 6617SOL    HW131882   6.093   4.753   6.983
 6617SOL    HW231883   6.070   4.609   6.909
 6618SOL     OW31884   5.284   1.154   6.504
 6618SOL    HW131885   5.258   1.108   6.419
 6618SOL    HW231886   5.253   1.101   6.582
 6619SOL     OW31887   9.504   5.822   5.555
 6619SOL    HW131888   9.575   5.848   5.491
 6619SOL    HW231889   9.432   5.892   5.555
 6620SOL     OW31890   4.339   3.856   6.498
 6620SOL    HW131891   4.307   3.855   6.403
 6620SOL    HW231892   4.395   3.937   6.513
 6621SOL     OW31893   2.014   7.505   1.254
 6621SOL    HW131894   1.983   7.412   1.273
 6621SOL    HW231895   2.093   7.526   1.312
 6622SOL     OW31896   5.295   2.855   1.342
 6622SOL    HW131897   5.319   2.758   1.331
 6622SOL    HW231898   5.197   2.863   1.359
 6623SOL     OW31899   8.084   7.713   1.340
 6623SOL    HW131900   8.072   7.731   1.437
 6623SOL    HW231901   8.063   7.617   1.321
 6624SOL     OW31902   2.447   0.658   6.690
 6624SOL    HW131903   2.442   0.636   6.787
 6624SOL    HW231904   2.415   0.579   6.637
 6625SOL     OW31905   4.701   3.949   6.414
 6625SOL    HW131906   4.778   3.910   6.464
 6625SOL    HW231907   4.634   3.986   6.479
 6626SOL     OW31908   9.558   5.763   5.989
 6626SOL    HW131909   9.555   5.701   6.068
 6626SOL    HW231910   9.542   5.711   5.905
 6627SOL     OW31911   3.559   0.870   5.660
 6627SOL    HW131912   3.486   0.923   5.703
 6627SOL    HW231913   3.539   0.860   5.562
 6628SOL     OW31914   6.903   8.155   0.310
 6628SOL    HW131915   6.884   8.127   0.404
 6628SOL    HW231916   6.825   8.206   0.274
 6629SOL     OW31917   5.950   2.652   6.068
 6629SOL    HW131918   5.999   2.673   5.983
 6629SOL    HW231919   5.899   2.732   6.098
 6630SOL     OW31920   7.924   6.128   0.791
 6630SOL    HW131921   7.881   6.141   0.701
 6630SOL    HW231922   7.854   6.134   0.862
 6631SOL     OW31923   4.190   6.031   0.667
 6631SOL    HW131924   4.153   6.099   0.604
 6631SOL    HW231925   4.166   5.939   0.635
 6632SOL     OW31926   9.273   5.341   6.984
 6632SOL    HW131927   9.262   5.439   6.971
 6632SOL    HW231928   9.183   5.297   6.985
 6633SOL     OW31929   4.713   2.245   6.982
 6633SOL    HW131930   4.706   2.312   7.056
 6633SOL    HW231931   4.769   2.168   7.013
 6634SOL     OW31932   6.219   2.759   6.758
 6634SOL    HW131933   6.150   2.808   6.706
 6634SOL    HW231934   6.176   2.687   6.812
 6635SOL     OW31935   8.263   1.888   1.800
 6635SOL    HW131936   8.351   1.910   1.842
 6635SOL    HW231937   8.278   1.841   1.713
 6636SOL     OW31938   3.453   0.444   6.346
 6636SOL    HW131939   3.457   0.431   6.446
 6636SOL    HW231940   3.485   0.535   6.322
 6637SOL     OW31941   1.576   6.604   6.356
 6637SOL    HW131942   1.517   6.549   6.415
 6637SOL    HW231943   1.668   6.563   6.354
 6638SOL     OW31944   4.527   5.757   1.668
 6638SOL    HW131945   4.592   5.768   1.593
 6638SOL    HW231946   4.468   5.678   1.650
 6639SOL     OW31947   4.177   2.595   6.092
 6639SOL    HW131948   4.189   2.694   6.090
 6639SOL    HW231949   4.087   2.573   6.129
 6640SOL     OW31950   0.687  -0.021   1.061
 6640SOL    HW131951   0.607  -0.076   1.036
 6640SOL    HW231952   0.657   0.068   1.095
 6641SOL     OW31953   2.666   6.734   5.024
 6641SOL    HW131954   2.765   6.729   5.013
 6641SOL    HW231955   2.624   6.756   4.936
 6642SOL     OW31956   3.180   2.396   1.475
 6642SOL    HW131957   3.105   2.418   1.538
 6642SOL    HW231958   3.153   2.417   1.381
 6643SOL     OW31959   4.477   1.896   0.778
 6643SOL    HW131960   4.380   1.873   0.781
 6643SOL    HW231961   4.530   1.827   0.827
 6644SOL     OW31962   2.885   6.623   0.554
 6644SOL    HW131963   2.930   6.655   0.637
 6644SOL    HW231964   2.796   6.582   0.578
 6645SOL     OW31965   2.378   6.498   5.850
 6645SOL    HW131966   2.299   6.518   5.792
 6645SOL    HW231967   2.351   6.504   5.946
 6646SOL     OW31968   2.167   5.314   6.015
 6646SOL    HW131969   2.246   5.368   5.989
 6646SOL    HW231970   2.116   5.286   5.933
 6647SOL     OW31971   5.802   2.406   1.139
 6647SOL    HW131972   5.725   2.364   1.092
 6647SOL    HW231973   5.881   2.344   1.137
 6648SOL     OW31974   7.359   2.040   0.762
 6648SOL    HW131975   7.426   2.101   0.719
 6648SOL    HW231976   7.360   1.952   0.716
 6649SOL     OW31977   9.360   1.464   0.924
 6649SOL    HW131978   9.323   1.546   0.880
 6649SOL    HW231979   9.353   1.473   1.023
 6650SOL     OW31980   4.501   7.953   2.307
 6650SOL    HW131981   4.542   8.031   2.355
 6650SOL    HW231982   4.412   7.933   2.347
 6651SOL     OW31983   9.277   3.366   1.373
 6651SOL    HW131984   9.232   3.277   1.373
 6651SOL    HW231985   9.285   3.400   1.467
 6652SOL     OW31986   0.338   5.756   4.734
 6652SOL    HW131987   0.276   5.807   4.793
 6652SOL    HW231988   0.308   5.661   4.727
 6653SOL     OW31989   0.228   8.366   5.924
 6653SOL    HW131990   0.275   8.440   5.972
 6653SOL    HW231991   0.256   8.366   5.828
 6654SOL     OW31992   4.551   1.090   1.023
 6654SOL    HW131993   4.603   1.030   1.082
 6654SOL    HW231994   4.462   1.049   1.003
 6655SOL     OW31995   1.878   4.003   5.329
 6655SOL    HW131996   1.943   3.927   5.337
 6655SOL    HW231997   1.844   4.007   5.235
 6656SOL     OW31998   6.562   5.603   6.704
 6656SOL    HW131999   6.471   5.642   6.720
 6656SOL    HW232000   6.570   5.574   6.609
 6657SOL     OW32001   4.727   6.361   1.528
 6657SOL    HW132002   4.748   6.360   1.431
 6657SOL    HW232003   4.786   6.427   1.575
 6658SOL     OW32004   8.949   1.254   1.108
 6658SOL    HW132005   8.998   1.169   1.089
 6658SOL    HW232006   8.933   1.261   1.206
 6659SOL     OW32007   5.934   4.165   6.999
 6659SOL    HW132008   5.851   4.188   6.948
 6659SOL    HW232009   6.013   4.170   6.938
 6660SOL     OW32010   1.424   6.369   5.922
 6660SOL    HW132011   1.438   6.467   5.936
 6660SOL    HW232012   1.428   6.321   6.009
 6661SOL     OW32013   6.703   5.899   0.302
 6661SOL    HW132014   6.757   5.816   0.284
 6661SOL    HW232015   6.632   5.878   0.369
 6662SOL     OW32016   2.276  -0.053   0.578
 6662SOL    HW132017   2.184  -0.076   0.545
 6662SOL    HW232018   2.282  -0.067   0.676
 6663SOL     OW32019   6.342   3.267   6.929
 6663SOL    HW132020   6.384   3.314   6.852
 6663SOL    HW232021   6.346   3.325   7.010
 6664SOL     OW32022   1.100   3.040   5.704
 6664SOL    HW132023   1.199   3.045   5.715
 6664SOL    HW232024   1.078   3.034   5.607
 6665SOL     OW32025   0.740   6.174   6.678
 6665SOL    HW132026   0.672   6.210   6.615
 6665SOL    HW232027   0.767   6.246   6.743
 6666SOL     OW32028   5.606   0.225   1.738
 6666SOL    HW132029   5.574   0.300   1.679
 6666SOL    HW232030   5.687   0.183   1.697
 6667SOL     OW32031   4.271   7.516   1.287
 6667SOL    HW132032   4.282   7.457   1.368
 6667SOL    HW232033   4.174   7.537   1.274
 6668SOL     OW32034   6.367   0.484   1.078
 6668SOL    HW132035   6.310   0.404   1.094
 6668SOL    HW232036   6.310   0.566   1.074
 6669SOL     OW32037   3.068   8.301   1.594
 6669SOL    HW132038   2.997   8.312   1.664
 6669SOL    HW232039   3.096   8.391   1.562
 6670SOL     OW32040   4.408   8.099   5.411
 6670SOL    HW132041   4.451   8.022   5.362
 6670SOL    HW232042   4.324   8.126   5.364
 6671SOL     OW32043   4.091  -0.052   0.384
 6671SOL    HW132044   4.046  -0.132   0.423
 6671SOL    HW232045   4.187  -0.072   0.366
 6672SOL     OW32046   4.469   6.839   0.447
 6672SOL    HW132047   4.377   6.878   0.436
 6672SOL    HW232048   4.519   6.847   0.361
 6673SOL     OW32049   7.196   8.047   0.583
 6673SOL    HW132050   7.244   7.978   0.638
 6673SOL    HW232051   7.185   8.014   0.490
 6674SOL     OW32052   8.063   7.599   0.972
 6674SOL    HW132053   8.029   7.666   0.906
 6674SOL    HW232054   8.162   7.592   0.964
 6675SOL     OW32055   8.133   5.900   6.350
 6675SOL    HW132056   8.057   5.949   6.392
 6675SOL    HW232057   8.142   5.927   6.254
 6676SOL     OW32058   2.678   7.887   5.422
 6676SOL    HW132059   2.771   7.907   5.390
 6676SOL    HW232060   2.619   7.871   5.343
 6677SOL     OW32061   2.218   3.786   0.822
 6677SOL    HW132062   2.137   3.843   0.839
 6677SOL    HW232063   2.190   3.691   0.811
 6678SOL     OW32064   7.236  -0.003   1.057
 6678SOL    HW132065   7.162   0.030   1.115
 6678SOL    HW232066   7.322  -0.001   1.108
 6679SOL     OW32067   2.206   7.241   5.972
 6679SOL    HW132068   2.246   7.220   5.883
 6679SOL    HW232069   2.111   7.211   5.975
 6680SOL     OW32070   9.447   8.419   1.729
 6680SOL    HW132071   9.476   8.512   1.753
 6680SOL    HW232072   9.498   8.353   1.784
 6681SOL     OW32073   2.581   7.002   0.919
 6681SOL    HW132074   2.528   7.064   0.977
 6681SOL    HW232075   2.613   7.052   0.838
 6682SOL     OW32076   7.376   8.397   1.523
 6682SOL    HW132077   7.385   8.472   1.588
 6682SOL    HW232078   7.428   8.318   1.556
 6683SOL     OW32079   8.270   5.935   0.405
 6683SOL    HW132080   8.356   5.986   0.395
 6683SOL    HW232081   8.209   5.985   0.466
 6684SOL     OW32082   1.797   2.044   6.357
 6684SOL    HW132083   1.768   2.127   6.309
 6684SOL    HW232084   1.812   1.971   6.292
 6685SOL     OW32085   6.100   6.065   0.439
 6685SOL    HW132086   6.056   6.107   0.519
 6685SOL    HW232087   6.059   6.103   0.356
 6686SOL     OW32088   1.973   3.337   0.267
 6686SOL    HW132089   2.062   3.298   0.290
 6686SOL    HW232090   1.982   3.435   0.254
 6687SOL     OW32091   6.819   6.105   4.985
 6687SOL    HW132092   6.857   6.063   5.067
 6687SOL    HW232093   6.767   6.036   4.934
 6688SOL     OW32094   8.593   4.472   1.261
 6688SOL    HW132095   8.572   4.398   1.197
 6688SOL    HW232096   8.605   4.434   1.353
 6689SOL     OW32097   6.159   0.046   6.337
 6689SOL    HW132098   6.088   0.116   6.329
 6689SOL    HW232099   6.217   0.049   6.255
 6690SOL     OW32100   5.868   4.871   1.814
 6690SOL    HW132101   5.778   4.873   1.857
 6690SOL    HW232102   5.931   4.929   1.865
 6691SOL     OW32103   6.022   3.425   6.827
 6691SOL    HW132104   6.030   3.439   6.729
 6691SOL    HW232105   6.014   3.327   6.847
 6692SOL     OW32106   4.434   6.895   6.589
 6692SOL    HW132107   4.489   6.930   6.513
 6692SOL    HW232108   4.463   6.802   6.611
 6693SOL     OW32109   4.964   0.196   0.667
 6693SOL    HW132110   5.048   0.238   0.703
 6693SOL    HW232111   4.903   0.172   0.743
 6694SOL     OW32112   3.034   1.717   1.134
 6694SOL    HW132113   3.079   1.710   1.223
 6694SOL    HW232114   2.940   1.748   1.147
 6695SOL     OW32115   0.787   5.310   0.269
 6695SOL    HW132116   0.818   5.406   0.265
 6695SOL    HW232117   0.749   5.283   0.181
 6696SOL     OW32118   8.782   0.327   6.799
 6696SOL    HW132119   8.692   0.295   6.770
 6696SOL    HW232120   8.835   0.354   6.719
 6697SOL     OW32121   1.446   3.567   6.434
 6697SOL    HW132122   1.370   3.532   6.380
 6697SOL    HW232123   1.530   3.563   6.380
 6698SOL     OW32124   8.574   2.045   0.404
 6698SOL    HW132125   8.503   2.071   0.470
 6698SOL    HW232126   8.633   2.124   0.386
 6699SOL     OW32127   8.392   0.866   5.828
 6699SOL    HW132128   8.394   0.957   5.786
 6699SOL    HW232129   8.381   0.797   5.757
 6700SOL     OW32130   7.572   7.655   0.768
 6700SOL    HW132131   7.571   7.706   0.854
 6700SOL    HW232132   7.598   7.560   0.786
 6701SOL     OW32133   8.768   2.093   1.116
 6701SOL    HW132134   8.761   2.193   1.123
 6701SOL    HW232135   8.817   2.058   1.195
 6702SOL     OW32136   4.304   5.240   6.738
 6702SOL    HW132137   4.220   5.244   6.682
 6702SOL    HW232138   4.356   5.324   6.725
 6703SOL     OW32139   8.829   8.052   6.027
 6703SOL    HW132140   8.745   8.106   6.016
 6703SOL    HW232141   8.820   7.967   5.975
 6704SOL     OW32142   4.464   4.969   6.539
 6704SOL    HW132143   4.479   4.997   6.634
 6704SOL    HW232144   4.366   4.961   6.522
 6705SOL     OW32145   9.310   7.507   6.668
 6705SOL    HW132146   9.308   7.569   6.746
 6705SOL    HW232147   9.277   7.555   6.586
 6706SOL     OW32148   2.773   2.531   1.501
 6706SOL    HW132149   2.686   2.508   1.457
 6706SOL    HW232150   2.776   2.488   1.592
 6707SOL     OW32151   4.291   1.593   2.153
 6707SOL    HW132152   4.370   1.532   2.161
 6707SOL    HW232153   4.207   1.540   2.159
 6708SOL     OW32154   4.928   8.431   0.278
 6708SOL    HW132155   5.014   8.474   0.304
 6708SOL    HW232156   4.866   8.499   0.241
 6709SOL     OW32157   2.242   3.240   0.311
 6709SOL    HW132158   2.275   3.157   0.356
 6709SOL    HW232159   2.247   3.229   0.212
 6710SOL     OW32160   8.054   1.749   0.300
 6710SOL    HW132161   8.112   1.670   0.317
 6710SOL    HW232162   8.046   1.804   0.383
 6711SOL     OW32163   0.762   1.730   0.972
 6711SOL    HW132164   0.748   1.751   1.069
 6711SOL    HW232165   0.848   1.771   0.941
 6712SOL     OW32166   4.204   0.284   1.481
 6712SOL    HW132167   4.106   0.275   1.498
 6712SOL    HW232168   4.252   0.301   1.567
 6713SOL     OW32169   2.261   0.254   5.344
 6713SOL    HW132170   2.274   0.306   5.259
 6713SOL    HW232171   2.194   0.182   5.329
 6714SOL     OW32172   1.330   0.195   0.639
 6714SOL    HW132173   1.297   0.120   0.696
 6714SOL    HW232174   1.315   0.282   0.686
 6715SOL     OW32175   2.801   0.743   5.818
 6715SOL    HW132176   2.755   0.828   5.791
 6715SOL    HW232177   2.755   0.665   5.777
 6716SOL     OW32178   0.936   8.410   0.746
 6716SOL    HW132179   0.983   8.468   0.680
 6716SOL    HW232180   0.992   8.329   0.765
 6717SOL     OW32181   3.212   0.724   1.483
 6717SOL    HW132182   3.244   0.634   1.456
 6717SOL    HW232183   3.121   0.740   1.445
 6718SOL     OW32184   2.139   7.251   6.416
 6718SOL    HW132185   2.187   7.208   6.492
 6718SOL    HW232186   2.103   7.340   6.446
 6719SOL     OW32187   8.300   2.056   0.491
 6719SOL    HW132188   8.213   2.046   0.539
 6719SOL    HW232189   8.288   2.027   0.395
 6720SOL     OW32190   0.463   4.427   1.727
 6720SOL    HW132191   0.441   4.523   1.712
 6720SOL    HW232192   0.411   4.392   1.804
 6721SOL     OW32193   2.401   5.791   1.670
 6721SOL    HW132194   2.361   5.703   1.697
 6721SOL    HW232195   2.501   5.782   1.666
 6722SOL     OW32196   4.322   4.283   1.741
 6722SOL    HW132197   4.328   4.381   1.727
 6722SOL    HW232198   4.289   4.264   1.834
 6723SOL     OW32199   1.349   6.588   1.425
 6723SOL    HW132200   1.337   6.590   1.326
 6723SOL    HW232201   1.323   6.676   1.464
 6724SOL     OW32202   6.052   7.047   5.650
 6724SOL    HW132203   6.136   7.059   5.703
 6724SOL    HW232204   6.014   6.956   5.668
 6725SOL     OW32205   1.546   3.968   6.154
 6725SOL    HW132206   1.643   3.945   6.160
 6725SOL    HW232207   1.533   4.039   6.084
 6726SOL     OW32208   7.453   6.062   6.579
 6726SOL    HW132209   7.463   6.155   6.543
 6726SOL    HW232210   7.356   6.038   6.583
 6727SOL     OW32211   1.380   5.626   0.554
 6727SOL    HW132212   1.338   5.635   0.464
 6727SOL    HW232213   1.331   5.683   0.619
 6728SOL     OW32214   7.057   3.249   1.253
 6728SOL    HW132215   6.988   3.294   1.310
 6728SOL    HW232216   7.135   3.310   1.241
 6729SOL     OW32217   8.485   6.010   0.613
 6729SOL    HW132218   8.398   6.061   0.617
 6729SOL    HW232219   8.521   5.998   0.705
 6730SOL     OW32220   4.167   2.813   1.942
 6730SOL    HW132221   4.220   2.837   2.023
 6730SOL    HW232222   4.101   2.742   1.966
 6731SOL     OW32223   7.396   3.410   2.116
 6731SOL    HW132224   7.367   3.470   2.190
 6731SOL    HW232225   7.326   3.407   2.046
 6732SOL     OW32226   7.803   8.395   6.273
 6732SOL    HW132227   7.765   8.485   6.292
 6732SOL    HW232228   7.852   8.397   6.186
 6733SOL     OW32229   5.057   6.876   6.052
 6733SOL    HW132230   5.101   6.794   6.016
 6733SOL    HW232231   4.973   6.849   6.101
 6734SOL     OW32232   2.213   1.971   0.938
 6734SOL    HW132233   2.281   1.899   0.944
 6734SOL    HW232234   2.128   1.941   0.982
 6735SOL     OW32235   4.574   3.417   6.590
 6735SOL    HW132236   4.652   3.475   6.614
 6735SOL    HW232237   4.548   3.434   6.495
 6736SOL     OW32238   1.346   3.817   6.274
 6736SOL    HW132239   1.423   3.876   6.249
 6736SOL    HW232240   1.376   3.749   6.340
 6737SOL     OW32241   9.122   4.701   6.260
 6737SOL    HW132242   9.216   4.692   6.294
 6737SOL    HW232243   9.108   4.639   6.183
 6738SOL     OW32244   1.577   1.434   0.867
 6738SOL    HW132245   1.608   1.392   0.782
 6738SOL    HW232246   1.492   1.390   0.897
 6739SOL     OW32247   8.443   1.950   5.702
 6739SOL    HW132248   8.394   1.866   5.723
 6739SOL    HW232249   8.467   1.952   5.605
 6740SOL     OW32250   5.621   3.193   6.023
 6740SOL    HW132251   5.558   3.246   6.079
 6740SOL    HW232252   5.571   3.151   5.947
 6741SOL     OW32253   8.490   7.771   0.366
 6741SOL    HW132254   8.551   7.766   0.445
 6741SOL    HW232255   8.535   7.820   0.292
 6742SOL     OW32256   4.765   5.333   6.675
 6742SOL    HW132257   4.730   5.253   6.627
 6742SOL    HW232258   4.864   5.337   6.668
 6743SOL     OW32259   3.261   6.135   5.748
 6743SOL    HW132260   3.274   6.100   5.655
 6743SOL    HW232261   3.291   6.065   5.814
 6744SOL     OW32262   7.760   3.139   6.032
 6744SOL    HW132263   7.727   3.228   6.064
 6744SOL    HW232264   7.846   3.152   5.983
 6745SOL     OW32265   6.996   8.103   0.843
 6745SOL    HW132266   7.094   8.104   0.863
 6745SOL    HW232267   6.951   8.034   0.900
 6746SOL     OW32268   4.594   0.541   5.780
 6746SOL    HW132269   4.547   0.530   5.693
 6746SOL    HW232270   4.531   0.577   5.848
 6747SOL     OW32271   3.581   7.738   5.223
 6747SOL    HW132272   3.591   7.646   5.262
 6747SOL    HW232273   3.657   7.756   5.161
 6748SOL     OW32274   6.121   5.573   0.711
 6748SOL    HW132275   6.192   5.643   0.717
 6748SOL    HW232276   6.116   5.523   0.797
 6749SOL     OW32277   0.842   1.769   6.382
 6749SOL    HW132278   0.796   1.843   6.432
 6749SOL    HW232279   0.885   1.806   6.300
 6750SOL     OW32280   7.984   2.684   0.930
 6750SOL    HW132281   8.037   2.604   0.958
 6750SOL    HW232282   8.028   2.727   0.851
 6751SOL     OW32283   5.924   3.728   0.269
 6751SOL    HW132284   5.896   3.666   0.342
 6751SOL    HW232285   5.999   3.686   0.218
 6752SOL     OW32286   5.272   1.337   5.087
 6752SOL    HW132287   5.269   1.417   5.027
 6752SOL    HW232288   5.184   1.289   5.083
 6753SOL     OW32289   1.382   5.349   0.459
 6753SOL    HW132290   1.365   5.441   0.424
 6753SOL    HW232291   1.349   5.343   0.553
 6754SOL     OW32292   5.931   3.241   0.628
 6754SOL    HW132293   5.920   3.256   0.530
 6754SOL    HW232294   5.861   3.177   0.660
 6755SOL     OW32295   3.575   7.876   0.990
 6755SOL    HW132296   3.643   7.854   1.060
 6755SOL    HW232297   3.495   7.917   1.032
 6756SOL     OW32298   0.504   3.175   0.992
 6756SOL    HW132299   0.505   3.267   1.031
 6756SOL    HW232300   0.469   3.111   1.059
 6757SOL     OW32301   2.029   2.720   0.535
 6757SOL    HW132302   2.026   2.704   0.634
 6757SOL    HW232303   1.996   2.638   0.487
 6758SOL     OW32304   7.495   7.774   5.520
 6758SOL    HW132305   7.433   7.779   5.441
 6758SOL    HW232306   7.441   7.761   5.603
 6759SOL     OW32307   1.943   7.152   5.938
 6759SOL    HW132308   1.896   7.235   5.908
 6759SOL    HW232309   1.876   7.079   5.951
 6760SOL     OW32310   3.339   7.800   5.314
 6760SOL    HW132311   3.434   7.784   5.288
 6760SOL    HW232312   3.336   7.863   5.392
 6761SOL     OW32313   4.539   1.445   2.242
 6761SOL    HW132314   4.551   1.346   2.247
 6761SOL    HW232315   4.629   1.489   2.241
 6762SOL     OW32316   8.680   0.286   1.291
 6762SOL    HW132317   8.763   0.239   1.320
 6762SOL    HW232318   8.622   0.303   1.371
 6763SOL     OW32319   9.350  -0.061   6.442
 6763SOL    HW132320   9.448  -0.079   6.439
 6763SOL    HW232321   9.332   0.016   6.503
 6764SOL     OW32322   8.919   5.914   4.736
 6764SOL    HW132323   8.875   5.948   4.653
 6764SOL    HW232324   8.901   5.977   4.811
 6765SOL     OW32325   9.451   6.307   1.599
 6765SOL    HW132326   9.362   6.273   1.566
 6765SOL    HW232327   9.522   6.239   1.581
 6766SOL     OW32328   1.768   5.250   6.846
 6766SOL    HW132329   1.728   5.249   6.937
 6766SOL    HW232330   1.739   5.332   6.797
 6767SOL     OW32331   9.298   3.515   2.049
 6767SOL    HW132332   9.291   3.482   2.143
 6767SOL    HW232333   9.221   3.481   1.996
 6768SOL     OW32334   8.399   2.316   0.590
 6768SOL    HW132335   8.366   2.224   0.566
 6768SOL    HW232336   8.352   2.384   0.534
 6769SOL     OW32337   7.833   7.594   1.104
 6769SOL    HW132338   7.923   7.593   1.060
 6769SOL    HW232339   7.786   7.679   1.080
 6770SOL     OW32340   9.188   4.788   5.946
 6770SOL    HW132341   9.255   4.805   6.019
 6770SOL    HW232342   9.224   4.718   5.884
 6771SOL     OW32343   2.540   1.929   0.847
 6771SOL    HW132344   2.532   1.858   0.918
 6771SOL    HW232345   2.605   1.899   0.777
 6772SOL     OW32346   2.034   2.383   1.699
 6772SOL    HW132347   2.046   2.472   1.742
 6772SOL    HW232348   1.983   2.323   1.761
 6773SOL     OW32349   3.763   2.879   6.875
 6773SOL    HW132350   3.853   2.923   6.880
 6773SOL    HW232351   3.697   2.932   6.928
 6774SOL     OW32352   5.940   3.936   5.993
 6774SOL    HW132353   5.965   3.839   5.991
 6774SOL    HW232354   5.860   3.950   5.935
 6775SOL     OW32355   6.333   4.761   1.042
 6775SOL    HW132356   6.320   4.769   0.943
 6775SOL    HW232357   6.408   4.821   1.070
 6776SOL     OW32358   5.500   1.113   5.655
 6776SOL    HW132359   5.516   1.104   5.754
 6776SOL    HW232360   5.405   1.091   5.635
 6777SOL     OW32361   2.562   7.753   0.764
 6777SOL    HW132362   2.598   7.771   0.856
 6777SOL    HW232363   2.523   7.661   0.761
 6778SOL     OW32364   5.742   3.091   6.280
 6778SOL    HW132365   5.708   3.111   6.188
 6778SOL    HW232366   5.702   3.156   6.345
 6779SOL     OW32367   3.330   5.444   0.935
 6779SOL    HW132368   3.421   5.402   0.928
 6779SOL    HW232369   3.316   5.479   1.028
 6780SOL     OW32370   9.031   5.701   6.973
 6780SOL    HW132371   8.954   5.747   6.930
 6780SOL    HW232372   8.998   5.640   7.045
 6781SOL     OW32373   3.092   8.406   0.566
 6781SOL    HW132374   3.186   8.424   0.592
 6781SOL    HW232375   3.077   8.432   0.471
 6782SOL     OW32376   2.544   2.461   2.523
 6782SOL    HW132377   2.605   2.530   2.485
 6782SOL    HW232378   2.449   2.490   2.509
 6783SOL     OW32379   2.407   1.015   0.813
 6783SOL    HW132380   2.457   1.101   0.820
 6783SOL    HW232381   2.320   1.023   0.862
 6784SOL     OW32382   9.557   5.356   0.822
 6784SOL    HW132383   9.525   5.270   0.783
 6784SOL    HW232384   9.530   5.361   0.918
 6785SOL     OW32385   7.276   5.254   6.706
 6785SOL    HW132386   7.246   5.314   6.632
 6785SOL    HW232387   7.200   5.238   6.769
 6786SOL     OW32388   4.323   5.561   1.645
 6786SOL    HW132389   4.240   5.510   1.623
 6786SOL    HW232390   4.393   5.499   1.680
 6787SOL     OW32391   3.888   0.128   0.904
 6787SOL    HW132392   3.880   0.197   0.976
 6787SOL    HW232393   3.943   0.165   0.829
 6788SOL     OW32394   5.357   3.649   6.242
 6788SOL    HW132395   5.451   3.614   6.247
 6788SOL    HW232396   5.304   3.592   6.179
 6789SOL     OW32397   4.690   5.474   1.248
 6789SOL    HW132398   4.712   5.556   1.194
 6789SOL    HW232399   4.695   5.393   1.189
 6790SOL     OW32400   7.075   7.942   0.346
 6790SOL    HW132401   7.075   7.870   0.276
 6790SOL    HW232402   7.020   8.019   0.314
 6791SOL     OW32403   7.151   2.123   1.453
 6791SOL    HW132404   7.193   2.144   1.365
 6791SOL    HW232405   7.136   2.208   1.504
 6792SOL     OW32406   3.223   2.147   1.993
 6792SOL    HW132407   3.162   2.222   2.016
 6792SOL    HW232408   3.308   2.183   1.955
 6793SOL     OW32409   5.057   5.470   6.982
 6793SOL    HW132410   5.040   5.512   7.071
 6793SOL    HW232411   5.098   5.380   6.994
 6794SOL     OW32412   2.033   4.414   1.390
 6794SOL    HW132413   1.982   4.373   1.315
 6794SOL    HW232414   1.987   4.496   1.422
 6795SOL     OW32415   3.482   4.386   6.774
 6795SOL    HW132416   3.470   4.482   6.799
 6795SOL    HW232417   3.401   4.334   6.801
 6796SOL     OW32418   4.126   4.102   1.299
 6796SOL    HW132419   4.088   4.120   1.390
 6796SOL    HW232420   4.173   4.183   1.265
 6797SOL     OW32421   4.110   4.124   1.602
 6797SOL    HW132422   4.075   4.122   1.696
 6797SOL    HW232423   4.189   4.185   1.598
 6798SOL     OW32424   5.023   7.684   1.687
 6798SOL    HW132425   5.099   7.674   1.752
 6798SOL    HW232426   5.057   7.669   1.594
 6799SOL     OW32427   8.270   1.811   1.408
 6799SOL    HW132428   8.329   1.784   1.484
 6799SOL    HW232429   8.202   1.877   1.440
 6800SOL     OW32430   7.654   4.965   6.250
 6800SOL    HW132431   7.633   4.891   6.314
 6800SOL    HW232432   7.744   5.002   6.271
 6801SOL     OW32433   0.486   6.053   1.173
 6801SOL    HW132434   0.490   5.967   1.123
 6801SOL    HW232435   0.486   6.035   1.271
 6802SOL     OW32436   1.868   4.725   6.951
 6802SOL    HW132437   1.942   4.704   6.886
 6802SOL    HW232438   1.846   4.822   6.947
 6803SOL     OW32439   2.695   8.316   0.554
 6803SOL    HW132440   2.688   8.384   0.627
 6803SOL    HW232441   2.694   8.224   0.594
 6804SOL     OW32442   3.781   7.506   5.074
 6804SOL    HW132443   3.762   7.412   5.044
 6804SOL    HW232444   3.865   7.507   5.127
 6805SOL     OW32445   5.252   7.811   1.792
 6805SOL    HW132446   5.313   7.890   1.792
 6805SOL    HW232447   5.296   7.735   1.841
 6806SOL     OW32448   7.451   6.771   6.704
 6806SOL    HW132449   7.470   6.782   6.607
 6806SOL    HW232450   7.531   6.732   6.749
 6807SOL     OW32451   4.488   5.877   6.711
 6807SOL    HW132452   4.536   5.889   6.624
 6807SOL    HW232453   4.555   5.863   6.784
 6808SOL     OW32454   9.208   5.530   5.980
 6808SOL    HW132455   9.140   5.458   5.998
 6808SOL    HW232456   9.279   5.526   6.051
 6809SOL     OW32457   8.703   2.840   5.453
 6809SOL    HW132458   8.774   2.796   5.398
 6809SOL    HW232459   8.669   2.921   5.404
 6810SOL     OW32460   8.463   7.971   5.408
 6810SOL    HW132461   8.461   8.049   5.345
 6810SOL    HW232462   8.493   7.889   5.360
 6811SOL     OW32463   7.952   3.804   6.708
 6811SOL    HW132464   7.899   3.872   6.758
 6811SOL    HW232465   7.915   3.713   6.724
 6812SOL     OW32466   2.773   1.422   1.298
 6812SOL    HW132467   2.691   1.470   1.326
 6812SOL    HW232468   2.851   1.453   1.352
 6813SOL     OW32469   3.333   7.549   0.584
 6813SOL    HW132470   3.272   7.475   0.614
 6813SOL    HW232471   3.407   7.560   0.651
 6814SOL     OW32472   6.909   5.685   5.910
 6814SOL    HW132473   6.941   5.751   5.978
 6814SOL    HW232474   6.810   5.673   5.920
 6815SOL     OW32475   4.322   0.391   1.695
 6815SOL    HW132476   4.343   0.303   1.736
 6815SOL    HW232477   4.388   0.459   1.725
 6816SOL     OW32478   3.516   2.859   2.368
 6816SOL    HW132479   3.529   2.765   2.400
 6816SOL    HW232480   3.456   2.908   2.431
 6817SOL     OW32481   5.224   6.231   6.451
 6817SOL    HW132482   5.297   6.184   6.501
 6817SOL    HW232483   5.137   6.220   6.500
 6818SOL     OW32484   0.795   5.263   0.787
 6818SOL    HW132485   0.729   5.215   0.846
 6818SOL    HW232486   0.855   5.197   0.742
 6819SOL     OW32487   4.010   7.329   1.005
 6819SOL    HW132488   4.022   7.345   0.908
 6819SOL    HW232489   4.049   7.240   1.029
 6820SOL     OW32490   5.153   1.709   0.748
 6820SOL    HW132491   5.171   1.794   0.798
 6820SOL    HW232492   5.231   1.647   0.759
 6821SOL     OW32493   5.200   8.317   2.042
 6821SOL    HW132494   5.295   8.326   2.071
 6821SOL    HW232495   5.141   8.314   2.122
 6822SOL     OW32496   9.412   0.064   0.577
 6822SOL    HW132497   9.380   0.138   0.518
 6822SOL    HW232498   9.440  -0.014   0.521
 6823SOL     OW32499   4.902   2.090   0.363
 6823SOL    HW132500   4.971   2.021   0.341
 6823SOL    HW232501   4.928   2.137   0.447
 6824SOL     OW32502   3.828   1.936   2.758
 6824SOL    HW132503   3.836   1.837   2.749
 6824SOL    HW232504   3.740   1.959   2.801
 6825SOL     OW32505   8.588   6.656   6.343
 6825SOL    HW132506   8.634   6.587   6.400
 6825SOL    HW232507   8.556   6.613   6.259
 6826SOL     OW32508   5.140   7.162   1.495
 6826SOL    HW132509   5.066   7.094   1.487
 6826SOL    HW232510   5.226   7.121   1.467
 6827SOL     OW32511   0.407   2.579   5.982
 6827SOL    HW132512   0.401   2.660   6.040
 6827SOL    HW232513   0.315   2.549   5.957
 6828SOL     OW32514   3.546   1.972   1.899
 6828SOL    HW132515   3.607   1.964   1.820
 6828SOL    HW232516   3.499   1.886   1.914
 6829SOL     OW32517   3.927   6.841   1.889
 6829SOL    HW132518   3.968   6.828   1.799
 6829SOL    HW232519   3.986   6.899   1.945
 6830SOL     OW32520   7.602   4.761   6.445
 6830SOL    HW132521   7.673   4.715   6.499
 6830SOL    HW232522   7.518   4.769   6.499
 6831SOL     OW32523   5.450   2.208   0.766
 6831SOL    HW132524   5.397   2.289   0.792
 6831SOL    HW232525   5.437   2.137   0.835
 6832SOL     OW32526   5.045   8.312   1.815
 6832SOL    HW132527   5.119   8.272   1.761
 6832SOL    HW232528   5.077   8.331   1.908
 6833SOL     OW32529   9.466   5.717   1.077
 6833SOL    HW132530   9.445   5.734   1.174
 6833SOL    HW232531   9.557   5.751   1.056
 6834SOL     OW32532   0.662   6.811   4.990
 6834SOL    HW132533   0.605   6.770   5.061
 6834SOL    HW232534   0.631   6.779   4.900
 6835SOL     OW32535   7.513   5.245   6.870
 6835SOL    HW132536   7.592   5.209   6.820
 6835SOL    HW232537   7.443   5.276   6.806
 6836SOL     OW32538   2.222   5.717   6.265
 6836SOL    HW132539   2.314   5.683   6.282
 6836SOL    HW232540   2.189   5.765   6.346
 6837SOL     OW32541   1.635   4.589   6.386
 6837SOL    HW132542   1.588   4.501   6.385
 6837SOL    HW232543   1.709   4.587   6.453
 6838SOL     OW32544   8.204   3.899   0.545
 6838SOL    HW132545   8.253   3.817   0.576
 6838SOL    HW232546   8.258   3.945   0.474
 6839SOL     OW32547   7.127   6.818   6.250
 6839SOL    HW132548   7.159   6.832   6.157
 6839SOL    HW232549   7.057   6.885   6.272
 6840SOL     OW32550   7.534   2.031   6.943
 6840SOL    HW132551   7.443   1.993   6.934
 6840SOL    HW232552   7.601   1.968   6.904
 6841SOL     OW32553   1.989   0.337   2.150
 6841SOL    HW132554   1.926   0.270   2.189
 6841SOL    HW232555   1.938   0.404   2.097
 6842SOL     OW32556   3.528   4.668   6.076
 6842SOL    HW132557   3.615   4.666   6.027
 6842SOL    HW232558   3.472   4.591   6.047
 6843SOL     OW32559   5.549   4.791   0.827
 6843SOL    HW132560   5.517   4.832   0.743
 6843SOL    HW232561   5.551   4.860   0.900
 6844SOL     OW32562   7.055   5.533   5.677
 6844SOL    HW132563   7.010   5.598   5.739
 6844SOL    HW232564   7.099   5.460   5.731
 6845SOL     OW32565   3.298   4.403   6.545
 6845SOL    HW132566   3.342   4.434   6.460
 6845SOL    HW232567   3.360   4.418   6.622
 6846SOL     OW32568   1.737   2.665   5.716
 6846SOL    HW132569   1.729   2.645   5.618
 6846SOL    HW232570   1.704   2.757   5.734
 6847SOL     OW32571   0.898   0.696   5.649
 6847SOL    HW132572   0.878   0.705   5.747
 6847SOL    HW232573   0.985   0.743   5.630
 6848SOL     OW32574   6.624   4.344   0.994
 6848SOL    HW132575   6.530   4.378   0.999
 6848SOL    HW232576   6.632   4.279   0.919
 6849SOL     OW32577   2.943   5.114   5.760
 6849SOL    HW132578   2.929   5.195   5.702
 6849SOL    HW232579   2.952   5.033   5.702
 6850SOL     OW32580   1.491   8.140   0.636
 6850SOL    HW132581   1.444   8.212   0.687
 6850SOL    HW232582   1.536   8.078   0.700
 6851SOL     OW32583   1.896   8.335   6.150
 6851SOL    HW132584   1.839   8.400   6.201
 6851SOL    HW232585   1.987   8.374   6.136
 6852SOL     OW32586   6.199   2.528   5.655
 6852SOL    HW132587   6.244   2.535   5.744
 6852SOL    HW232588   6.257   2.572   5.585
 6853SOL     OW32589   0.945   1.878   0.847
 6853SOL    HW132590   0.931   1.964   0.798
 6853SOL    HW232591   1.040   1.849   0.836
 6854SOL     OW32592   3.262   0.433   1.828
 6854SOL    HW132593   3.337   0.389   1.879
 6854SOL    HW232594   3.199   0.362   1.796
 6855SOL     OW32595   2.867   0.225   0.575
 6855SOL    HW132596   2.774   0.221   0.539
 6855SOL    HW232597   2.864   0.229   0.675
 6856SOL     OW32598   6.239   7.470   1.513
 6856SOL    HW132599   6.267   7.474   1.417
 6856SOL    HW232600   6.183   7.550   1.535
 6857SOL     OW32601   0.540   3.016   6.256
 6857SOL    HW132602   0.478   3.075   6.310
 6857SOL    HW232603   0.605   2.971   6.317
 6858SOL     OW32604   9.116   4.759   0.701
 6858SOL    HW132605   9.062   4.821   0.643
 6858SOL    HW232606   9.188   4.717   0.646
 6859SOL     OW32607   2.144   2.689   6.522
 6859SOL    HW132608   2.129   2.671   6.425
 6859SOL    HW232609   2.066   2.654   6.575
 6860SOL     OW32610   4.128   4.224   6.293
 6860SOL    HW132611   4.148   4.152   6.227
 6860SOL    HW232612   4.194   4.298   6.283
 6861SOL     OW32613   9.228   1.822   6.017
 6861SOL    HW132614   9.211   1.889   6.089
 6861SOL    HW232615   9.318   1.781   6.031
 6862SOL     OW32616   5.642   0.213   0.272
 6862SOL    HW132617   5.568   0.278   0.255
 6862SOL    HW232618   5.606   0.134   0.322
 6863SOL     OW32619   0.607   1.629   6.648
 6863SOL    HW132620   0.575   1.595   6.560
 6863SOL    HW232621   0.574   1.568   6.721
 6864SOL     OW32622   1.206   6.346   6.657
 6864SOL    HW132623   1.144   6.383   6.588
 6864SOL    HW232624   1.154   6.309   6.734
 6865SOL     OW32625   3.086   3.928   1.468
 6865SOL    HW132626   3.057   3.994   1.399
 6865SOL    HW232627   3.075   3.968   1.559
 6866SOL     OW32628   5.880   7.300   5.851
 6866SOL    HW132629   5.812   7.236   5.816
 6866SOL    HW232630   5.924   7.346   5.774
 6867SOL     OW32631   2.017   6.999   0.313
 6867SOL    HW132632   2.011   6.900   0.304
 6867SOL    HW232633   2.020   7.024   0.410
 6868SOL     OW32634   6.323   5.652   6.171
 6868SOL    HW132635   6.270   5.582   6.123
 6868SOL    HW232636   6.288   5.661   6.264
 6869SOL     OW32637   8.513   7.835   6.650
 6869SOL    HW132638   8.476   7.755   6.696
 6869SOL    HW232639   8.484   7.834   6.554
 6870SOL     OW32640   9.199   0.114   6.828
 6870SOL    HW132641   9.232   0.125   6.735
 6870SOL    HW232642   9.109   0.157   6.838
 6871SOL     OW32643   0.136   5.026   0.960
 6871SOL    HW132644   0.178   4.938   0.982
 6871SOL    HW232645   0.036   5.016   0.962
 6872SOL     OW32646   8.258   8.282   6.404
 6872SOL    HW132647   8.165   8.308   6.429
 6872SOL    HW232648   8.268   8.182   6.411
 6873SOL     OW32649   4.884   4.507   0.695
 6873SOL    HW132650   4.786   4.509   0.676
 6873SOL    HW232651   4.925   4.595   0.671
 6874SOL     OW32652   5.419   5.637   1.519
 6874SOL    HW132653   5.321   5.641   1.538
 6874SOL    HW232654   5.441   5.699   1.443
 6875SOL     OW32655   1.088   8.213   1.118
 6875SOL    HW132656   1.158   8.282   1.100
 6875SOL    HW232657   1.127   8.122   1.103
 6876SOL     OW32658   6.489   2.046   5.862
 6876SOL    HW132659   6.399   2.075   5.830
 6876SOL    HW232660   6.553   2.047   5.786
 6877SOL     OW32661   2.308   2.833   6.670
 6877SOL    HW132662   2.239   2.768   6.638
 6877SOL    HW232663   2.332   2.896   6.595
 6878SOL     OW32664   5.321   1.822   6.927
 6878SOL    HW132665   5.343   1.902   6.983
 6878SOL    HW232666   5.398   1.802   6.867
 6879SOL     OW32667   3.785   5.957   5.969
 6879SOL    HW132668   3.873   5.949   5.924
 6879SOL    HW232669   3.717   5.993   5.905
 6880SOL     OW32670   8.460   3.274   6.454
 6880SOL    HW132671   8.410   3.354   6.420
 6880SOL    HW232672   8.395   3.207   6.490
 6881SOL     OW32673   4.240   4.384   1.456
 6881SOL    HW132674   4.145   4.408   1.434
 6881SOL    HW232675   4.247   4.366   1.555
 6882SOL     OW32676   9.386   4.671   6.289
 6882SOL    HW132677   9.428   4.712   6.208
 6882SOL    HW232678   9.451   4.608   6.332
 6883SOL     OW32679   1.668   0.047   6.634
 6883SOL    HW132680   1.659  -0.051   6.616
 6883SOL    HW232681   1.750   0.063   6.688
 6884SOL     OW32682   1.878   2.212   1.472
 6884SOL    HW132683   1.813   2.278   1.435
 6884SOL    HW232684   1.936   2.258   1.540
 6885SOL     OW32685   3.326   7.712   1.533
 6885SOL    HW132686   3.351   7.662   1.450
 6885SOL    HW232687   3.301   7.806   1.508
 6886SOL     OW32688   0.353   1.367   5.874
 6886SOL    HW132689   0.336   1.271   5.852
 6886SOL    HW232690   0.286   1.425   5.828
 6887SOL     OW32691   1.185   5.023   1.976
 6887SOL    HW132692   1.196   4.933   2.017
 6887SOL    HW232693   1.254   5.036   1.905
 6888SOL     OW32694   3.821   7.378   5.771
 6888SOL    HW132695   3.894   7.446   5.770
 6888SOL    HW232696   3.844   7.307   5.838
 6889SOL     OW32697   6.125   2.191   6.891
 6889SOL    HW132698   6.221   2.187   6.920
 6889SOL    HW232699   6.067   2.210   6.970
 6890SOL     OW32700   3.802   2.881   2.158
 6890SOL    HW132701   3.825   2.861   2.253
 6890SOL    HW232702   3.715   2.932   2.155
 6891SOL     OW32703   5.942   6.126   6.461
 6891SOL    HW132704   6.002   6.049   6.441
 6891SOL    HW232705   5.848   6.102   6.438
 6892SOL     OW32706   4.184   4.975   6.506
 6892SOL    HW132707   4.205   5.054   6.450
 6892SOL    HW232708   4.085   4.961   6.509
 6893SOL     OW32709   0.933   7.050   6.257
 6893SOL    HW132710   0.989   6.977   6.220
 6893SOL    HW232711   0.919   7.120   6.187
 6894SOL     OW32712   6.035   0.257   6.214
 6894SOL    HW132713   6.060   0.350   6.241
 6894SOL    HW232714   5.980   0.261   6.130
 6895SOL     OW32715   1.043   0.434   0.707
 6895SOL    HW132716   1.080   0.491   0.634
 6895SOL    HW232717   0.953   0.468   0.734
 6896SOL     OW32718   5.103   4.267   1.409
 6896SOL    HW132719   5.194   4.265   1.449
 6896SOL    HW232720   5.079   4.361   1.386
 6897SOL     OW32721   1.870   8.084   6.306
 6897SOL    HW132722   1.895   8.170   6.263
 6897SOL    HW232723   1.848   8.100   6.403
 6898SOL     OW32724   4.803   5.814   5.417
 6898SOL    HW132725   4.747   5.878   5.365
 6898SOL    HW232726   4.797   5.723   5.375
 6899SOL     OW32727   6.062   0.980   6.097
 6899SOL    HW132728   6.087   0.950   6.005
 6899SOL    HW232729   5.980   0.930   6.127
 6900SOL     OW32730   0.814   5.816   4.847
 6900SOL    HW132731   0.719   5.806   4.876
 6900SOL    HW232732   0.826   5.906   4.805
 6901SOL     OW32733   0.431   7.369   1.096
 6901SOL    HW132734   0.395   7.462   1.092
 6901SOL    HW232735   0.368   7.312   1.150
 6902SOL     OW32736   3.885   8.284   0.615
 6902SOL    HW132737   3.832   8.248   0.691
 6902SOL    HW232738   3.950   8.215   0.583
 6903SOL     OW32739   8.967   0.610   0.812
 6903SOL    HW132740   9.004   0.627   0.903
 6903SOL    HW232741   8.915   0.690   0.782
 6904SOL     OW32742   4.157   6.400   5.300
 6904SOL    HW132743   4.219   6.364   5.230
 6904SOL    HW232744   4.068   6.420   5.258
 6905SOL     OW32745   0.606   1.045   5.234
 6905SOL    HW132746   0.570   1.037   5.141
 6905SOL    HW232747   0.681   1.111   5.236
 6906SOL     OW32748   6.687   5.958   6.493
 6906SOL    HW132749   6.600   6.004   6.476
 6906SOL    HW232750   6.681   5.863   6.461
 6907SOL     OW32751   6.317   5.507   5.427
 6907SOL    HW132752   6.292   5.518   5.331
 6907SOL    HW232753   6.248   5.453   5.474
 6908SOL     OW32754   1.017   3.004   5.452
 6908SOL    HW132755   0.940   3.034   5.394
 6908SOL    HW232756   1.099   2.994   5.396
 6909SOL     OW32757   1.127   7.213   4.843
 6909SOL    HW132758   1.199   7.248   4.783
 6909SOL    HW232759   1.139   7.115   4.856
 6910SOL     OW32760   8.031   4.834   6.978
 6910SOL    HW132761   7.965   4.876   6.916
 6910SOL    HW232762   8.061   4.901   7.046
 6911SOL     OW32763   2.792   1.492   1.779
 6911SOL    HW132764   2.744   1.419   1.732
 6911SOL    HW232765   2.751   1.509   1.869
 6912SOL     OW32766   6.644   7.519   6.731
 6912SOL    HW132767   6.637   7.423   6.760
 6912SOL    HW232768   6.576   7.573   6.781
 6913SOL     OW32769   3.499   5.137   6.126
 6913SOL    HW132770   3.416   5.084   6.106
 6913SOL    HW232771   3.576   5.097   6.077
 6914SOL     OW32772   5.569   2.571   0.357
 6914SOL    HW132773   5.520   2.655   0.382
 6914SOL    HW232774   5.666   2.592   0.344
 6915SOL     OW32775   5.633   7.361   0.656
 6915SOL    HW132776   5.626   7.336   0.752
 6915SOL    HW232777   5.547   7.340   0.609
 6916SOL     OW32778   4.134   2.086   6.757
 6916SOL    HW132779   4.174   2.160   6.811
 6916SOL    HW232780   4.205   2.020   6.734
 6917SOL     OW32781   5.605   4.610   1.141
 6917SOL    HW132782   5.584   4.565   1.054
 6917SOL    HW232783   5.654   4.546   1.200
 6918SOL     OW32784   5.828   0.479   1.696
 6918SOL    HW132785   5.913   0.482   1.748
 6918SOL    HW232786   5.828   0.400   1.636
 6919SOL     OW32787   8.498   2.247   5.481
 6919SOL    HW132788   8.594   2.271   5.465
 6919SOL    HW232789   8.481   2.155   5.446
 6920SOL     OW32790   2.003   4.078   6.744
 6920SOL    HW132791   1.929   4.107   6.804
 6920SOL    HW232792   2.055   4.005   6.789
 6921SOL     OW32793   4.121   6.974   2.031
 6921SOL    HW132794   4.053   7.046   2.048
 6921SOL    HW232795   4.177   6.961   2.113
 6922SOL     OW32796   1.627   8.123   6.038
 6922SOL    HW132797   1.641   8.032   5.999
 6922SOL    HW232798   1.658   8.192   5.972
 6923SOL     OW32799   1.339   5.136   6.370
 6923SOL    HW132800   1.302   5.170   6.284
 6923SOL    HW232801   1.304   5.044   6.387
 6924SOL     OW32802   3.021   2.304   6.598
 6924SOL    HW132803   3.000   2.227   6.658
 6924SOL    HW232804   3.001   2.278   6.503
 6925SOL     OW32805   4.603   0.872   1.200
 6925SOL    HW132806   4.642   0.783   1.177
 6925SOL    HW232807   4.518   0.860   1.250
 6926SOL     OW32808   2.955   0.537   1.299
 6926SOL    HW132809   2.923   0.509   1.389
 6926SOL    HW232810   2.877   0.561   1.241
 6927SOL     OW32811   6.850   7.557   5.981
 6927SOL    HW132812   6.859   7.644   6.030
 6927SOL    HW232813   6.814   7.488   6.044
 6928SOL     OW32814   4.517   7.174   0.790
 6928SOL    HW132815   4.433   7.121   0.804
 6928SOL    HW232816   4.500   7.247   0.724
 6929SOL     OW32817   4.457   6.428   1.405
 6929SOL    HW132818   4.533   6.377   1.365
 6929SOL    HW232819   4.400   6.367   1.460
 6930SOL     OW32820   6.683   3.284   6.645
 6930SOL    HW132821   6.743   3.239   6.712
 6930SOL    HW232822   6.693   3.240   6.556
 6931SOL     OW32823   1.950   0.238   6.778
 6931SOL    HW132824   1.936   0.160   6.839
 6931SOL    HW232825   1.888   0.231   6.700
 6932SOL     OW32826   5.930   2.728   6.834
 6932SOL    HW132827   5.844   2.773   6.810
 6932SOL    HW232828   5.964   2.765   6.920
 6933SOL     OW32829   8.827   0.400   6.080
 6933SOL    HW132830   8.887   0.436   6.151
 6933SOL    HW232831   8.812   0.302   6.095
 6934SOL     OW32832   9.332   6.028   5.520
 6934SOL    HW132833   9.365   6.121   5.510
 6934SOL    HW232834   9.277   6.003   5.441
 6935SOL     OW32835   4.502   2.991   6.310
 6935SOL    HW132836   4.510   3.091   6.305
 6935SOL    HW232837   4.576   2.955   6.366
 6936SOL     OW32838   6.514   2.950   6.071
 6936SOL    HW132839   6.433   2.950   6.012
 6936SOL    HW232840   6.589   2.901   6.027
 6937SOL     OW32841   4.041   5.457   6.883
 6937SOL    HW132842   4.001   5.435   6.794
 6937SOL    HW232843   4.140   5.468   6.872
 6938SOL     OW32844   2.012   6.749   1.252
 6938SOL    HW132845   2.103   6.781   1.276
 6938SOL    HW232846   1.943   6.809   1.294
 6939SOL     OW32847   4.825   1.107   0.980
 6939SOL    HW132848   4.727   1.101   0.960
 6939SOL    HW232849   4.840   1.097   1.078
 6940SOL     OW32850   5.967   0.598   6.632
 6940SOL    HW132851   6.057   0.556   6.644
 6940SOL    HW232852   5.969   0.660   6.553
 6941SOL     OW32853   1.616   6.071   5.310
 6941SOL    HW132854   1.668   6.005   5.256
 6941SOL    HW232855   1.577   6.025   5.390
 6942SOL     OW32856   6.758   7.562   0.892
 6942SOL    HW132857   6.818   7.489   0.860
 6942SOL    HW232858   6.764   7.640   0.830
 6943SOL     OW32859   4.734   4.271   1.250
 6943SOL    HW132860   4.707   4.189   1.199
 6943SOL    HW232861   4.828   4.296   1.225
 6944SOL     OW32862   1.396   2.848   6.671
 6944SOL    HW132863   1.345   2.905   6.736
 6944SOL    HW232864   1.346   2.842   6.585
 6945SOL     OW32865   7.762   7.817   1.293
 6945SOL    HW132866   7.712   7.877   1.231
 6945SOL    HW232867   7.714   7.729   1.300
 6946SOL     OW32868   7.389   0.554   5.927
 6946SOL    HW132869   7.413   0.516   6.017
 6946SOL    HW232870   7.456   0.625   5.902
 6947SOL     OW32871   0.221   4.484   6.205
 6947SOL    HW132872   0.164   4.507   6.284
 6947SOL    HW232873   0.241   4.568   6.154
 6948SOL     OW32874   2.041   0.331   6.437
 6948SOL    HW132875   2.019   0.372   6.349
 6948SOL    HW232876   1.960   0.283   6.472
 6949SOL     OW32877   3.646   5.396   0.903
 6949SOL    HW132878   3.680   5.462   0.970
 6949SOL    HW232879   3.690   5.412   0.815
 6950SOL     OW32880   7.164   3.610   6.368
 6950SOL    HW132881   7.217   3.672   6.310
 6950SOL    HW232882   7.078   3.587   6.323
 6951SOL     OW32883   7.171   0.645   0.739
 6951SOL    HW132884   7.153   0.620   0.643
 6951SOL    HW232885   7.190   0.743   0.744
 6952SOL     OW32886   0.964   2.853   1.357
 6952SOL    HW132887   0.890   2.909   1.395
 6952SOL    HW232888   1.006   2.902   1.280
 6953SOL     OW32889   6.810   7.829   6.025
 6953SOL    HW132890   6.822   7.866   5.934
 6953SOL    HW232891   6.740   7.881   6.074
 6954SOL     OW32892   5.182   6.661   5.948
 6954SOL    HW132893   5.214   6.610   6.028
 6954SOL    HW232894   5.145   6.598   5.880
 6955SOL     OW32895   6.861   2.030   2.249
 6955SOL    HW132896   6.931   1.966   2.215
 6955SOL    HW232897   6.774   2.011   2.205
 6956SOL     OW32898   2.913   1.124   6.828
 6956SOL    HW132899   2.874   1.138   6.737
 6956SOL    HW232900   2.841   1.095   6.891
 6957SOL     OW32901   6.433   8.372   6.188
 6957SOL    HW132902   6.404   8.297   6.247
 6957SOL    HW232903   6.532   8.370   6.176
 6958SOL     OW32904   1.903   1.294   6.319
 6958SOL    HW132905   1.988   1.347   6.315
 6958SOL    HW232906   1.918   1.205   6.277
 6959SOL     OW32907   2.321   5.704   0.898
 6959SOL    HW132908   2.228   5.689   0.931
 6959SOL    HW232909   2.386   5.668   0.965
 6960SOL     OW32910   5.553   2.442   6.842
 6960SOL    HW132911   5.650   2.450   6.818
 6960SOL    HW232912   5.539   2.473   6.936
 6961SOL     OW32913   0.421   6.251   6.644
 6961SOL    HW132914   0.325   6.220   6.641
 6961SOL    HW232915   0.437   6.300   6.729
 6962SOL     OW32916   8.932   8.170   0.300
 6962SOL    HW132917   8.946   8.087   0.246
 6962SOL    HW232918   9.017   8.194   0.346
 6963SOL     OW32919   5.519   7.151   1.138
 6963SOL    HW132920   5.612   7.167   1.105
 6963SOL    HW232921   5.503   7.205   1.221
 6964SOL     OW32922   2.991   2.101   0.366
 6964SOL    HW132923   2.901   2.067   0.338
 6964SOL    HW232924   3.057   2.025   0.364
 6965SOL     OW32925   0.715   3.546   6.221
 6965SOL    HW132926   0.776   3.604   6.275
 6965SOL    HW232927   0.707   3.456   6.264
 6966SOL     OW32928   4.797   5.134   6.106
 6966SOL    HW132929   4.859   5.169   6.036
 6966SOL    HW232930   4.848   5.085   6.176
 6967SOL     OW32931   4.203   1.923   1.870
 6967SOL    HW132932   4.157   2.012   1.871
 6967SOL    HW232933   4.299   1.934   1.895
 6968SOL     OW32934   3.753   5.154   0.441
 6968SOL    HW132935   3.673   5.168   0.383
 6968SOL    HW232936   3.831   5.202   0.401
 6969SOL     OW32937   4.373   2.017   5.763
 6969SOL    HW132938   4.289   1.964   5.767
 6969SOL    HW232939   4.382   2.072   5.846
 6970SOL     OW32940   4.957   5.785   5.668
 6970SOL    HW132941   5.046   5.765   5.627
 6970SOL    HW232942   4.892   5.809   5.596
 6971SOL     OW32943   4.550   7.640   6.705
 6971SOL    HW132944   4.643   7.671   6.727
 6971SOL    HW232945   4.497   7.715   6.667
 6972SOL     OW32946   5.881   3.579   0.513
 6972SOL    HW132947   5.980   3.584   0.527
 6972SOL    HW232948   5.849   3.488   0.541
 6973SOL     OW32949   8.593   3.832   0.487
 6973SOL    HW132950   8.675   3.815   0.432
 6973SOL    HW232951   8.520   3.770   0.456
 6974SOL     OW32952   2.221   4.092   6.347
 6974SOL    HW132953   2.190   4.028   6.276
 6974SOL    HW232954   2.144   4.114   6.407
 6975SOL     OW32955   1.622   5.516   0.564
 6975SOL    HW132956   1.634   5.476   0.655
 6975SOL    HW232957   1.530   5.553   0.555
 6976SOL     OW32958   6.892   7.951   1.276
 6976SOL    HW132959   6.793   7.950   1.290
 6976SOL    HW232960   6.938   7.908   1.354
 6977SOL     OW32961   8.285   0.744   6.047
 6977SOL    HW132962   8.313   0.804   5.973
 6977SOL    HW232963   8.186   0.740   6.052
 6978SOL     OW32964   5.476   5.734   0.716
 6978SOL    HW132965   5.553   5.687   0.760
 6978SOL    HW232966   5.500   5.830   0.701
 6979SOL     OW32967   1.719   6.006   1.105
 6979SOL    HW132968   1.781   5.952   1.048
 6979SOL    HW232969   1.747   5.999   1.201
 6980SOL     OW32970   4.367   1.777   0.449
 6980SOL    HW132971   4.332   1.798   0.540
 6980SOL    HW232972   4.378   1.862   0.397
 6981SOL     OW32973   4.416   2.963   6.067
 6981SOL    HW132974   4.394   3.058   6.046
 6981SOL    HW232975   4.468   2.959   6.152
 6982SOL     OW32976   9.063   0.691   6.100
 6982SOL    HW132977   9.121   0.764   6.137
 6982SOL    HW232978   8.977   0.730   6.069
 6983SOL     OW32979   6.909   7.289   5.897
 6983SOL    HW132980   6.948   7.333   5.816
 6983SOL    HW232981   6.959   7.320   5.978
 6984SOL     OW32982   6.087   3.454   0.650
 6984SOL    HW132983   6.041   3.365   0.651
 6984SOL    HW232984   6.089   3.491   0.743
 6985SOL     OW32985   1.289   8.417   1.076
 6985SOL    HW132986   1.280   8.487   1.147
 6985SOL    HW232987   1.372   8.363   1.092
 6986SOL     OW32988   9.253   3.115   6.076
 6986SOL    HW132989   9.330   3.135   6.016
 6986SOL    HW232990   9.174   3.170   6.048
 6987SOL     OW32991   5.610   3.692   1.420
 6987SOL    HW132992   5.518   3.721   1.392
 6987SOL    HW232993   5.652   3.764   1.474
 6988SOL     OW32994   6.141   5.003   5.498
 6988SOL    HW132995   6.073   5.019   5.426
 6988SOL    HW232996   6.209   5.077   5.496
 6989SOL     OW32997   3.006   4.999   6.317
 6989SOL    HW132998   2.913   4.984   6.351
 6989SOL    HW232999   3.054   5.063   6.376
 6990SOL     OW33000   5.703   5.678   1.005
 6990SOL    HW133001   5.671   5.767   1.037
 6990SOL    HW233002   5.717   5.618   1.083
 6991SOL     OW33003   4.507   0.800   6.231
 6991SOL    HW133004   4.427   0.752   6.267
 6991SOL    HW233005   4.587   0.777   6.286
 6992SOL     OW33006   7.652   1.330   0.601
 6992SOL    HW133007   7.740   1.331   0.553
 6992SOL    HW233008   7.597   1.408   0.570
 6993SOL     OW33009   0.238   8.420   0.704
 6993SOL    HW133010   0.266   8.324   0.705
 6993SOL    HW233011   0.141   8.426   0.681
 6994SOL     OW33012   6.112   6.042   1.147
 6994SOL    HW133013   6.208   6.025   1.168
 6994SOL    HW233014   6.056   6.020   1.227
 6995SOL     OW33015   1.277   1.112   6.925
 6995SOL    HW133016   1.211   1.043   6.896
 6995SOL    HW233017   1.236   1.170   6.996
 6996SOL     OW33018   7.926   6.118   6.260
 6996SOL    HW133019   7.887   6.082   6.175
 6996SOL    HW233020   7.882   6.074   6.338
 6997SOL     OW33021   0.948   0.640   1.743
 6997SOL    HW133022   0.983   0.663   1.834
 6997SOL    HW233023   0.861   0.688   1.728
 6998SOL     OW33024   0.234   2.148   5.919
 6998SOL    HW133025   0.205   2.182   6.008
 6998SOL    HW233026   0.219   2.049   5.914
 6999SOL     OW33027   0.350   0.268   4.863
 6999SOL    HW133028   0.413   0.322   4.918
 6999SOL    HW233029   0.296   0.329   4.805
 7000SOL     OW33030   1.344  -0.044   6.384
 7000SOL    HW133031   1.384  -0.066   6.295
 7000SOL    HW233032   1.385  -0.103   6.455
 7001SOL     OW33033   6.313   5.484   1.410
 7001SOL    HW133034   6.375   5.413   1.444
 7001SOL    HW233035   6.274   5.456   1.323
 7002SOL     OW33036   2.266   0.660   0.585
 7002SOL    HW133037   2.314   0.748   0.579
 7002SOL    HW233038   2.319   0.597   0.642
 7003SOL     OW33039   2.717   5.993   0.768
 7003SOL    HW133040   2.759   5.935   0.838
 7003SOL    HW233041   2.713   5.942   0.682
 7004SOL     OW33042   8.958   0.431   0.459
 7004SOL    HW133043   8.905   0.439   0.374
 7004SOL    HW233044   9.050   0.467   0.443
 7005SOL     OW33045   0.158   2.781   6.160
 7005SOL    HW133046   0.164   2.820   6.068
 7005SOL    HW233047   0.062   2.766   6.183
 7006SOL     OW33048   8.742   5.638   6.081
 7006SOL    HW133049   8.838   5.651   6.055
 7006SOL    HW233050   8.727   5.679   6.171
 7007SOL     OW33051   8.414   8.069   0.726
 7007SOL    HW133052   8.329   8.117   0.702
 7007SOL    HW233053   8.478   8.074   0.649
 7008SOL     OW33054   6.626   0.836   1.358
 7008SOL    HW133055   6.703   0.830   1.421
 7008SOL    HW233056   6.585   0.745   1.347
 7009SOL     OW33057   1.916   4.154   0.602
 7009SOL    HW133058   1.959   4.236   0.566
 7009SOL    HW233059   1.829   4.177   0.646
 7010SOL     OW33060   0.740   8.387   0.358
 7010SOL    HW133061   0.653   8.413   0.314
 7010SOL    HW233062   0.733   8.403   0.456
 7011SOL     OW33063   7.096   5.120   1.591
 7011SOL    HW133064   7.042   5.075   1.662
 7011SOL    HW233065   7.117   5.055   1.518
 7012SOL     OW33066   2.074   1.182   1.729
 7012SOL    HW133067   2.155   1.124   1.716
 7012SOL    HW233068   2.089   1.241   1.809
 7013SOL     OW33069   3.414   8.393   1.476
 7013SOL    HW133070   3.441   8.316   1.532
 7013SOL    HW233071   3.492   8.424   1.421
 7014SOL     OW33072   3.910   4.698   6.984
 7014SOL    HW133073   3.852   4.779   6.977
 7014SOL    HW233074   3.871   4.625   6.927
 7015SOL     OW33075   0.383   7.185   4.463
 7015SOL    HW133076   0.418   7.144   4.547
 7015SOL    HW233077   0.384   7.118   4.390
 7016SOL     OW33078   8.866   5.770   6.579
 7016SOL    HW133079   8.835   5.865   6.591
 7016SOL    HW233080   8.908   5.760   6.489
 7017SOL     OW33081   9.574   7.738   6.078
 7017SOL    HW133082   9.567   7.826   6.032
 7017SOL    HW233083   9.621   7.673   6.018
 7018SOL     OW33084   5.527   6.118   0.471
 7018SOL    HW133085   5.586   6.066   0.409
 7018SOL    HW233086   5.511   6.210   0.433
 7019SOL     OW33087   4.180   2.851   6.104
 7019SOL    HW133088   4.110   2.908   6.061
 7019SOL    HW233089   4.271   2.887   6.081
 7020SOL     OW33090   4.994   5.286   5.554
 7020SOL    HW133091   4.994   5.199   5.504
 7020SOL    HW233092   4.908   5.295   5.604
 7021SOL     OW33093   1.489   5.602   1.516
 7021SOL    HW133094   1.570   5.661   1.511
 7021SOL    HW233095   1.502   5.534   1.587
 7022SOL     OW33096   6.353  -0.002   6.580
 7022SOL    HW133097   6.448  -0.012   6.548
 7022SOL    HW233098   6.291  -0.010   6.503
 7023SOL     OW33099   2.911   6.268   0.915
 7023SOL    HW133100   2.945   6.207   0.987
 7023SOL    HW233101   2.859   6.215   0.848
 7024SOL     OW33102   7.492   6.316   1.637
 7024SOL    HW133103   7.451   6.395   1.683
 7024SOL    HW233104   7.590   6.314   1.654
 7025SOL     OW33105   0.458   4.584   6.458
 7025SOL    HW133106   0.517   4.507   6.484
 7025SOL    HW233107   0.363   4.562   6.481
 7026SOL     OW33108   7.760   0.945   5.756
 7026SOL    HW133109   7.679   0.965   5.701
 7026SOL    HW233110   7.840   0.990   5.715
 7027SOL     OW33111   0.205   5.512   6.097
 7027SOL    HW133112   0.251   5.593   6.134
 7027SOL    HW233113   0.264   5.469   6.029
 7028SOL     OW33114   0.964   6.642   1.318
 7028SOL    HW133115   0.955   6.672   1.413
 7028SOL    HW233116   0.895   6.689   1.262
 7029SOL     OW33117   9.311   4.092   1.529
 7029SOL    HW133118   9.357   4.133   1.608
 7029SOL    HW233119   9.254   4.161   1.484
 7030SOL     OW33120   6.076   4.390   6.804
 7030SOL    HW133121   5.982   4.423   6.799
 7030SOL    HW233122   6.113   4.381   6.711
 7031SOL     OW33123   3.676   8.285   6.800
 7031SOL    HW133124   3.754   8.327   6.847
 7031SOL    HW233125   3.618   8.357   6.761
 7032SOL     OW33126   5.249   3.912   1.211
 7032SOL    HW133127   5.170   3.956   1.254
 7032SOL    HW233128   5.324   3.978   1.203
 7033SOL     OW33129   1.155   3.083   1.014
 7033SOL    HW133130   1.111   3.136   1.086
 7033SOL    HW233131   1.132   3.121   0.924
 7034SOL     OW33132   4.451   6.839   0.884
 7034SOL    HW133133   4.395   6.910   0.927
 7034SOL    HW233134   4.394   6.760   0.861
 7035SOL     OW33135   2.560   2.937   1.012
 7035SOL    HW133136   2.575   2.947   0.914
 7035SOL    HW233137   2.578   3.025   1.057
 7036SOL     OW33138   6.832   7.242   0.936
 7036SOL    HW133139   6.931   7.238   0.920
 7036SOL    HW233140   6.812   7.197   1.023
 7037SOL     OW33141   5.443   6.681   5.861
 7037SOL    HW133142   5.501   6.600   5.866
 7037SOL    HW233143   5.370   6.674   5.929
 7038SOL     OW33144   9.521   1.702   6.072
 7038SOL    HW133145   9.521   1.624   6.009
 7038SOL    HW233146   9.563   1.675   6.159
 7039SOL     OW33147   1.939   4.403   0.927
 7039SOL    HW133148   1.859   4.356   0.890
 7039SOL    HW233149   2.001   4.337   0.967
 7040SOL     OW33150   8.880   0.797   6.467
 7040SOL    HW133151   8.818   0.763   6.396
 7040SOL    HW233152   8.869   0.743   6.550
 7041SOL     OW33153   1.109   0.676   1.524
 7041SOL    HW133154   1.047   0.651   1.598
 7041SOL    HW233155   1.203   0.656   1.551
 7042SOL     OW33156   5.588   7.606   1.701
 7042SOL    HW133157   5.669   7.652   1.737
 7042SOL    HW233158   5.519   7.600   1.773
 7043SOL     OW33159   7.761   6.954   6.667
 7043SOL    HW133160   7.694   6.927   6.598
 7043SOL    HW233161   7.851   6.960   6.625
 7044SOL     OW33162   6.417   4.379   1.347
 7044SOL    HW133163   6.373   4.465   1.321
 7044SOL    HW233164   6.425   4.375   1.446
 7045SOL     OW33165   1.817   3.240   6.564
 7045SOL    HW133166   1.885   3.245   6.638
 7045SOL    HW233167   1.735   3.291   6.590
 7046SOL     OW33168   0.886   8.028   5.655
 7046SOL    HW133169   0.908   8.103   5.717
 7046SOL    HW233170   0.831   7.960   5.703
 7047SOL     OW33171   1.482   8.417   6.137
 7047SOL    HW133172   1.400   8.456   6.096
 7047SOL    HW233173   1.561   8.473   6.111
 7048SOL     OW33174   3.554   0.936   2.458
 7048SOL    HW133175   3.587   0.933   2.552
 7048SOL    HW233176   3.514   0.848   2.433
 7049SOL     OW33177   5.127   5.297   5.980
 7049SOL    HW133178   5.080   5.365   5.924
 7049SOL    HW233179   5.127   5.209   5.932
 7050SOL     OW33180   3.138   4.747   6.546
 7050SOL    HW133181   3.228   4.708   6.529
 7050SOL    HW233182   3.148   4.839   6.583
 7051SOL     OW33183   2.567   3.201   6.364
 7051SOL    HW133184   2.657   3.217   6.405
 7051SOL    HW233185   2.579   3.167   6.270
 7052SOL     OW33186   0.411   4.846   6.662
 7052SOL    HW133187   0.416   4.843   6.762
 7052SOL    HW233188   0.502   4.869   6.625
 7053SOL     OW33189   5.166   6.043   6.769
 7053SOL    HW133190   5.114   6.091   6.698
 7053SOL    HW233191   5.187   6.106   6.843
 7054SOL     OW33192   2.248   1.300   6.378
 7054SOL    HW133193   2.205   1.220   6.419
 7054SOL    HW233194   2.298   1.272   6.295
 7055SOL     OW33195   2.629   7.740   6.096
 7055SOL    HW133196   2.574   7.657   6.105
 7055SOL    HW233197   2.710   7.733   6.154
 7056SOL     OW33198   8.404   6.663   1.197
 7056SOL    HW133199   8.504   6.672   1.189
 7056SOL    HW233200   8.382   6.582   1.250
 7057SOL     OW33201   1.364   1.601   6.520
 7057SOL    HW133202   1.305   1.627   6.444
 7057SOL    HW233203   1.322   1.524   6.569
 7058SOL     OW33204   2.212   6.248   6.406
 7058SOL    HW133205   2.294   6.288   6.365
 7058SOL    HW233206   2.130   6.289   6.364
 7059SOL     OW33207   0.553   6.492   4.318
 7059SOL    HW133208   0.650   6.469   4.319
 7059SOL    HW233209   0.536   6.567   4.382
 7060SOL     OW33210   5.449   2.930   0.815
 7060SOL    HW133211   5.374   2.949   0.752
 7060SOL    HW233212   5.452   2.999   0.887
 7061SOL     OW33213   2.386   7.304   6.873
 7061SOL    HW133214   2.467   7.303   6.932
 7061SOL    HW233215   2.344   7.394   6.874
 7062SOL     OW33216   1.400   5.572   5.273
 7062SOL    HW133217   1.483   5.534   5.231
 7062SOL    HW233218   1.344   5.616   5.203
 7063SOL     OW33219   9.538   3.939   1.848
 7063SOL    HW133220   9.475   4.002   1.802
 7063SOL    HW233221   9.565   3.978   1.936
 7064SOL     OW33222   8.988   5.736   6.342
 7064SOL    HW133223   8.962   5.780   6.257
 7064SOL    HW233224   9.013   5.641   6.324
 7065SOL     OW33225   2.278   7.588   6.847
 7065SOL    HW133226   2.335   7.658   6.889
 7065SOL    HW233227   2.274   7.602   6.748
 7066SOL     OW33228   0.216   2.167   6.722
 7066SOL    HW133229   0.194   2.091   6.784
 7066SOL    HW233230   0.303   2.148   6.676
 7067SOL     OW33231   1.946   0.280   5.467
 7067SOL    HW133232   2.018   0.271   5.398
 7067SOL    HW233233   1.955   0.369   5.512
 7068SOL     OW33234   7.078   5.202   5.167
 7068SOL    HW133235   7.032   5.187   5.079
 7068SOL    HW233236   7.177   5.208   5.152
 7069SOL     OW33237   5.419   7.288   0.384
 7069SOL    HW133238   5.469   7.327   0.308
 7069SOL    HW233239   5.330   7.333   0.393
 7070SOL     OW33240   0.526   3.116   0.397
 7070SOL    HW133241   0.454   3.050   0.421
 7070SOL    HW233242   0.511   3.201   0.447
 7071SOL     OW33243   8.971   4.922   6.049
 7071SOL    HW133244   8.957   4.907   6.147
 7071SOL    HW233245   9.047   4.866   6.017
 7072SOL     OW33246   4.497   8.371   0.915
 7072SOL    HW133247   4.593   8.362   0.888
 7072SOL    HW233248   4.486   8.340   1.010
 7073SOL     OW33249   1.956   2.101   6.105
 7073SOL    HW133250   1.972   2.057   6.193
 7073SOL    HW233251   1.860   2.128   6.098
 7074SOL     OW33252   2.227   0.678   6.927
 7074SOL    HW133253   2.253   0.771   6.949
 7074SOL    HW233254   2.138   0.678   6.881
 7075SOL     OW33255   1.221   5.257   5.740
 7075SOL    HW133256   1.306   5.279   5.692
 7075SOL    HW233257   1.203   5.327   5.809
 7076SOL     OW33258   0.671   1.052   1.173
 7076SOL    HW133259   0.642   0.976   1.115
 7076SOL    HW233260   0.653   1.030   1.269
 7077SOL     OW33261   7.036   6.039   0.284
 7077SOL    HW133262   7.096   6.065   0.360
 7077SOL    HW233263   7.029   6.116   0.220
 7078SOL     OW33264   6.605   8.075   0.670
 7078SOL    HW133265   6.559   8.155   0.632
 7078SOL    HW233266   6.689   8.057   0.617
 7079SOL     OW33267   2.229   5.974   1.021
 7079SOL    HW133268   2.316   5.932   0.997
 7079SOL    HW233269   2.194   5.933   1.105
 7080SOL     OW33270   4.222   7.773   0.323
 7080SOL    HW133271   4.264   7.856   0.286
 7080SOL    HW233272   4.123   7.775   0.306
 7081SOL     OW33273   6.830   1.864   6.650
 7081SOL    HW133274   6.763   1.806   6.603
 7081SOL    HW233275   6.921   1.823   6.640
 7082SOL     OW33276   1.834   3.923   5.875
 7082SOL    HW133277   1.783   3.857   5.821
 7082SOL    HW233278   1.800   4.016   5.855
 7083SOL     OW33279   2.529   0.951   6.916
 7083SOL    HW133280   2.436   0.927   6.944
 7083SOL    HW233281   2.528   1.042   6.873
 7084SOL     OW33282   3.086   7.539   5.524
 7084SOL    HW133283   3.107   7.634   5.550
 7084SOL    HW233284   3.170   7.495   5.491
 7085SOL     OW33285   0.594   5.120   0.955
 7085SOL    HW133286   0.501   5.156   0.966
 7085SOL    HW233287   0.589   5.023   0.932
 7086SOL     OW33288   5.990   2.052   0.571
 7086SOL    HW133289   5.943   2.132   0.607
 7086SOL    HW233290   5.942   1.969   0.598
 7087SOL     OW33291   7.125   0.945   5.868
 7087SOL    HW133292   7.044   0.975   5.919
 7087SOL    HW233293   7.118   0.975   5.773
 7088SOL     OW33294   6.231   6.664   1.447
 7088SOL    HW133295   6.317   6.615   1.432
 7088SOL    HW233296   6.173   6.655   1.365
 7089SOL     OW33297   6.141   2.967   0.828
 7089SOL    HW133298   6.109   2.927   0.914
 7089SOL    HW233299   6.204   3.042   0.847
 7090SOL     OW33300   0.781   8.061   6.034
 7090SOL    HW133301   0.756   8.121   5.957
 7090SOL    HW233302   0.880   8.064   6.047
 7091SOL     OW33303   8.382   7.407   6.991
 7091SOL    HW133304   8.336   7.475   7.048
 7091SOL    HW233305   8.476   7.437   6.972
 7092SOL     OW33306   4.122   2.631   6.848
 7092SOL    HW133307   4.057   2.556   6.842
 7092SOL    HW233308   4.149   2.660   6.756
 7093SOL     OW33309   6.049   0.286   5.698
 7093SOL    HW133310   6.122   0.245   5.644
 7093SOL    HW233311   5.973   0.221   5.707
 7094SOL     OW33312   1.715   7.353   6.312
 7094SOL    HW133313   1.745   7.448   6.296
 7094SOL    HW233314   1.667   7.320   6.231
 7095SOL     OW33315   9.109   2.561   6.900
 7095SOL    HW133316   9.111   2.610   6.987
 7095SOL    HW233317   9.029   2.590   6.847
 7096SOL     OW33318   1.110   4.475   5.872
 7096SOL    HW133319   1.201   4.469   5.913
 7096SOL    HW233320   1.118   4.493   5.774
 7097SOL     OW33321   6.597   1.620   6.972
 7097SOL    HW133322   6.637   1.710   6.988
 7097SOL    HW233323   6.641   1.553   7.033
 7098SOL     OW33324   1.941   6.455   1.269
 7098SOL    HW133325   1.896   6.409   1.193
 7098SOL    HW233326   1.968   6.547   1.240
 7099SOL     OW33327   2.225   5.196   0.902
 7099SOL    HW133328   2.288   5.201   0.979
 7099SOL    HW233329   2.186   5.105   0.896
 7100SOL     OW33330   4.022   1.473   1.821
 7100SOL    HW133331   4.089   1.546   1.815
 7100SOL    HW233332   4.068   1.386   1.841
 7101SOL     OW33333   0.345   6.532   6.061
 7101SOL    HW133334   0.297   6.619   6.064
 7101SOL    HW233335   0.284   6.459   6.093
 7102SOL     OW33336   7.745   7.238   1.652
 7102SOL    HW133337   7.742   7.194   1.741
 7102SOL    HW233338   7.807   7.317   1.655
 7103SOL     OW33339   3.951   0.341   6.435
 7103SOL    HW133340   4.038   0.290   6.435
 7103SOL    HW233341   3.896   0.310   6.513
 7104SOL     OW33342   3.439   4.018   0.509
 7104SOL    HW133343   3.361   3.982   0.559
 7104SOL    HW233344   3.433   4.117   0.503
 7105SOL     OW33345   0.147   8.420   6.435
 7105SOL    HW133346   0.183   8.360   6.507
 7105SOL    HW233347   0.185   8.511   6.446
 7106SOL     OW33348   3.773   1.427   1.406
 7106SOL    HW133349   3.795   1.334   1.437
 7106SOL    HW233350   3.814   1.493   1.470
 7107SOL     OW33351   1.775   4.976   0.708
 7107SOL    HW133352   1.680   4.958   0.730
 7107SOL    HW233353   1.784   4.997   0.610
 7108SOL     OW33354   4.164   5.448   1.171
 7108SOL    HW133355   4.109   5.525   1.204
 7108SOL    HW233356   4.179   5.383   1.245
 7109SOL     OW33357   9.477   7.082   5.205
 7109SOL    HW133358   9.496   7.034   5.119
 7109SOL    HW233359   9.532   7.165   5.210
 7110SOL     OW33360   4.942   4.033   6.622
 7110SOL    HW133361   5.036   4.066   6.614
 7110SOL    HW233362   4.938   3.938   6.591
 7111SOL     OW33363   3.239   5.088   5.903
 7111SOL    HW133364   3.294   5.016   5.946
 7111SOL    HW233365   3.215   5.059   5.810
 7112SOL     OW33366   8.355   2.556   1.629
 7112SOL    HW133367   8.388   2.518   1.716
 7112SOL    HW233368   8.335   2.482   1.566
 7113SOL     OW33369   2.742   7.616   1.352
 7113SOL    HW133370   2.803   7.600   1.430
 7113SOL    HW233371   2.648   7.592   1.378
 7114SOL     OW33372   0.262   2.380   0.968
 7114SOL    HW133373   0.319   2.298   0.971
 7114SOL    HW233374   0.317   2.459   0.997
 7115SOL     OW33375   8.803   7.040   6.141
 7115SOL    HW133376   8.771   6.951   6.106
 7115SOL    HW233377   8.735   7.075   6.206
 7116SOL     OW33378   9.434   2.284   0.349
 7116SOL    HW133379   9.477   2.219   0.413
 7116SOL    HW233380   9.501   2.312   0.280
 7117SOL     OW33381   2.118   3.288   5.354
 7117SOL    HW133382   2.174   3.323   5.278
 7117SOL    HW233383   2.059   3.214   5.321
 7118SOL     OW33384   3.240   7.028   6.328
 7118SOL    HW133385   3.263   6.930   6.322
 7118SOL    HW233386   3.154   7.045   6.280
 7119SOL     OW33387   5.757   8.346   6.406
 7119SOL    HW133388   5.670   8.367   6.361
 7119SOL    HW233389   5.783   8.423   6.464
 7120SOL     OW33390   6.381   6.445   0.980
 7120SOL    HW133391   6.445   6.380   0.939
 7120SOL    HW233392   6.310   6.396   1.029
 7121SOL     OW33393   0.521   6.080   6.080
 7121SOL    HW133394   0.489   6.037   6.165
 7121SOL    HW233395   0.540   6.177   6.097
 7122SOL     OW33396   8.828   7.849   5.853
 7122SOL    HW133397   8.880   7.767   5.876
 7122SOL    HW233398   8.732   7.826   5.840
 7123SOL     OW33399   0.818   2.407   1.695
 7123SOL    HW133400   0.813   2.473   1.770
 7123SOL    HW233401   0.913   2.384   1.676
 7124SOL     OW33402   5.660   4.869   2.183
 7124SOL    HW133403   5.638   4.786   2.234
 7124SOL    HW233404   5.609   4.946   2.220
 7125SOL     OW33405   5.359   4.266   1.540
 7125SOL    HW133406   5.433   4.298   1.481
 7125SOL    HW233407   5.397   4.229   1.625
 7126SOL     OW33408   2.636   3.463   0.487
 7126SOL    HW133409   2.725   3.438   0.525
 7126SOL    HW233410   2.565   3.449   0.556
 7127SOL     OW33411   1.559   2.124   1.228
 7127SOL    HW133412   1.589   2.104   1.321
 7127SOL    HW233413   1.506   2.209   1.228
 7128SOL     OW33414   4.567   1.982   6.163
 7128SOL    HW133415   4.551   1.973   6.065
 7128SOL    HW233416   4.567   2.078   6.189
 7129SOL     OW33417   2.904   7.617   6.872
 7129SOL    HW133418   2.957   7.581   6.949
 7129SOL    HW233419   2.937   7.709   6.849
 7130SOL     OW33420   6.488   7.809   5.366
 7130SOL    HW133421   6.570   7.800   5.422
 7130SOL    HW233422   6.493   7.894   5.313
 7131SOL     OW33423   1.698   7.846   6.295
 7131SOL    HW133424   1.776   7.909   6.292
 7131SOL    HW233425   1.614   7.897   6.277
 7132SOL     OW33426   1.655   3.765   0.755
 7132SOL    HW133427   1.728   3.807   0.809
 7132SOL    HW233428   1.570   3.764   0.808
 7133SOL     OW33429   3.022   2.372   6.082
 7133SOL    HW133430   3.079   2.340   6.006
 7133SOL    HW233431   3.026   2.307   6.157
 7134SOL     OW33432   8.061   1.057   6.511
 7134SOL    HW133433   8.083   1.034   6.417
 7134SOL    HW233434   8.024   0.977   6.558
 7135SOL     OW33435   7.873   2.826   6.431
 7135SOL    HW133436   7.894   2.750   6.370
 7135SOL    HW233437   7.788   2.806   6.481
 7136SOL     OW33438   0.728   6.611   6.661
 7136SOL    HW133439   0.664   6.683   6.688
 7136SOL    HW233440   0.803   6.652   6.609
 7137SOL     OW33441   1.332   1.625   6.028
 7137SOL    HW133442   1.296   1.609   6.120
 7137SOL    HW233443   1.293   1.558   5.965
 7138SOL     OW33444   6.476   1.684   1.804
 7138SOL    HW133445   6.451   1.779   1.786
 7138SOL    HW233446   6.430   1.624   1.739
 7139SOL     OW33447   0.245   2.332   0.491
 7139SOL    HW133448   0.184   2.391   0.543
 7139SOL    HW233449   0.295   2.271   0.553
 7140SOL     OW33450   8.444   0.793   6.326
 7140SOL    HW133451   8.429   0.721   6.394
 7140SOL    HW233452   8.389   0.774   6.244
 7141SOL     OW33453   0.439   7.787   0.686
 7141SOL    HW133454   0.418   7.714   0.752
 7141SOL    HW233455   0.528   7.827   0.708
 7142SOL     OW33456   0.986   0.175   1.486
 7142SOL    HW133457   0.958   0.247   1.423
 7142SOL    HW233458   1.001   0.090   1.434
 7143SOL     OW33459   0.675   2.166   6.150
 7143SOL    HW133460   0.623   2.251   6.146
 7143SOL    HW233461   0.771   2.186   6.170
 7144SOL     OW33462   6.810   0.153   6.335
 7144SOL    HW133463   6.908   0.155   6.320
 7144SOL    HW233464   6.766   0.223   6.278
 7145SOL     OW33465   2.132   0.558   6.946
 7145SOL    HW133466   2.147   0.544   7.044
 7145SOL    HW233467   2.217   0.537   6.897
 7146SOL     OW33468   0.199   1.716   7.174
 7146SOL    HW133469   0.239   1.782   7.110
 7146SOL    HW233470   0.242   1.628   7.162
 7147SOL     OW33471   6.024   1.182   6.839
 7147SOL    HW133472   5.953   1.112   6.841
 7147SOL    HW233473   6.035   1.220   6.931
 7148SOL     OW33474   4.786   6.200   6.767
 7148SOL    HW133475   4.797   6.281   6.826
 7148SOL    HW233476   4.876   6.164   6.744
 7149SOL     OW33477   0.647   2.169   6.932
 7149SOL    HW133478   0.681   2.248   6.881
 7149SOL    HW233479   0.715   2.142   7.000
 7150SOL     OW33480   3.168   4.906   6.858
 7150SOL    HW133481   3.212   4.961   6.786
 7150SOL    HW233482   3.136   4.820   6.819
 7151SOL     OW33483   7.855   0.596   7.032
 7151SOL    HW133484   7.858   0.674   6.969
 7151SOL    HW233485   7.866   0.512   6.981
 7152SOL     OW33486   2.987   6.557   6.983
 7152SOL    HW133487   3.015   6.463   6.966
 7152SOL    HW233488   2.962   6.600   6.897
 7153SOL     OW33489   0.328   7.215   6.812
 7153SOL    HW133490   0.387   7.154   6.867
 7153SOL    HW233491   0.271   7.160   6.752
 7154SOL     OW33492   4.400   5.190   7.023
 7154SOL    HW133493   4.472   5.199   6.955
 7154SOL    HW233494   4.323   5.140   6.984
 7155SOL     OW33495   3.044   5.442   6.878
 7155SOL    HW133496   2.949   5.454   6.845
 7155SOL    HW233497   3.090   5.530   6.877
 7156SOL     OW33498   5.945   3.810   6.808
 7156SOL    HW133499   5.883   3.883   6.838
 7156SOL    HW233500   5.966   3.821   6.712
 7157SOL     OW33501   7.841   3.429   7.152
 7157SOL    HW133502   7.826   3.528   7.140
 7157SOL    HW233503   7.764   3.391   7.202
 7158SOL     OW33504   5.287   7.897   6.870
 7158SOL    HW133505   5.238   7.827   6.817
 7158SOL    HW233506   5.335   7.958   6.808
 7159SOL     OW33507   5.286   4.265   6.973
 7159SOL    HW133508   5.355   4.223   7.033
 7159SOL    HW233509   5.328   4.342   6.926
 7160SOL     OW33510   8.188   2.390   6.990
 7160SOL    HW133511   8.137   2.397   6.904
 7160SOL    HW233512   8.282   2.417   6.975
 7161SOL     OW33513   7.082   4.882   6.963
 7161SOL    HW133514   7.029   4.932   7.033
 7161SOL    HW233515   7.115   4.947   6.895
 7162SOL     OW33516   0.621   4.434   6.752
 7162SOL    HW133517   0.570   4.494   6.815
 7162SOL    HW233518   0.630   4.343   6.793
 7163SOL     OW33519   7.495   3.558   7.114
 7163SOL    HW133520   7.462   3.650   7.091
 7163SOL    HW233521   7.546   3.521   7.036
 7164SOL     OW33522   4.101   1.057   6.853
 7164SOL    HW133523   4.037   1.070   6.929
 7164SOL    HW233524   4.118   1.145   6.810
 7165SOL     OW33525   2.227   7.082   7.001
 7165SOL    HW133526   2.235   7.158   6.936
 7165SOL    HW233527   2.248   6.996   6.955
 7166SOL     OW33528   8.364   7.839   6.857
 7166SOL    HW133529   8.397   7.785   6.935
 7166SOL    HW233530   8.282   7.888   6.884
 7167SOL     OW33531   4.361   4.547   6.902
 7167SOL    HW133532   4.332   4.482   6.831
 7167SOL    HW233533   4.358   4.639   6.865
 7168SOL     OW33534   1.130   0.893   6.732
 7168SOL    HW133535   1.111   0.969   6.794
 7168SOL    HW233536   1.225   0.898   6.702
 7169SOL     OW33537   4.147   3.641   6.831
 7169SOL    HW133538   4.048   3.647   6.845
 7169SOL    HW233539   4.181   3.557   6.871
 7170SOL     OW33540   8.522   2.276   6.816
 7170SOL    HW133541   8.479   2.313   6.899
 7170SOL    HW233542   8.588   2.207   6.841
 7171SOL     OW33543   7.152   5.882   6.945
 7171SOL    HW133544   7.090   5.898   6.868
 7171SOL    HW233545   7.224   5.820   6.916
 7172SOL     OW33546   6.287   7.705   6.963
 7172SOL    HW133547   6.368   7.663   7.005
 7172SOL    HW233548   6.315   7.754   6.881
 7173SOL     OW33549   6.863   2.940   7.077
 7173SOL    HW133550   6.891   2.874   7.147
 7173SOL    HW233551   6.859   2.894   6.989
 7174SOL     OW33552   1.450   2.947   6.919
 7174SOL    HW133553   1.517   2.948   6.993
 7174SOL    HW233554   1.361   2.975   6.954
 7175SOL     OW33555   5.225   2.290   6.898
 7175SOL    HW133556   5.316   2.259   6.926
 7175SOL    HW233557   5.209   2.381   6.935
 7176SOL     OW33558   0.952   4.465   7.191
 7176SOL    HW133559   0.885   4.410   7.140
 7176SOL    HW233560   1.013   4.511   7.128
 7177SOL     OW33561   2.569   7.622   6.778
 7177SOL    HW133562   2.575   7.544   6.715
 7177SOL    HW233563   2.647   7.682   6.764
 7178SOL     OW33564   3.118   3.832   6.794
 7178SOL    HW133565   3.051   3.788   6.854
 7178SOL    HW233566   3.072   3.895   6.733
 7179SOL     OW33567   7.320   3.748   7.172
 7179SOL    HW133568   7.378   3.798   7.237
 7179SOL    HW233569   7.280   3.812   7.107
 7180SOL     OW33570   7.485   0.626   7.012
 7180SOL    HW133571   7.546   0.638   7.091
 7180SOL    HW233572   7.394   0.659   7.036
 7181SOL     OW33573   3.957   4.950   6.955
 7181SOL    HW133574   3.948   4.935   6.856
 7181SOL    HW233575   3.879   5.001   6.988
 7182SOL     OW33576   4.808   2.216   7.012
 7182SOL    HW133577   4.738   2.156   6.974
 7182SOL    HW233578   4.768   2.305   7.031
 7183SOL     OW33579   7.327   0.821   6.986
 7183SOL    HW133580   7.375   0.802   7.072
 7183SOL    HW233581   7.360   0.907   6.947
 7184SOL     OW33582   2.303   3.822   6.863
 7184SOL    HW133583   2.220   3.800   6.915
 7184SOL    HW233584   2.382   3.782   6.910
 7185SOL     OW33585   0.564   5.601   7.093
 7185SOL    HW133586   0.590   5.508   7.067
 7185SOL    HW233587   0.578   5.662   7.016
 7186SOL     OW33588   4.609   3.186   6.759
 7186SOL    HW133589   4.671   3.173   6.681
 7186SOL    HW233590   4.646   3.257   6.819
 7187SOL     OW33591   0.051   2.524   6.840
 7187SOL    HW133592   0.132   2.503   6.895
 7187SOL    HW233593  -0.002   2.595   6.885
 7188SOL     OW33594   0.031   2.067   6.818
 7188SOL    HW133595  -0.007   2.090   6.728
 7188SOL    HW233596   0.012   2.141   6.882
 7189SOL     OW33597   5.555   4.071   6.824
 7189SOL    HW133598   5.595   4.013   6.896
 7189SOL    HW233599   5.476   4.119   6.860
 7190SOL     OW33600   3.219   0.328   7.148
 7190SOL    HW133601   3.144   0.338   7.080
 7190SOL    HW233602   3.257   0.237   7.142
 7191SOL     OW33603   2.901   2.796   7.112
 7191SOL    HW133604   2.878   2.893   7.106
 7191SOL    HW233605   2.954   2.769   7.032
 7192SOL     OW33606   2.180   1.482   6.910
 7192SOL    HW133607   2.205   1.395   6.868
 7192SOL    HW233608   2.259   1.543   6.909
 7193SOL     OW33609   9.263   2.738   6.806
 7193SOL    HW133610   9.184   2.689   6.769
 7193SOL    HW233611   9.339   2.675   6.818
 7194SOL     OW33612   5.150   4.075   6.760
 7194SOL    HW133613   5.207   4.004   6.802
 7194SOL    HW233614   5.060   4.037   6.741
 7195SOL     OW33615   1.590   1.358   7.060
 7195SOL    HW133616   1.521   1.382   6.991
 7195SOL    HW233617   1.681   1.362   7.020
 7196SOL     OW33618   3.430   3.915   7.007
 7196SOL    HW133619   3.437   3.961   7.096
 7196SOL    HW233620   3.450   3.819   7.018
 7197SOL     OW33621   5.568   3.636   6.961
 7197SOL    HW133622   5.660   3.665   6.934
 7197SOL    HW233623   5.555   3.540   6.936
 7198SOL     OW33624   5.404   5.101   6.941
 7198SOL    HW133625   5.373   5.029   7.004
 7198SOL    HW233626   5.465   5.163   6.988
 7199SOL     OW33627   8.321   0.181   7.016
 7199SOL    HW133628   8.294   0.270   7.055
 7199SOL    HW233629   8.379   0.133   7.080
 7200SOL     OW33630   2.376   2.036   6.866
 7200SOL    HW133631   2.319   1.991   6.797
 7200SOL    HW233632   2.445   2.091   6.821
 7201SOL     OW33633   4.706   3.740   6.771
 7201SOL    HW133634   4.748   3.803   6.837
 7201SOL    HW233635   4.610   3.727   6.795
 7202SOL     OW33636   8.224   0.678   6.720
 7202SOL    HW133637   8.277   0.628   6.790
 7202SOL    HW233638   8.186   0.761   6.760
 7203SOL     OW33639   4.103   4.598   7.050
 7203SOL    HW133640   4.145   4.542   7.122
 7203SOL    HW233641   4.160   4.678   7.034
 7204SOL     OW33642   2.053   1.753   7.008
 7204SOL    HW133643   2.129   1.803   7.050
 7204SOL    HW233644   1.967   1.796   7.033
 7205SOL     OW33645   6.812   7.944   7.166
 7205SOL    HW133646   6.897   7.974   7.122
 7205SOL    HW233647   6.760   8.023   7.194
 7206SOL     OW33648   3.176   7.908   7.134
 7206SOL    HW133649   3.273   7.918   7.157
 7206SOL    HW233650   3.154   7.968   7.058
 7207SOL     OW33651   7.648   2.995   6.736
 7207SOL    HW133652   7.611   2.980   6.828
 7207SOL    HW233653   7.662   2.907   6.692
 7208SOL     OW33654   7.997   1.928   7.175
 7208SOL    HW133655   8.092   1.948   7.147
 7208SOL    HW233656   7.935   1.950   7.100
 7209SOL     OW33657   8.476   3.613   7.007
 7209SOL    HW133658   8.444   3.589   7.099
 7209SOL    HW233659   8.560   3.564   6.988
 7210SOL     OW33660   5.302   0.305   7.034
 7210SOL    HW133661   5.261   0.245   6.965
 7210SOL    HW233662   5.373   0.360   6.993
 7211SOL     OW33663   6.988   4.234   7.098
 7211SOL    HW133664   6.954   4.174   7.171
 7211SOL    HW233665   7.063   4.289   7.133
 7212SOL     OW33666   6.786   6.053   6.969
 7212SOL    HW133667   6.754   6.139   7.012
 7212SOL    HW233668   6.768   5.977   7.031
 7213SOL     OW33669   3.195   3.304   7.170
 7213SOL    HW133670   3.215   3.372   7.099
 7213SOL    HW233671   3.278   3.254   7.192
 7214SOL     OW33672   2.200   6.146   6.983
 7214SOL    HW133673   2.276   6.132   6.919
 7214SOL    HW233674   2.230   6.125   7.075
 7215SOL     OW33675   4.936   1.569   6.725
 7215SOL    HW133676   4.912   1.619   6.809
 7215SOL    HW233677   4.946   1.473   6.746
 7216SOL     OW33678   9.413   6.765   7.121
 7216SOL    HW133679   9.400   6.780   7.023
 7216SOL    HW233680   9.351   6.823   7.173
 7217SOL     OW33681   7.790   3.628   6.799
 7217SOL    HW133682   7.733   3.624   6.716
 7217SOL    HW233683   7.745   3.684   6.867
 7218SOL     OW33684   7.855   7.768   6.763
 7218SOL    HW133685   7.831   7.843   6.700
 7218SOL    HW233686   7.817   7.787   6.853
 7219SOL     OW33687   0.963   3.852   7.151
 7219SOL    HW133688   0.902   3.773   7.164
 7219SOL    HW233689   0.989   3.858   7.055
 7220SOL     OW33690   9.236   4.952   6.876
 7220SOL    HW133691   9.137   4.969   6.874
 7220SOL    HW233692   9.278   5.010   6.946
 7221SOL     OW33693   3.463   2.195   6.914
 7221SOL    HW133694   3.493   2.137   6.837
 7221SOL    HW233695   3.482   2.290   6.892
 7222SOL     OW33696   7.474   6.258   6.836
 7222SOL    HW133697   7.461   6.191   6.910
 7222SOL    HW233698   7.533   6.332   6.869
 7223SOL     OW33699   8.222   6.060   6.960
 7223SOL    HW133700   8.210   6.066   6.860
 7223SOL    HW233701   8.311   6.022   6.979
 7224SOL     OW33702   7.418   7.290   6.808
 7224SOL    HW133703   7.500   7.269   6.753
 7224SOL    HW233704   7.358   7.350   6.756
 7225SOL     OW33705   4.392   0.398   6.896
 7225SOL    HW133706   4.445   0.318   6.924
 7225SOL    HW233707   4.336   0.429   6.971
 7226SOL     OW33708   3.803   8.057   7.025
 7226SOL    HW133709   3.774   7.991   7.095
 7226SOL    HW233710   3.829   8.143   7.070
 7227SOL     OW33711   2.758   4.655   6.978
 7227SOL    HW133712   2.815   4.715   7.035
 7227SOL    HW233713   2.704   4.596   7.036
 7228SOL     OW33714   7.704   1.262   6.848
 7228SOL    HW133715   7.673   1.257   6.753
 7228SOL    HW233716   7.745   1.351   6.866
 7229SOL     OW33717   1.279   6.623   7.026
 7229SOL    HW133718   1.312   6.536   6.988
 7229SOL    HW233719   1.205   6.606   7.090
 7230SOL     OW33720   6.317   2.515   6.859
 7230SOL    HW133721   6.242   2.577   6.833
 7230SOL    HW233722   6.297   2.472   6.946
 7231SOL     OW33723   4.922   7.783   7.021
 7231SOL    HW133724   4.906   7.821   6.930
 7231SOL    HW233725   4.908   7.854   7.089
 7232SOL     OW33726   9.444   5.386   7.096
 7232SOL    HW133727   9.508   5.355   7.025
 7232SOL    HW233728   9.371   5.439   7.053
 7233SOL     OW33729   0.888   4.178   6.888
 7233SOL    HW133730   0.806   4.180   6.830
 7233SOL    HW233731   0.961   4.229   6.844
 7234SOL     OW33732   1.834   1.914   6.951
 7234SOL    HW133733   1.920   1.953   6.916
 7234SOL    HW233734   1.824   1.821   6.917
 7235SOL     OW33735   4.964   8.133   7.058
 7235SOL    HW133736   4.990   8.078   7.138
 7235SOL    HW233737   5.044   8.144   6.999
 7236SOL     OW33738   4.437   4.911   6.853
 7236SOL    HW133739   4.382   4.971   6.913
 7236SOL    HW233740   4.519   4.883   6.902
 7237SOL     OW33741   5.893   1.493   6.995
 7237SOL    HW133742   5.904   1.510   7.094
 7237SOL    HW233743   5.802   1.521   6.967
 7238SOL     OW33744   7.793   1.912   6.863
 7238SOL    HW133745   7.755   1.819   6.871
 7238SOL    HW233746   7.825   1.942   6.952
 7239SOL     OW33747   5.848   4.821   6.868
 7239SOL    HW133748   5.844   4.754   6.794
 7239SOL    HW233749   5.795   4.902   6.842
 7240SOL     OW33750   7.171   4.796   7.145
 7240SOL    HW133751   7.259   4.819   7.104
 7240SOL    HW233752   7.118   4.741   7.081
 7241SOL     OW33753   8.535   5.297   7.171
 7241SOL    HW133754   8.444   5.277   7.134
 7241SOL    HW233755   8.605   5.260   7.110
 7242SOL     OW33756   7.189   5.994   6.768
 7242SOL    HW133757   7.183   6.025   6.863
 7242SOL    HW233758   7.265   5.931   6.759
 7243SOL     OW33759   9.127   8.434   6.938
 7243SOL    HW133760   9.126   8.440   6.838
 7243SOL    HW233761   9.217   8.459   6.972
 7244SOL     OW33762   1.075   4.111   6.835
 7244SOL    HW133763   1.126   4.133   6.919
 7244SOL    HW233764   1.135   4.117   6.757
 7245SOL     OW33765   0.779   1.094   7.109
 7245SOL    HW133766   0.716   1.152   7.161
 7245SOL    HW233767   0.737   1.005   7.095
 7246SOL     OW33768   6.501   4.136   6.710
 7246SOL    HW133769   6.525   4.191   6.790
 7246SOL    HW233770   6.468   4.047   6.741
 7247SOL     OW33771   6.221   4.985   6.869
 7247SOL    HW133772   6.268   4.970   6.956
 7247SOL    HW233773   6.242   4.910   6.806
 7248SOL     OW33774   8.871   5.693   7.031
 7248SOL    HW133775   8.863   5.788   7.062
 7248SOL    HW233776   8.851   5.689   6.933
 7249SOL     OW33777   4.296   0.815   6.948
 7249SOL    HW133778   4.263   0.900   6.905
 7249SOL    HW233779   4.250   0.737   6.907
 7250SOL     OW33780   4.679   5.312   6.932
 7250SOL    HW133781   4.758   5.342   6.878
 7250SOL    HW233782   4.613   5.269   6.872
 7251SOL     OW33783   6.435   4.000   6.887
 7251SOL    HW133784   6.507   4.002   6.957
 7251SOL    HW233785   6.367   4.070   6.908
 7252SOL     OW33786   8.035   4.055   6.808
 7252SOL    HW133787   8.116   4.058   6.749
 7252SOL    HW233788   7.953   4.060   6.752
 7253SOL     OW33789   0.927   2.076   6.754
 7253SOL    HW133790   1.018   2.049   6.723
 7253SOL    HW233791   0.896   2.013   6.824
 7254SOL     OW33792   3.620   0.497   6.810
 7254SOL    HW133793   3.617   0.438   6.891
 7254SOL    HW233794   3.695   0.562   6.819
 7255SOL     OW33795   6.587   0.822   6.698
 7255SOL    HW133796   6.658   0.816   6.769
 7255SOL    HW233797   6.498   0.833   6.740
 7256SOL     OW33798   8.857   1.035   6.792
 7256SOL    HW133799   8.837   1.085   6.708
 7256SOL    HW233800   8.772   1.001   6.831
 7257SOL     OW33801   1.640   8.448   6.988
 7257SOL    HW133802   1.685   8.488   6.908
 7257SOL    HW233803   1.598   8.362   6.962
 7258SOL     OW33804   6.813   4.276   7.148
 7258SOL    HW133805   6.798   4.191   7.097
 7258SOL    HW233806   6.750   4.346   7.114
 7259SOL     OW33807   3.684   0.575   7.056
 7259SOL    HW133808   3.660   0.669   7.083
 7259SOL    HW233809   3.642   0.511   7.119
 7260SOL     OW33810   8.602   0.926   7.025
 7260SOL    HW133811   8.513   0.886   7.050
 7260SOL    HW233812   8.611   0.927   6.926
 7261SOL     OW33813   8.328   4.667   6.824
 7261SOL    HW133814   8.346   4.574   6.859
 7261SOL    HW233815   8.379   4.733   6.878
 7262SOL     OW33816   8.481   8.203   7.100
 7262SOL    HW133817   8.500   8.279   7.038
 7262SOL    HW233818   8.526   8.219   7.187
 7263SOL     OW33819   3.763   2.093   6.885
 7263SOL    HW133820   3.795   2.017   6.826
 7263SOL    HW233821   3.671   2.074   6.916
 7264SOL     OW33822   9.248   7.466   7.006
 7264SOL    HW133823   9.202   7.460   6.917
 7264SOL    HW233824   9.181   7.489   7.076
 7265SOL     OW33825   9.352   7.762   6.829
 7265SOL    HW133826   9.346   7.840   6.765
 7265SOL    HW233827   9.399   7.686   6.784
 7266SOL     OW33828   4.821   1.025   6.983
 7266SOL    HW133829   4.773   0.949   6.937
 7266SOL    HW233830   4.858   1.087   6.916
 7267SOL     OW33831   0.656   1.196   6.892
 7267SOL    HW133832   0.642   1.264   6.819
 7267SOL    HW233833   0.753   1.182   6.906
 7268SOL     OW33834   3.343   7.462   7.014
 7268SOL    HW133835   3.262   7.497   7.061
 7268SOL    HW233836   3.319   7.435   6.922
 7269SOL     OW33837   8.782   1.414   7.126
 7269SOL    HW133838   8.823   1.361   7.051
 7269SOL    HW233839   8.693   1.447   7.098
 7270SOL     OW33840   8.669   3.705   7.036
 7270SOL    HW133841   8.591   3.762   7.009
 7270SOL    HW233842   8.742   3.763   7.071
 7271SOL     OW33843   3.189   2.549   6.835
 7271SOL    HW133844   3.164   2.535   6.931
 7271SOL    HW233845   3.219   2.643   6.823
 7272SOL     OW33846   1.648   4.782   6.936
 7272SOL    HW133847   1.704   4.800   6.854
 7272SOL    HW233848   1.571   4.725   6.911
 7273SOL     OW33849   2.425   6.709   6.858
 7273SOL    HW133850   2.489   6.776   6.898
 7273SOL    HW233851   2.335   6.720   6.900
 7274SOL     OW33852   3.723   2.512   6.980
 7274SOL    HW133853   3.634   2.474   7.010
 7274SOL    HW233854   3.769   2.447   6.921
 7275SOL     OW33855   6.490   4.985   6.768
 7275SOL    HW133856   6.461   5.005   6.673
 7275SOL    HW233857   6.571   5.037   6.789
 7276SOL     OW33858   8.851   1.924   7.151
 7276SOL    HW133859   8.872   2.017   7.183
 7276SOL    HW233860   8.837   1.925   7.052
 7277SOL     OW33861   1.864   3.438   7.071
 7277SOL    HW133862   1.796   3.367   7.092
 7277SOL    HW233863   1.838   3.486   6.988
 7278SOL     OW33864   0.553   0.558   6.914
 7278SOL    HW133865   0.512   0.496   6.847
 7278SOL    HW233866   0.566   0.647   6.873
 7279SOL     OW33867   6.451   3.717   7.026
 7279SOL    HW133868   6.404   3.645   6.974
 7279SOL    HW233869   6.404   3.803   7.014
 7280SOL     OW33870   0.369   5.371   7.048
 7280SOL    HW133871   0.463   5.405   7.051
 7280SOL    HW233872   0.315   5.417   7.118
 7281SOL     OW33873   4.715   5.565   6.991
 7281SOL    HW133874   4.662   5.615   7.061
 7281SOL    HW233875   4.774   5.499   7.036
 7282SOL     OW33876   9.122   2.041   6.920
 7282SOL    HW133877   9.198   2.079   6.866
 7282SOL    HW233878   9.159   1.998   7.002
 7283SOL     OW33879   8.881   8.425   7.047
 7283SOL    HW133880   8.937   8.432   7.130
 7283SOL    HW233881   8.802   8.484   7.056
 7284SOL     OW33882   6.418   4.308   6.745
 7284SOL    HW133883   6.512   4.331   6.772
 7284SOL    HW233884   6.354   4.363   6.798
 7285SOL     OW33885   1.297   8.127   6.718
 7285SOL    HW133886   1.331   8.040   6.679
 7285SOL    HW233887   1.280   8.114   6.815
 7286SOL     OW33888   6.877   7.202   6.969
 7286SOL    HW133889   6.896   7.111   7.008
 7286SOL    HW233890   6.838   7.260   7.039
 7287SOL     OW33891   4.287   4.136   7.082
 7287SOL    HW133892   4.253   4.041   7.090
 7287SOL    HW233893   4.381   4.139   7.115
 7288SOL     OW33894   8.938   5.008   6.760
 7288SOL    HW133895   8.884   4.971   6.684
 7288SOL    HW233896   8.920   4.955   6.842
 7289SOL     OW33897   0.962   7.233   7.118
 7289SOL    HW133898   0.956   7.315   7.060
 7289SOL    HW233899   1.053   7.195   7.110
 7290SOL     OW33900   0.785   5.009   6.823
 7290SOL    HW133901   0.863   5.063   6.854
 7290SOL    HW233902   0.816   4.938   6.760
 7291SOL     OW33903   5.613   8.302   7.102
 7291SOL    HW133904   5.542   8.237   7.074
 7291SOL    HW233905   5.580   8.395   7.086
 7292SOL     OW33906   1.586   7.421   6.934
 7292SOL    HW133907   1.624   7.355   6.869
 7292SOL    HW233908   1.650   7.435   7.009
 7293SOL     OW33909   3.823   6.384   7.077
 7293SOL    HW133910   3.767   6.398   6.995
 7293SOL    HW233911   3.863   6.470   7.105
 7294SOL     OW33912   8.929   0.818   6.917
 7294SOL    HW133913   8.941   0.868   7.003
 7294SOL    HW233914   8.837   0.779   6.914
 7295SOL     OW33915   4.354   3.398   6.955
 7295SOL    HW133916   4.376   3.466   7.026
 7295SOL    HW233917   4.324   3.313   6.999
 7296SOL     OW33918   8.597   0.008   6.785
 7296SOL    HW133919   8.545   0.026   6.869
 7296SOL    HW233920   8.557   0.059   6.710
 7297SOL     OW33921   1.296   6.072   6.759
 7297SOL    HW133922   1.320   6.098   6.853
 7297SOL    HW233923   1.273   5.975   6.757
 7298SOL     OW33924   3.790   3.268   6.767
 7298SOL    HW133925   3.719   3.199   6.750
 7298SOL    HW233926   3.753   3.339   6.825
 7299SOL     OW33927   2.614   4.229   6.779
 7299SOL    HW133928   2.528   4.181   6.758
 7299SOL    HW233929   2.679   4.163   6.817
 7300SOL     OW33930   9.280   5.832   6.865
 7300SOL    HW133931   9.213   5.771   6.822
 7300SOL    HW233932   9.258   5.842   6.961
 7301SOL     OW33933   0.435   3.317   7.086
 7301SOL    HW133934   0.468   3.331   7.180
 7301SOL    HW233935   0.507   3.342   7.022
 7302SOL     OW33936   7.753   3.137   7.186
 7302SOL    HW133937   7.720   3.108   7.095
 7302SOL    HW233938   7.819   3.210   7.175
 7303SOL     OW33939   5.657   0.341   6.954
 7303SOL    HW133940   5.634   0.328   7.051
 7303SOL    HW233941   5.712   0.424   6.945
 7304SOL     OW33942   9.224   1.443   6.993
 7304SOL    HW133943   9.250   1.385   6.915
 7304SOL    HW233944   9.212   1.536   6.962
 7305SOL     OW33945   2.229   7.303   6.993
 7305SOL    HW133946   2.262   7.373   7.056
 7305SOL    HW233947   2.200   7.345   6.908
 7306SOL     OW33948   5.752   5.392   7.151
 7306SOL    HW133949   5.751   5.484   7.112
 7306SOL    HW233950   5.793   5.329   7.086
 7307SOL     OW33951   5.624   1.752   6.842
 7307SOL    HW133952   5.560   1.780   6.770
 7307SOL    HW233953   5.717   1.765   6.809
 7308SOL     OW33954   3.220   5.973   6.997
 7308SOL    HW133955   3.295   6.033   6.968
 7308SOL    HW233956   3.209   5.899   6.931
 7309SOL     OW33957   4.583   1.671   6.926
 7309SOL    HW133958   4.613   1.759   6.964
 7309SOL    HW233959   4.662   1.616   6.902
 7310SOL     OW33960   4.229   0.596   7.123
 7310SOL    HW133961   4.217   0.558   7.031
 7310SOL    HW233962   4.206   0.692   7.123
 7311SOL     OW33963   4.014   1.899   6.984
 7311SOL    HW133964   4.086   1.885   6.915
 7311SOL    HW233965   3.926   1.875   6.946
 7312SOL     OW33966   5.006   2.456   6.997
 7312SOL    HW133967   4.929   2.465   6.934
 7312SOL    HW233968   5.087   2.498   6.957
 7313SOL     OW33969   0.100   0.335   7.059
 7313SOL    HW133970   0.106   0.238   7.037
 7313SOL    HW233971   0.183   0.381   7.028
 7314SOL     OW33972   4.809   4.999   6.789
 7314SOL    HW133973   4.757   5.060   6.729
 7314SOL    HW233974   4.858   4.933   6.734
 7315SOL     OW33975   0.860   8.012   6.976
 7315SOL    HW133976   0.902   8.099   7.002
 7315SOL    HW233977   0.917   7.937   7.010
 7316SOL     OW33978   4.092   2.080   6.809
 7316SOL    HW133979   4.163   2.028   6.760
 7316SOL    HW233980   4.010   2.083   6.754
 7317SOL     OW33981   5.683   2.344   6.993
 7317SOL    HW133982   5.763   2.288   7.017
 7317SOL    HW233983   5.680   2.357   6.894
 7318SOL     OW33984   0.922   8.455   6.882
 7318SOL    HW133985   0.878   8.541   6.855
 7318SOL    HW233986   0.942   8.401   6.801
 7319SOL     OW33987   8.300   6.474   6.951
 7319SOL    HW133988   8.385   6.486   7.003
 7319SOL    HW233989   8.292   6.548   6.885
 7320SOL     OW33990   2.621   1.182   7.031
 7320SOL    HW133991   2.680   1.249   6.985
 7320SOL    HW233992   2.672   1.138   7.104
 7321SOL     OW33993   1.046   5.129   6.818
 7321SOL    HW133994   0.980   5.192   6.775
 7321SOL    HW233995   1.130   5.130   6.766
 7322SOL     OW33996   8.648   3.794   6.836
 7322SOL    HW133997   8.684   3.857   6.905
 7322SOL    HW233998   8.560   3.759   6.866
 7323SOL     OW33999   1.970   5.939   6.999
 7323SOL    HW134000   1.993   6.033   7.023
 7323SOL    HW234001   1.905   5.903   7.066
 7324SOL     OW34002   0.891   1.368   6.966
 7324SOL    HW134003   0.864   1.314   6.886
 7324SOL    HW234004   0.915   1.460   6.936
 7325SOL     OW34005   3.549   3.363   6.803
 7325SOL    HW134006   3.568   3.292   6.734
 7325SOL    HW234007   3.453   3.360   6.827
 7326SOL     OW34008   0.269   8.302   6.770
 7326SOL    HW134009   0.260   8.244   6.689
 7326SOL    HW234010   0.211   8.382   6.760
 7327SOL     OW34011   0.405   1.577   6.758
 7327SOL    HW134012   0.405   1.478   6.775
 7327SOL    HW234013   0.339   1.621   6.818
 7328SOL     OW34014   8.274   7.067   7.114
 7328SOL    HW134015   8.233   7.079   7.205
 7328SOL    HW234016   8.366   7.031   7.124
 7329SOL     OW34017   6.292   3.859   6.813
 7329SOL    HW134018   6.364   3.845   6.743
 7329SOL    HW234019   6.204   3.836   6.773
 7330SOL     OW34020   9.147   3.992   7.066
 7330SOL    HW134021   9.052   3.975   7.039
 7330SOL    HW234022   9.168   4.088   7.052
 7331SOL     OW34023   1.259   1.449   6.998
 7331SOL    HW134024   1.162   1.436   7.021
 7331SOL    HW234025   1.271   1.440   6.900
 7332SOL     OW34026   7.109   2.576   7.187
 7332SOL    HW134027   7.065   2.647   7.132
 7332SOL    HW234028   7.155   2.511   7.127
 7333SOL     OW34029   4.550   1.982   6.866
 7333SOL    HW134030   4.485   2.057   6.885
 7333SOL    HW234031   4.501   1.896   6.862
 7334SOL     OW34032   5.672   6.269   6.757
 7334SOL    HW134033   5.643   6.223   6.841
 7334SOL    HW234034   5.700   6.362   6.778
 7335SOL     OW34035   1.301   2.485   7.024
 7335SOL    HW134036   1.390   2.499   7.067
 7335SOL    HW234037   1.311   2.484   6.925
 7336SOL     OW34038   0.391   0.804   6.882
 7336SOL    HW134039   0.456   0.872   6.846
 7336SOL    HW234040   0.377   0.732   6.815
 7337SOL     OW34041   2.037   2.704   7.123
 7337SOL    HW134042   1.972   2.697   7.199
 7337SOL    HW234043   2.009   2.642   7.050
 7338SOL     OW34044   4.037   4.129   6.762
 7338SOL    HW134045   4.001   4.183   6.686
 7338SOL    HW234046   4.091   4.187   6.821
 7339SOL     OW34047   0.296   4.097   7.187
 7339SOL    HW134048   0.206   4.092   7.143
 7339SOL    HW234049   0.298   4.173   7.250
 7340SOL     OW34050   2.742   4.402   6.810
 7340SOL    HW134051   2.713   4.373   6.719
 7340SOL    HW234052   2.804   4.479   6.802
 7341SOL     OW34053   1.804   6.821   6.871
 7341SOL    HW134054   1.855   6.906   6.887
 7341SOL    HW234055   1.844   6.771   6.795
 7342SOL     OW34056   3.436   2.841   6.910
 7342SOL    HW134057   3.425   2.933   6.947
 7342SOL    HW234058   3.533   2.822   6.896
 7343SOL     OW34059   8.266   2.831   7.150
 7343SOL    HW134060   8.205   2.854   7.226
 7343SOL    HW234061   8.229   2.866   7.065
 7344SOL     OW34062   1.657   3.964   7.173
 7344SOL    HW134063   1.619   3.887   7.122
 7344SOL    HW234064   1.625   3.960   7.268
 7345SOL     OW34065   4.931   3.675   6.834
 7345SOL    HW134066   4.977   3.602   6.886
 7345SOL    HW234067   4.942   3.761   6.883
 7346SOL     OW34068   1.457   3.518   6.801
 7346SOL    HW134069   1.499   3.438   6.844
 7346SOL    HW234070   1.445   3.590   6.868
 7347SOL     OW34071   0.561   8.153   7.162
 7347SOL    HW134072   0.491   8.093   7.122
 7347SOL    HW234073   0.580   8.123   7.255
 7348SOL     OW34074   5.573   1.620   7.109
 7348SOL    HW134075   5.554   1.552   7.038
 7348SOL    HW234076   5.561   1.712   7.071
 7349SOL     OW34077   3.640   4.885   6.848
 7349SOL    HW134078   3.640   4.809   6.914
 7349SOL    HW234079   3.602   4.854   6.762
 7350SOL     OW34080   3.226   4.569   6.812
 7350SOL    HW134081   3.270   4.507   6.878
 7350SOL    HW234082   3.218   4.660   6.853
 7351SOL     OW34083   6.105   8.204   6.800
 7351SOL    HW134084   6.198   8.213   6.761
 7351SOL    HW234085   6.062   8.293   6.802
 7352SOL     OW34086   5.562   7.415   6.983
 7352SOL    HW134087   5.506   7.400   7.064
 7352SOL    HW234088   5.631   7.483   7.002
 7353SOL     OW34089   6.390   7.454   7.160
 7353SOL    HW134090   6.472   7.427   7.210
 7353SOL    HW234091   6.344   7.527   7.209
 7354SOL     OW34092   8.565   7.529   6.841
 7354SOL    HW134093   8.591   7.626   6.846
 7354SOL    HW234094   8.613   7.486   6.765
 7355SOL     OW34095   8.594   7.343   6.956
 7355SOL    HW134096   8.655   7.314   7.031
 7355SOL    HW234097   8.526   7.406   6.992
 7356SOL     OW34098   6.389   8.476   6.802
 7356SOL    HW134099   6.431   8.385   6.810
 7356SOL    HW234100   6.360   8.491   6.708
 7357SOL     OW34101   6.794   0.008   7.165
 7357SOL    HW134102   6.704   0.045   7.140
 7357SOL    HW234103   6.844  -0.017   7.083
 7358SOL     OW34104   2.563   3.375   6.926
 7358SOL    HW134105   2.621   3.316   6.983
 7358SOL    HW234106   2.471   3.337   6.923
 7359SOL     OW34107   2.330   1.612   7.127
 7359SOL    HW134108   2.359   1.567   7.212
 7359SOL    HW234109   2.310   1.543   7.058
 7360SOL     OW34110   6.900   4.726   7.105
 7360SOL    HW134111   6.965   4.796   7.134
 7360SOL    HW234112   6.949   4.641   7.089
 7361SOL     OW34113   4.376   5.970   6.849
 7361SOL    HW134114   4.385   5.870   6.860
 7361SOL    HW234115   4.412   5.996   6.760
 7362SOL     OW34116   2.922   1.840   7.058
 7362SOL    HW134117   2.865   1.787   6.995
 7362SOL    HW234118   2.875   1.924   7.083
 7363SOL     OW34119   1.771   7.501   6.874
 7363SOL    HW134120   1.762   7.548   6.786
 7363SOL    HW234121   1.836   7.549   6.931
 7364SOL     OW34122   3.475   4.605   6.999
 7364SOL    HW134123   3.473   4.522   6.944
 7364SOL    HW234124   3.529   4.590   7.082
 7365SOL     OW34125   8.267   4.163   7.118
 7365SOL    HW134126   8.251   4.090   7.051
 7365SOL    HW234127   8.249   4.251   7.075
 7366SOL     OW34128   3.233   5.167   6.979
 7366SOL    HW134129   3.199   5.236   6.914
 7366SOL    HW234130   3.293   5.104   6.932
 7367SOL     OW34131   1.143   3.706   6.906
 7367SOL    HW134132   1.117   3.669   6.995
 7367SOL    HW234133   1.084   3.667   6.835
 7368SOL     OW34134   7.209   2.102   7.012
 7368SOL    HW134135   7.151   2.184   7.013
 7368SOL    HW234136   7.156   2.023   7.041
 7369SOL     OW34137   6.214   0.721   7.059
 7369SOL    HW134138   6.178   0.716   6.965
 7369SOL    HW234139   6.258   0.635   7.082
 7370SOL     OW34140   9.280   5.252   6.955
 7370SOL    HW134141   9.277   5.352   6.966
 7370SOL    HW234142   9.354   5.215   7.009
 7371SOL     OW34143   1.886   5.267   6.806
 7371SOL    HW134144   1.975   5.222   6.792
 7371SOL    HW234145   1.838   5.273   6.719
 7372SOL     OW34146   7.642   8.345   6.848
 7372SOL    HW134147   7.547   8.356   6.818
 7372SOL    HW234148   7.698   8.319   6.770
 7373SOL     OW34149   1.601   6.966   7.140
 7373SOL    HW134150   1.641   6.962   7.232
 7373SOL    HW234151   1.671   6.996   7.076
 7374SOL     OW34152   0.333   3.930   6.896
 7374SOL    HW134153   0.365   3.836   6.880
 7374SOL    HW234154   0.380   3.992   6.834
 7375SOL     OW34155   8.296   8.072   6.899
 7375SOL    HW134156   8.340   8.013   6.831
 7375SOL    HW234157   8.204   8.095   6.869
 7376SOL     OW34158   4.571   3.606   7.010
 7376SOL    HW134159   4.491   3.642   6.962
 7376SOL    HW234160   4.549   3.597   7.107
 7377SOL     OW34161   0.540   2.850   7.054
 7377SOL    HW134162   0.443   2.873   7.047
 7377SOL    HW234163   0.585   2.870   6.968
 7378SOL     OW34164   3.999   8.330   7.024
 7378SOL    HW134165   4.004   8.403   7.093
 7378SOL    HW234166   3.919   8.344   6.967
 7379SOL     OW34167   8.845   6.981   7.069
 7379SOL    HW134168   8.776   6.975   7.142
 7379SOL    HW234169   8.913   7.050   7.093
 7380SOL     OW34170   6.022   5.254   7.181
 7380SOL    HW134171   5.970   5.248   7.095
 7380SOL    HW234172   5.965   5.299   7.250
 7381SOL     OW34173   1.384   4.580   7.173
 7381SOL    HW134174   1.288   4.610   7.165
 7381SOL    HW234175   1.438   4.627   7.104
 7382SOL     OW34176   7.172   5.216   7.112
 7382SOL    HW134177   7.108   5.290   7.089
 7382SOL    HW234178   7.187   5.214   7.211
 7383SOL     OW34179   7.937   2.607   7.094
 7383SOL    HW134180   7.838   2.602   7.083
 7383SOL    HW234181   7.967   2.539   7.160
 7384SOL     OW34182   3.185   1.786   6.834
 7384SOL    HW134183   3.179   1.872   6.783
 7384SOL    HW234184   3.229   1.717   6.777
 7385SOL     OW34185   0.875   3.199   7.026
 7385SOL    HW134186   0.832   3.290   7.028
 7385SOL    HW234187   0.954   3.201   6.966
 7386SOL     OW34188   8.890   3.155   6.809
 7386SOL    HW134189   8.853   3.133   6.900
 7386SOL    HW234190   8.910   3.252   6.804
 7387SOL     OW34191   2.453   0.615   7.016
 7387SOL    HW134192   2.448   0.518   7.043
 7387SOL    HW234193   2.518   0.662   7.075
 7388SOL     OW34194   4.457   7.289   6.777
 7388SOL    HW134195   4.508   7.206   6.804
 7388SOL    HW234196   4.510   7.369   6.802
 7389SOL     OW34197   6.090   4.584   6.968
 7389SOL    HW134198   6.044   4.673   6.970
 7389SOL    HW234199   6.055   4.528   7.042
 7390SOL     OW34200   1.117   5.586   7.036
 7390SOL    HW134201   1.178   5.641   7.094
 7390SOL    HW234202   1.028   5.578   7.080
 7391SOL     OW34203   5.745   2.140   7.128
 7391SOL    HW134204   5.714   2.232   7.156
 7391SOL    HW234205   5.696   2.072   7.180
 7392SOL     OW34206   8.447   2.118   6.959
 7392SOL    HW134207   8.467   2.179   7.036
 7392SOL    HW234208   8.492   2.031   6.974
 7393SOL     OW34209   8.999   1.599   7.162
 7393SOL    HW134210   8.986   1.593   7.261
 7393SOL    HW234211   9.038   1.687   7.138
 7394SOL     OW34212   0.302   2.356   7.120
 7394SOL    HW134213   0.274   2.452   7.120
 7394SOL    HW234214   0.268   2.312   7.202
 7395SOL     OW34215   2.530   0.444   7.179
 7395SOL    HW134216   2.456   0.511   7.186
 7395SOL    HW234217   2.557   0.434   7.084
 7396SOL     OW34218   6.374   5.297   6.783
 7396SOL    HW134219   6.291   5.351   6.765
 7396SOL    HW234220   6.409   5.321   6.873
 7397SOL     OW34221   4.663   7.671   7.012
 7397SOL    HW134222   4.737   7.694   6.949
 7397SOL    HW234223   4.598   7.610   6.968
 7398SOL     OW34224   8.549   8.040   7.046
 7398SOL    HW134225   8.473   8.038   7.112
 7398SOL    HW234226   8.635   8.026   7.094
 7399SOL     OW34227   7.756   2.824   6.963
 7399SOL    HW134228   7.820   2.836   6.887
 7399SOL    HW234229   7.672   2.782   6.929
 7400SOL     OW34230   7.746   2.496   6.887
 7400SOL    HW134231   7.763   2.485   6.789
 7400SOL    HW234232   7.710   2.588   6.904
 7401SOL     OW34233   4.263   3.402   7.135
 7401SOL    HW134234   4.236   3.494   7.106
 7401SOL    HW234235   4.182   3.352   7.166
 7402SOL     OW34236   3.436   8.321   7.148
 7402SOL    HW134237   3.399   8.404   7.192
 7402SOL    HW234238   3.520   8.344   7.101
 7403SOL     OW34239   0.886   3.059   6.864
 7403SOL    HW134240   0.926   3.148   6.842
 7403SOL    HW234241   0.936   3.019   6.941
 7404SOL     OW34242   7.143   7.401   6.838
 7404SOL    HW134243   7.138   7.378   6.741
 7404SOL    HW234244   7.180   7.493   6.849
 7405SOL     OW34245   9.014   1.409   6.859
 7405SOL    HW134246   8.967   1.347   6.923
 7405SOL    HW234247   8.971   1.401   6.770
 7406SOL     OW34248   8.850   6.658   7.010
 7406SOL    HW134249   8.801   6.600   6.944
 7406SOL    HW234250   8.794   6.669   7.091
 7407SOL     OW34251   4.891   3.231   7.102
 7407SOL    HW134252   4.933   3.164   7.165
 7407SOL    HW234253   4.804   3.261   7.139
 7408SOL     OW34254   3.518   7.782   6.801
 7408SOL    HW134255   3.558   7.875   6.803
 7408SOL    HW234256   3.550   7.735   6.719
 7409SOL     OW34257   4.227   8.289   7.111
 7409SOL    HW134258   4.232   8.289   7.211
 7409SOL    HW234259   4.148   8.342   7.082
 7410SOL     OW34260   6.379   1.120   6.891
 7410SOL    HW134261   6.322   1.068   6.955
 7410SOL    HW234262   6.428   1.191   6.940
 7411SOL     OW34263   0.355   6.366   6.859
 7411SOL    HW134264   0.429   6.368   6.792
 7411SOL    HW234265   0.275   6.412   6.821
 7412SOL     OW34266   2.966   5.156   7.045
 7412SOL    HW134267   3.008   5.107   7.122
 7412SOL    HW234268   2.961   5.252   7.067
 7413SOL     OW34269   6.178   6.150   6.809
 7413SOL    HW134270   6.162   6.186   6.716
 7413SOL    HW234271   6.097   6.099   6.838
 7414SOL     OW34272   3.390   8.042   7.084
 7414SOL    HW134273   3.405   8.114   7.016
 7414SOL    HW234274   3.475   7.994   7.101
 7415SOL     OW34275   1.385   0.526   6.988
 7415SOL    HW134276   1.330   0.484   6.915
 7415SOL    HW234277   1.443   0.597   6.950
 7416SOL     OW34278   4.330   5.528   7.027
 7416SOL    HW134279   4.316   5.467   7.106
 7416SOL    HW234280   4.242   5.557   6.992
 7417SOL     OW34281   8.635   0.197   7.043
 7417SOL    HW134282   8.567   0.235   6.979
 7417SOL    HW234283   8.686   0.125   6.997
 7418SOL     OW34284   2.746   5.248   7.036
 7418SOL    HW134285   2.701   5.239   7.126
 7418SOL    HW234286   2.815   5.318   7.041
 7419SOL     OW34287   7.098   3.310   6.823
 7419SOL    HW134288   7.146   3.248   6.885
 7419SOL    HW234289   7.062   3.387   6.875
 7420SOL     OW34290   3.054   4.220   6.889
 7420SOL    HW134291   3.078   4.156   6.962
 7420SOL    HW234292   3.065   4.313   6.921
 7421SOL     OW34293   7.183   0.724   6.928
 7421SOL    HW134294   7.183   0.655   6.856
 7421SOL    HW234295   7.137   0.806   6.896
 7422SOL     OW34296   5.158   4.435   6.788
 7422SOL    HW134297   5.131   4.405   6.696
 7422SOL    HW234298   5.111   4.379   6.856
 7423SOL     OW34299   2.275   5.833   6.955
 7423SOL    HW134300   2.351   5.794   7.008
 7423SOL    HW234301   2.216   5.885   7.016
 7424SOL     OW34302   7.111   1.742   7.160
 7424SOL    HW134303   7.183   1.763   7.226
 7424SOL    HW234304   7.026   1.785   7.189
 7425SOL     OW34305   1.260   7.966   6.922
 7425SOL    HW134306   1.177   8.013   6.950
 7425SOL    HW234307   1.244   7.919   6.835
 7426SOL     OW34308   6.799   5.398   6.766
 7426SOL    HW134309   6.891   5.370   6.797
 7426SOL    HW234310   6.777   5.486   6.804
 7427SOL     OW34311   5.083   3.353   6.945
 7427SOL    HW134312   5.051   3.262   6.918
 7427SOL    HW234313   5.173   3.346   6.986
 7428SOL     OW34314   1.462   3.144   7.050
 7428SOL    HW134315   1.399   3.172   6.977
 7428SOL    HW234316   1.489   3.223   7.103
 7429SOL     OW34317   4.793   6.650   6.855
 7429SOL    HW134318   4.735   6.708   6.796
 7429SOL    HW234319   4.805   6.695   6.943
 7430SOL     OW34320   8.009   0.385   6.712
 7430SOL    HW134321   8.063   0.314   6.758
 7430SOL    HW234322   7.941   0.421   6.775
 7431SOL     OW34323   8.183   1.813   7.125
 7431SOL    HW134324   8.102   1.808   7.184
 7431SOL    HW234325   8.260   1.850   7.177
 7432SOL     OW34326   5.298   0.594   6.975
 7432SOL    HW134327   5.205   0.602   6.939
 7432SOL    HW234328   5.352   0.537   6.914
 7433SOL     OW34329   3.756   7.655   6.786
 7433SOL    HW134330   3.772   7.581   6.853
 7433SOL    HW234331   3.743   7.741   6.834
 7434SOL     OW34332   8.233   4.661   7.007
 7434SOL    HW134333   8.142   4.647   6.968
 7434SOL    HW234334   8.224   4.682   7.104
 7435SOL     OW34335   5.755   2.938   6.750
 7435SOL    HW134336   5.817   2.877   6.800
 7435SOL    HW234337   5.679   2.964   6.810
 7436SOL     OW34338   3.850   4.668   6.781
 7436SOL    HW134339   3.901   4.598   6.832
 7436SOL    HW234340   3.783   4.710   6.841
 7437SOL     OW34341   2.868   3.087   6.873
 7437SOL    HW134342   2.936   3.086   6.799
 7437SOL    HW234343   2.783   3.045   6.841
 7438SOL     OW34344   5.345   6.069   6.728
 7438SOL    HW134345   5.286   6.016   6.790
 7438SOL    HW234346   5.438   6.033   6.733
 7439SOL     OW34347   0.563   7.281   7.115
 7439SOL    HW134348   0.573   7.360   7.054
 7439SOL    HW234349   0.651   7.258   7.153
 7440SOL     OW34350   5.325   3.104   6.936
 7440SOL    HW134351   5.389   3.171   6.974
 7440SOL    HW234352   5.287   3.049   7.010
 7441SOL     OW34353   4.608   4.210   7.165
 7441SOL    HW134354   4.628   4.123   7.120
 7441SOL    HW234355   4.610   4.197   7.264
 7442SOL     OW34356   6.045   2.827   6.989
 7442SOL    HW134357   6.118   2.891   7.018
 7442SOL    HW234358   6.081   2.766   6.919
 7443SOL     OW34359   2.094   3.228   6.985
 7443SOL    HW134360   2.091   3.143   7.040
 7443SOL    HW234361   2.182   3.233   6.938
 7444SOL     OW34362   8.198   0.348   6.925
 7444SOL    HW134363   8.227   0.267   6.873
 7444SOL    HW234364   8.269   0.418   6.919
 7445SOL     OW34365   7.396   4.949   6.992
 7445SOL    HW134366   7.396   4.869   7.054
 7445SOL    HW234367   7.445   5.024   7.036
 7446SOL     OW34368   8.811   2.144   7.079
 7446SOL    HW134369   8.720   2.127   7.040
 7446SOL    HW234370   8.881   2.107   7.019
 7447SOL     OW34371   5.863   2.687   7.084
 7447SOL    HW134372   5.822   2.747   7.154
 7447SOL    HW234373   5.843   2.592   7.106
 7448SOL     OW34374   6.851   6.816   7.166
 7448SOL    HW134375   6.878   6.751   7.095
 7448SOL    HW234376   6.784   6.880   7.129
 7449SOL     OW34377   7.950   2.850   7.219
 7449SOL    HW134378   8.025   2.827   7.157
 7449SOL    HW234379   7.885   2.775   7.221
 7450SOL     OW34380   9.112   8.045   7.067
 7450SOL    HW134381   9.061   8.076   7.148
 7450SOL    HW234382   9.101   7.947   7.057
 7451SOL     OW34383   7.380   2.906   7.107
 7451SOL    HW134384   7.282   2.906   7.126
 7451SOL    HW234385   7.396   2.933   7.013
 7452SOL     OW34386   2.942   8.025   7.083
 7452SOL    HW134387   3.006   7.982   7.019
 7452SOL    HW234388   2.852   8.031   7.040
 7453SOL     OW34389   8.276   7.471   6.781
 7453SOL    HW134390   8.332   7.470   6.697
 7453SOL    HW234391   8.295   7.554   6.832
 7454SOL     OW34392   4.203   0.352   7.027
 7454SOL    HW134393   4.208   0.276   6.961
 7454SOL    HW234394   4.249   0.325   7.111
 7455SOL     OW34395   0.534   3.145   7.193
 7455SOL    HW134396   0.549   3.051   7.160
 7455SOL    HW234397   0.616   3.178   7.237
 7456SOL     OW34398   5.901   7.938   6.798
 7456SOL    HW134399   5.820   7.939   6.738
 7456SOL    HW234400   5.906   7.850   6.843
 7457SOL     OW34401   9.119   5.728   7.154
 7457SOL    HW134402   9.096   5.819   7.190
 7457SOL    HW234403   9.062   5.709   7.075
 7458SOL     OW34404   6.709   3.230   6.995
 7458SOL    HW134405   6.774   3.153   6.984
 7458SOL    HW234406   6.635   3.220   6.929
 7459SOL     OW34407   1.067   6.510   6.917
 7459SOL    HW134408   1.151   6.565   6.918
 7459SOL    HW234409   1.049   6.476   7.008
 7460SOL     OW34410   1.930   7.091   7.209
 7460SOL    HW134411   1.862   7.119   7.142
 7460SOL    HW234412   2.021   7.098   7.169
 7461SOL     OW34413   2.076   4.217   6.972
 7461SOL    HW134414   2.006   4.253   7.035
 7461SOL    HW234415   2.081   4.275   6.892
 7462SOL     OW34416   3.200   6.138   6.899
 7462SOL    HW134417   3.264   6.199   6.948
 7462SOL    HW234418   3.207   6.156   6.802
 7463SOL     OW34419   2.019   7.651   7.145
 7463SOL    HW134420   2.059   7.565   7.112
 7463SOL    HW234421   1.943   7.677   7.087
 7464SOL     OW34422   4.987   5.971   7.152
 7464SOL    HW134423   4.978   5.892   7.090
 7464SOL    HW234424   5.019   6.049   7.101
 7465SOL     OW34425   6.382   6.591   7.016
 7465SOL    HW134426   6.468   6.541   7.026
 7465SOL    HW234427   6.360   6.637   7.101
 7466SOL     OW34428   6.848   5.663   6.755
 7466SOL    HW134429   6.751   5.688   6.744
 7466SOL    HW234430   6.896   5.737   6.800
 7467SOL     OW34431   3.049   4.514   6.950
 7467SOL    HW134432   3.078   4.609   6.934
 7467SOL    HW234433   2.950   4.512   6.958
 7468SOL     OW34434   5.369   3.089   7.178
 7468SOL    HW134435   5.423   3.052   7.103
 7468SOL    HW234436   5.274   3.094   7.151
 7469SOL     OW34437   6.173   2.191   7.051
 7469SOL    HW134438   6.115   2.181   6.969
 7469SOL    HW234439   6.134   2.137   7.125
 7470SOL     OW34440   9.163   5.236   6.735
 7470SOL    HW134441   9.157   5.217   6.834
 7470SOL    HW234442   9.258   5.232   6.706
 7471SOL     OW34443   0.313   6.612   6.830
 7471SOL    HW134444   0.339   6.545   6.759
 7471SOL    HW234445   0.274   6.693   6.787
 7472SOL     OW34446   1.775   4.211   7.176
 7472SOL    HW134447   1.715   4.280   7.136
 7472SOL    HW234448   1.740   4.120   7.154
 7473SOL     OW34449   7.739   1.051   6.716
 7473SOL    HW134450   7.751   0.958   6.752
 7473SOL    HW234451   7.744   1.116   6.791
 7474SOL     OW34452   3.304   5.202   6.760
 7474SOL    HW134453   3.285   5.298   6.781
 7474SOL    HW234454   3.363   5.196   6.680
 7475SOL     OW34455   4.018   0.151   7.013
 7475SOL    HW134456   3.963   0.234   7.000
 7475SOL    HW234457   4.091   0.149   6.945
 7476SOL     OW34458   2.606   6.056   7.129
 7476SOL    HW134459   2.567   6.129   7.185
 7476SOL    HW234460   2.532   6.005   7.085
 7477SOL     OW34461   4.603   7.789   7.138
 7477SOL    HW134462   4.654   7.827   7.216
 7477SOL    HW234463   4.506   7.805   7.151
 7478SOL     OW34464   0.496   3.914   7.132
 7478SOL    HW134465   0.556   3.929   7.052
 7478SOL    HW234466   0.412   3.966   7.121
 7479SOL     OW34467   6.483   5.960   6.973
 7479SOL    HW134468   6.582   5.959   6.992
 7479SOL    HW234469   6.439   6.028   7.030
 7480SOL     OW34470   3.807   1.003   6.870
 7480SOL    HW134471   3.824   0.987   6.968
 7480SOL    HW234472   3.893   1.017   6.823
 7481SOL     OW34473   0.845   6.648   6.927
 7481SOL    HW134474   0.872   6.673   7.020
 7481SOL    HW234475   0.906   6.579   6.891
 7482SOL     OW34476   1.545   2.372   7.116
 7482SOL    HW134477   1.481   2.318   7.061
 7482SOL    HW234478   1.636   2.365   7.078
 7483SOL     OW34479   9.198   0.381   6.714
 7483SOL    HW134480   9.245   0.469   6.726
 7483SOL    HW234481   9.226   0.318   6.786
 7484SOL     OW34482   2.421   1.221   7.226
 7484SOL    HW134483   2.450   1.140   7.172
 7484SOL    HW234484   2.434   1.303   7.172
 7485SOL     OW34485   8.625   2.888   6.841
 7485SOL    HW134486   8.569   2.933   6.912
 7485SOL    HW234487   8.650   2.797   6.870
 7486SOL     OW34488   8.564   1.246   6.876
 7486SOL    HW134489   8.618   1.311   6.821
 7486SOL    HW234490   8.559   1.159   6.829
 7487SOL     OW34491   3.513   7.569   7.191
 7487SOL    HW134492   3.594   7.597   7.138
 7487SOL    HW234493   3.542   7.529   7.277
 7488SOL     OW34494   5.999   6.304   6.782
 7488SOL    HW134495   6.008   6.332   6.686
 7488SOL    HW234496   6.023   6.208   6.790
 7489SOL     OW34497   2.041   7.346   6.784
 7489SOL    HW134498   1.969   7.382   6.844
 7489SOL    HW234499   2.040   7.246   6.789
 7490SOL     OW34500   0.937   0.541   7.181
 7490SOL    HW134501   0.921   0.527   7.083
 7490SOL    HW234502   0.856   0.517   7.232
 7491SOL     OW34503   8.592   4.320   6.706
 7491SOL    HW134504   8.659   4.313   6.781
 7491SOL    HW234505   8.512   4.369   6.739
 7492SOL     OW34506   8.442   0.496   7.163
 7492SOL    HW134507   8.520   0.482   7.102
 7492SOL    HW234508   8.472   0.494   7.257
 7493SOL     OW34509   2.970   4.833   7.137
 7493SOL    HW134510   2.892   4.849   7.076
 7493SOL    HW234511   3.033   4.768   7.095
 7494SOL     OW34512   9.040   1.798   6.848
 7494SOL    HW134513   9.008   1.886   6.812
 7494SOL    HW234514   8.989   1.777   6.931
 7495SOL     OW34515   9.110   5.980   6.909
 7495SOL    HW134516   9.071   5.950   6.997
 7495SOL    HW234517   9.146   6.072   6.918
 7496SOL     OW34518   8.197   3.692   7.006
 7496SOL    HW134519   8.180   3.630   6.929
 7496SOL    HW234520   8.127   3.763   7.006
 7497SOL     OW34521   1.811   0.236   6.883
 7497SOL    HW134522   1.788   0.211   6.977
 7497SOL    HW234523   1.820   0.334   6.875
 7498SOL     OW34524   7.902   4.634   7.101
 7498SOL    HW134525   7.838   4.670   7.033
 7498SOL    HW234526   7.852   4.595   7.177
 7499SOL     OW34527   2.265   8.294   6.808
 7499SOL    HW134528   2.344   8.256   6.858
 7499SOL    HW234529   2.196   8.223   6.798
 7500SOL     OW34530   1.774   8.091   6.836
 7500SOL    HW134531   1.705   8.159   6.810
 7500SOL    HW234532   1.854   8.102   6.778
 7501SOL     OW34533   8.639   2.943   7.140
 7501SOL    HW134534   8.661   3.004   7.063
 7501SOL    HW234535   8.635   2.850   7.108
 7502SOL     OW34536   1.944   5.627   7.158
 7502SOL    HW134537   2.043   5.639   7.147
 7502SOL    HW234538   1.898   5.659   7.076
 7503SOL     OW34539   9.499   0.960   6.790
 7503SOL    HW134540   9.551   0.912   6.719
 7503SOL    HW234541   9.410   0.984   6.754
 7504SOL     OW34542   7.807   0.620   6.816
 7504SOL    HW134543   7.875   0.620   6.742
 7504SOL    HW234544   7.728   0.567   6.788
 7505SOL     OW34545   6.753   2.557   6.931
 7505SOL    HW134546   6.756   2.655   6.953
 7505SOL    HW234547   6.792   2.506   7.007
 7506SOL     OW34548   6.409   6.639   6.825
 7506SOL    HW134549   6.494   6.662   6.776
 7506SOL    HW234550   6.412   6.543   6.852
 7507SOL     OW34551   6.953   1.493   6.986
 7507SOL    HW134552   6.969   1.511   7.084
 7507SOL    HW234553   6.909   1.572   6.945
 7508SOL     OW34554   6.760   6.381   7.128
 7508SOL    HW134555   6.785   6.285   7.141
 7508SOL    HW234556   6.690   6.388   7.057
 7509SOL     OW34557   0.220   2.822   6.796
 7509SOL    HW134558   0.143   2.789   6.741
 7509SOL    HW234559   0.270   2.891   6.746
 7510SOL     OW34560   5.832   0.963   6.967
 7510SOL    HW134561   5.780   0.975   7.052
 7510SOL    HW234562   5.887   0.881   6.973
 7511SOL     OW34563   4.400   8.012   7.068
 7511SOL    HW134564   4.331   8.038   7.138
 7511SOL    HW234565   4.462   7.945   7.107
 7512SOL     OW34566   2.716   2.768   7.149
 7512SOL    HW134567   2.780   2.739   7.220
 7512SOL    HW234568   2.741   2.858   7.116
 7513SOL     OW34569   9.431   4.889   7.139
 7513SOL    HW134570   9.372   4.902   7.058
 7513SOL    HW234571   9.500   4.820   7.119
 7514SOL     OW34572   6.074   8.475   7.198
 7514SOL    HW134573   6.021   8.554   7.232
 7514SOL    HW234574   6.012   8.403   7.170
 7515SOL     OW34575   1.028   3.067   7.149
 7515SOL    HW134576   1.092   3.079   7.073
 7515SOL    HW234577   1.072   3.015   7.221
 7516SOL     OW34578   8.881   4.354   6.794
 7516SOL    HW134579   8.911   4.287   6.862
 7516SOL    HW234580   8.885   4.446   6.834
 7517SOL     OW34581   7.278   1.606   7.095
 7517SOL    HW134582   7.348   1.534   7.097
 7517SOL    HW234583   7.237   1.609   7.004
 7518SOL     OW34584   7.565   5.957   6.996
 7518SOL    HW134585   7.578   5.859   6.980
 7518SOL    HW234586   7.631   5.989   7.063
 7519SOL     OW34587   1.544   0.256   7.025
 7519SOL    HW134588   1.486   0.320   7.076
 7519SOL    HW234589   1.486   0.187   6.981
 7520SOL     OW34590   5.844   3.370   7.044
 7520SOL    HW134591   5.822   3.417   7.130
 7520SOL    HW234592   5.842   3.272   7.059
 7521SOL     OW34593   6.696   2.794   6.887
 7521SOL    HW134594   6.768   2.770   6.821
 7521SOL    HW234595   6.607   2.773   6.848
 7522SOL     OW34596   5.960   5.745   6.907
 7522SOL    HW134597   5.993   5.669   6.963
 7522SOL    HW234598   5.863   5.758   6.922
 7523SOL     OW34599   5.866   6.331   6.938
 7523SOL    HW134600   5.814   6.259   6.889
 7523SOL    HW234601   5.878   6.409   6.878
 7524SOL     OW34602   0.826   8.305   7.003
 7524SOL    HW134603   0.870   8.307   6.913
 7524SOL    HW234604   0.752   8.371   7.005
 7525SOL     OW34605   0.679   7.636   6.852
 7525SOL    HW134606   0.762   7.664   6.802
 7525SOL    HW234607   0.668   7.694   6.932
 7526SOL     OW34608   6.536   0.141   6.891
 7526SOL    HW134609   6.533   0.073   6.965
 7526SOL    HW234610   6.572   0.227   6.926
 7527SOL     OW34611   5.894   7.869   7.082
 7527SOL    HW134612   5.931   7.934   7.014
 7527SOL    HW234613   5.887   7.779   7.041
 7528SOL     OW34614   8.715   1.724   6.810
 7528SOL    HW134615   8.676   1.816   6.823
 7528SOL    HW234616   8.641   1.659   6.798
 7529SOL     OW34617   6.284   8.052   7.074
 7529SOL    HW134618   6.315   8.039   7.168
 7529SOL    HW234619   6.364   8.060   7.014
 7530SOL     OW34620   8.049   6.366   7.084
 7530SOL    HW134621   7.991   6.441   7.116
 7530SOL    HW234622   8.090   6.390   6.996
 7531SOL     OW34623   0.626   6.141   6.934
 7531SOL    HW134624   0.595   6.226   6.977
 7531SOL    HW234625   0.576   6.064   6.973
 7532SOL     OW34626   6.149   0.353   7.099
 7532SOL    HW134627   6.069   0.354   7.038
 7532SOL    HW234628   6.222   0.301   7.056
 7533SOL     OW34629   0.248   6.153   7.104
 7533SOL    HW134630   0.348   6.168   7.110
 7533SOL    HW234631   0.205   6.191   7.186
 7534SOL     OW34632   3.813   5.848   6.952
 7534SOL    HW134633   3.893   5.800   6.913
 7534SOL    HW234634   3.734   5.787   6.950
 7535SOL     OW34635   8.813   4.718   6.865
 7535SOL    HW134636   8.907   4.747   6.885
 7535SOL    HW234637   8.752   4.795   6.874
 7536SOL     OW34638   3.804   2.830   6.940
 7536SOL    HW134639   3.867   2.838   6.862
 7536SOL    HW234640   3.711   2.828   6.907
 7537SOL     OW34641   4.500   1.122   6.819
 7537SOL    HW134642   4.421   1.129   6.881
 7537SOL    HW234643   4.583   1.112   6.872
 7538SOL     OW34644   5.927   6.005   7.179
 7538SOL    HW134645   5.910   6.080   7.114
 7538SOL    HW234646   5.984   5.937   7.135
 7539SOL     OW34647   6.542   0.430   6.740
 7539SOL    HW134648   6.463   0.480   6.778
 7539SOL    HW234649   6.583   0.374   6.811
 7540SOL     OW34650   8.737   0.539   7.054
 7540SOL    HW134651   8.652   0.560   7.104
 7540SOL    HW234652   8.800   0.492   7.116
 7541SOL     OW34653   8.627   2.441   7.122
 7541SOL    HW134654   8.682   2.362   7.151
 7541SOL    HW234655   8.655   2.469   7.030
 7542SOL     OW34656   6.699   4.830   6.979
 7542SOL    HW134657   6.686   4.733   6.958
 7542SOL    HW234658   6.636   4.884   6.924
 7543SOL     OW34659   0.053   1.310   7.191
 7543SOL    HW134660  -0.035   1.360   7.195
 7543SOL    HW234661   0.123   1.371   7.157
 7544SOL     OW34662   3.641   3.860   6.825
 7544SOL    HW134663   3.738   3.877   6.847
 7544SOL    HW234664   3.585   3.880   6.905
 7545SOL     OW34665   1.429   6.297   7.138
 7545SOL    HW134666   1.353   6.310   7.075
 7545SOL    HW234667   1.511   6.338   7.100
 7546SOL     OW34668   1.644   6.577   7.020
 7546SOL    HW134669   1.642   6.577   7.121
 7546SOL    HW234670   1.708   6.646   6.989
 7547SOL     OW34671   2.192   5.676   6.919
 7547SOL    HW134672   2.176   5.689   7.017
 7547SOL    HW234673   2.223   5.583   6.902
 7548SOL     OW34674   5.270   4.750   6.760
 7548SOL    HW134675   5.337   4.748   6.835
 7548SOL    HW234676   5.179   4.760   6.797
 7549SOL     OW34677   4.878   7.475   7.143
 7549SOL    HW134678   4.965   7.441   7.105
 7549SOL    HW234679   4.896   7.535   7.220
 7550SOL     OW34680   4.348   1.474   6.790
 7550SOL    HW134681   4.332   1.375   6.783
 7550SOL    HW234682   4.313   1.506   6.878
 7551SOL     OW34683   2.723   0.853   7.197
 7551SOL    HW134684   2.759   0.895   7.281
 7551SOL    HW234685   2.768   0.893   7.118
 7552SOL     OW34686   6.559   4.766   7.085
 7552SOL    HW134687   6.517   4.846   7.042
 7552SOL    HW234688   6.633   4.795   7.145
 7553SOL     OW34689   2.647   3.718   7.111
 7553SOL    HW134690   2.618   3.670   7.194
 7553SOL    HW234691   2.611   3.811   7.112
 7554SOL     OW34692   6.538   7.225   6.994
 7554SOL    HW134693   6.534   7.325   6.995
 7554SOL    HW234694   6.501   7.192   6.908
 7555SOL     OW34695   4.309   3.694   7.150
 7555SOL    HW134696   4.345   3.618   7.205
 7555SOL    HW234697   4.338   3.780   7.190
 7556SOL     OW34698   5.955   3.514   7.196
 7556SOL    HW134699   5.982   3.562   7.280
 7556SOL    HW234700   5.916   3.580   7.132
 7557SOL     OW34701   4.112   0.762   6.819
 7557SOL    HW134702   4.186   0.827   6.798
 7557SOL    HW234703   4.025   0.802   6.792
 7558SOL     OW34704   4.570   6.402   6.956
 7558SOL    HW134705   4.605   6.491   6.925
 7558SOL    HW234706   4.480   6.414   6.995
 7559SOL     OW34707   4.200   7.360   6.973
 7559SOL    HW134708   4.113   7.329   7.013
 7559SOL    HW234709   4.192   7.362   6.874
 7560SOL     OW34710   4.321   6.956   6.902
 7560SOL    HW134711   4.269   6.904   6.833
 7560SOL    HW234712   4.350   7.042   6.863
 7561SOL     OW34713   2.339   7.478   6.817
 7561SOL    HW134714   2.369   7.409   6.751
 7561SOL    HW234715   2.273   7.538   6.774
 7562SOL     OW34716   3.893   7.830   6.891
 7562SOL    HW134717   3.871   7.918   6.935
 7562SOL    HW234718   3.850   7.757   6.942
 7563SOL     OW34719   4.003   1.527   7.108
 7563SOL    HW134720   4.025   1.538   7.011
 7563SOL    HW234721   4.019   1.613   7.155
 7564SOL     OW34722   5.143   3.749   6.798
 7564SOL    HW134723   5.214   3.746   6.727
 7564SOL    HW234724   5.183   3.720   6.885
 7565SOL     OW34725   0.418   4.499   7.021
 7565SOL    HW134726   0.447   4.463   6.931
 7565SOL    HW234727   0.407   4.423   7.084
 7566SOL     OW34728   3.613   8.322   6.880
 7566SOL    HW134729   3.614   8.419   6.853
 7566SOL    HW234730   3.703   8.297   6.915
 7567SOL     OW34731   2.429   8.484   7.175
 7567SOL    HW134732   2.516   8.511   7.132
 7567SOL    HW234733   2.445   8.462   7.271
 7568SOL     OW34734   8.028   5.895   7.008
 7568SOL    HW134735   7.961   5.855   6.946
 7568SOL    HW234736   8.112   5.915   6.957
 7569SOL     OW34737   2.715   1.841   6.966
 7569SOL    HW134738   2.634   1.899   6.959
 7569SOL    HW234739   2.702   1.775   7.039
 7570SOL     OW34740   8.337   4.877   6.924
 7570SOL    HW134741   8.402   4.950   6.947
 7570SOL    HW234742   8.292   4.899   6.838
 7571SOL     OW34743   1.911   7.868   6.996
 7571SOL    HW134744   1.842   7.815   6.947
 7571SOL    HW234745   1.909   7.844   7.092
 7572SOL     OW34746   7.401   7.989   6.874
 7572SOL    HW134747   7.396   7.907   6.815
 7572SOL    HW234748   7.319   8.043   6.862
 7573SOL     OW34749   4.386   7.513   6.803
 7573SOL    HW134750   4.461   7.508   6.735
 7573SOL    HW234751   4.303   7.478   6.763
 7574SOL     OW34752   1.554   2.716   6.900
 7574SOL    HW134753   1.576   2.632   6.950
 7574SOL    HW234754   1.638   2.761   6.872
 7575SOL     OW34755   3.602   0.764   6.900
 7575SOL    HW134756   3.577   0.703   6.976
 7575SOL    HW234757   3.697   0.791   6.909
 7576SOL     OW34758   1.728   2.774   7.092
 7576SOL    HW134759   1.808   2.809   7.042
 7576SOL    HW234760   1.676   2.715   7.032
 7577SOL     OW34761   4.173   4.016   6.952
 7577SOL    HW134762   4.106   3.984   6.884
 7577SOL    HW234763   4.216   4.099   6.919
 7578SOL     OW34764   6.030   3.409   6.972
 7578SOL    HW134765   6.016   3.346   7.049
 7578SOL    HW234766   5.965   3.484   6.978
 7579SOL     OW34767   3.810   3.728   7.173
 7579SOL    HW134768   3.906   3.753   7.159
 7579SOL    HW234769   3.805   3.656   7.242
 7580SOL     OW34770   2.344   2.995   7.037
 7580SOL    HW134771   2.280   3.010   6.961
 7580SOL    HW234772   2.390   2.908   7.024
 7581SOL     OW34773   7.191   8.351   7.077
 7581SOL    HW134774   7.237   8.431   7.038
 7581SOL    HW234775   7.093   8.367   7.081
 7582SOL     OW34776   7.955   0.046   7.133
 7582SOL    HW134777   7.932  -0.022   7.203
 7582SOL    HW234778   8.048   0.032   7.102
 7583SOL     OW34779   2.977   0.938   6.829
 7583SOL    HW134780   2.997   0.927   6.731
 7583SOL    HW234781   2.883   0.968   6.840
 7584SOL     OW34782   8.208   8.346   7.039
 7584SOL    HW134783   8.275   8.345   7.113
 7584SOL    HW234784   8.126   8.393   7.069
 7585SOL     OW34785   0.180   2.290   6.936
 7585SOL    HW134786   0.162   2.202   6.891
 7585SOL    HW234787   0.130   2.362   6.889
 7586SOL     OW34788   1.882   4.753   7.026
 7586SOL    HW134789   1.915   4.839   6.985
 7586SOL    HW234790   1.783   4.748   7.017
 7587SOL     OW34791   3.224   3.005   6.910
 7587SOL    HW134792   3.279   2.932   6.869
 7587SOL    HW234793   3.208   3.077   6.843
 7588SOL     OW34794   5.284   8.177   7.065
 7588SOL    HW134795   5.331   8.214   7.145
 7588SOL    HW234796   5.190   8.156   7.089
 7589SOL     OW34797   6.202   1.897   6.852
 7589SOL    HW134798   6.185   1.973   6.916
 7589SOL    HW234799   6.140   1.822   6.874
 7590SOL     OW34800   2.713   6.150   6.856
 7590SOL    HW134801   2.730   6.129   6.953
 7590SOL    HW234802   2.620   6.183   6.846
 7591SOL     OW34803   7.616   7.541   6.778
 7591SOL    HW134804   7.564   7.465   6.818
 7591SOL    HW234805   7.657   7.511   6.693
 7592SOL     OW34806   5.863   5.668   7.082
 7592SOL    HW134807   5.765   5.645   7.077
 7592SOL    HW234808   5.898   5.647   7.172
 7593SOL     OW34809   5.218   1.019   6.974
 7593SOL    HW134810   5.132   0.971   6.993
 7593SOL    HW234811   5.253   0.990   6.885
 7594SOL     OW34812   7.966   7.665   7.000
 7594SOL    HW134813   7.945   7.717   7.083
 7594SOL    HW234814   8.038   7.712   6.949
 7595SOL     OW34815   7.855   6.390   6.866
 7595SOL    HW134816   7.762   6.359   6.889
 7595SOL    HW234817   7.918   6.360   6.936
 7596SOL     OW34818   4.840   0.616   7.105
 7596SOL    HW134819   4.837   0.676   7.025
 7596SOL    HW234820   4.775   0.542   7.094
 7597SOL     OW34821   6.360   5.759   6.779
 7597SOL    HW134822   6.320   5.681   6.828
 7597SOL    HW234823   6.420   5.726   6.707
 7598SOL     OW34824   6.560   6.151   6.967
 7598SOL    HW134825   6.548   6.237   6.917
 7598SOL    HW234826   6.611   6.087   6.910
 7599SOL     OW34827   9.451   1.196   6.825
 7599SOL    HW134828   9.431   1.130   6.752
 7599SOL    HW234829   9.450   1.149   6.913
 7600SOL     OW34830   1.847   8.386   7.062
 7600SOL    HW134831   1.767   8.372   7.120
 7600SOL    HW234832   1.842   8.477   7.021
 7601SOL     OW34833   0.686   3.016   6.938
 7601SOL    HW134834   0.701   3.112   6.913
 7601SOL    HW234835   0.730   2.956   6.872
 7602SOL     OW34836   2.567   6.028   6.902
 7602SOL    HW134837   2.503   6.105   6.891
 7602SOL    HW234838   2.515   5.946   6.925
 7603SOL     OW34839   6.342   2.263   6.845
 7603SOL    HW134840   6.328   2.346   6.789
 7603SOL    HW234841   6.290   2.188   6.806
 7604SOL     OW34842   5.650   7.615   6.709
 7604SOL    HW134843   5.720   7.582   6.773
 7604SOL    HW234844   5.574   7.653   6.761
 7605SOL     OW34845   6.426   2.885   6.964
 7605SOL    HW134846   6.376   2.876   7.051
 7605SOL    HW234847   6.451   2.795   6.931
 7606SOL     OW34848   3.716   1.184   6.940
 7606SOL    HW134849   3.793   1.246   6.921
 7606SOL    HW234850   3.660   1.175   6.858
 7607SOL     OW34851   1.011   1.846   7.100
 7607SOL    HW134852   1.024   1.747   7.088
 7607SOL    HW234853   0.945   1.862   7.172
 7608SOL     OW34854   3.882   5.134   6.732
 7608SOL    HW134855   3.940   5.122   6.813
 7608SOL    HW234856   3.863   5.045   6.691
 7609SOL     OW34857   8.623   3.546   6.814
 7609SOL    HW134858   8.668   3.468   6.771
 7609SOL    HW234859   8.691   3.617   6.832
 7610SOL     OW34860   1.139   1.771   6.891
 7610SOL    HW134861   1.172   1.765   6.796
 7610SOL    HW234862   1.199   1.718   6.950
 7611SOL     OW34863   6.337   0.206   6.738
 7611SOL    HW134864   6.396   0.134   6.776
 7611SOL    HW234865   6.319   0.274   6.808
 7612SOL     OW34866   5.067   6.937   6.934
 7612SOL    HW134867   5.042   7.032   6.954
 7612SOL    HW234868   5.020   6.908   6.851
 7613SOL     OW34869   1.617   3.161   6.858
 7613SOL    HW134870   1.523   3.189   6.837
 7613SOL    HW234871   1.662   3.233   6.909
 7614SOL     OW34872   6.802   7.376   6.793
 7614SOL    HW134873   6.805   7.358   6.891
 7614SOL    HW234874   6.727   7.326   6.752
 7615SOL     OW34875   2.371   3.665   7.099
 7615SOL    HW134876   2.340   3.577   7.062
 7615SOL    HW234877   2.458   3.689   7.058
 7616SOL     OW34878   6.549   7.109   6.786
 7616SOL    HW134879   6.565   7.046   6.709
 7616SOL    HW234880   6.492   7.184   6.754
 7617SOL     OW34881   8.442   5.356   6.959
 7617SOL    HW134882   8.529   5.388   6.999
 7617SOL    HW234883   8.369   5.419   6.983
 7618SOL     OW34884   3.372   2.787   7.068
 7618SOL    HW134885   3.329   2.750   7.150
 7618SOL    HW234886   3.468   2.806   7.086
 7619SOL     OW34887   7.379   0.054   7.085
 7619SOL    HW134888   7.403   0.070   6.989
 7619SOL    HW234889   7.356   0.141   7.128
 7620SOL     OW34890   4.590   6.994   7.188
 7620SOL    HW134891   4.686   7.001   7.217
 7620SOL    HW234892   4.581   7.034   7.097
 7621SOL     OW34893   8.733   5.868   6.802
 7621SOL    HW134894   8.707   5.778   6.767
 7621SOL    HW234895   8.706   5.875   6.897
 7622SOL     OW34896   9.034   5.404   6.793
 7622SOL    HW134897   9.110   5.403   6.727
 7622SOL    HW234898   8.956   5.356   6.754
 7623SOL     OW34899   5.516   6.902   7.212
 7623SOL    HW134900   5.549   6.812   7.182
 7623SOL    HW234901   5.592   6.966   7.214
 7624SOL     OW34902   4.198   7.910   6.973
 7624SOL    HW134903   4.123   7.918   7.039
 7624SOL    HW234904   4.262   7.985   6.986
 7625SOL     OW34905   3.802   4.085   6.964
 7625SOL    HW134906   3.791   4.107   7.062
 7625SOL    HW234907   3.731   4.130   6.912
 7626SOL     OW34908   5.117   0.804   6.737
 7626SOL    HW134909   5.054   0.863   6.790
 7626SOL    HW234910   5.092   0.709   6.751
 7627SOL     OW34911   6.693   2.117   6.856
 7627SOL    HW134912   6.779   2.081   6.819
 7627SOL    HW234913   6.630   2.041   6.871
 7628SOL     OW34914   6.304   3.554   6.803
 7628SOL    HW134915   6.230   3.613   6.771
 7628SOL    HW234916   6.377   3.610   6.841
 7629SOL     OW34917   3.380   0.939   7.072
 7629SOL    HW134918   3.423   0.877   7.006
 7629SOL    HW234919   3.358   1.025   7.027
 7630SOL     OW34920   1.011   6.847   6.759
 7630SOL    HW134921   1.106   6.872   6.737
 7630SOL    HW234922   0.992   6.755   6.728
 7631SOL     OW34923   4.495   0.069   6.839
 7631SOL    HW134924   4.561  -0.003   6.864
 7631SOL    HW234925   4.429   0.032   6.775
 7632SOL     OW34926   6.492   2.087   7.191
 7632SOL    HW134927   6.532   2.057   7.104
 7632SOL    HW234928   6.441   2.171   7.176
 7633SOL     OW34929   0.183   4.593   6.788
 7633SOL    HW134930   0.129   4.522   6.742
 7633SOL    HW234931   0.280   4.571   6.781
 7634SOL     OW34932   6.868   2.155   6.954
 7634SOL    HW134933   6.950   2.205   6.980
 7634SOL    HW234934   6.890   2.058   6.946
 7635SOL     OW34935   3.983   8.525   6.837
 7635SOL    HW134936   3.887   8.513   6.863
 7635SOL    HW234937   4.030   8.437   6.845
 7636SOL     OW34938   2.086   3.057   6.802
 7636SOL    HW134939   2.065   3.154   6.788
 7636SOL    HW234940   2.184   3.045   6.809
 7637SOL     OW34941   8.789   4.584   7.205
 7637SOL    HW134942   8.770   4.506   7.144
 7637SOL    HW234943   8.709   4.643   7.208
 7638SOL     OW34944   5.168   2.694   7.160
 7638SOL    HW134945   5.245   2.673   7.220
 7638SOL    HW234946   5.092   2.728   7.215
 7639SOL     OW34947   8.786   7.314   7.173
 7639SOL    HW134948   8.717   7.377   7.138
 7639SOL    HW234949   8.744   7.226   7.193
 7640SOL     OW34950   0.229   0.408   6.780
 7640SOL    HW134951   0.251   0.403   6.682
 7640SOL    HW234952   0.287   0.477   6.822
 7641SOL     OW34953   2.533   7.314   7.069
 7641SOL    HW134954   2.542   7.393   7.130
 7641SOL    HW234955   2.489   7.239   7.117
 7642SOL     OW34956   2.179   3.623   6.755
 7642SOL    HW134957   2.275   3.642   6.778
 7642SOL    HW234958   2.135   3.576   6.831
 7643SOL     OW34959   8.767   1.527   6.980
 7643SOL    HW134960   8.839   1.496   6.917
 7643SOL    HW234961   8.769   1.626   6.985
 7644SOL     OW34962   7.874   8.089   6.827
 7644SOL    HW134963   7.804   8.046   6.884
 7644SOL    HW234964   7.863   8.058   6.733
 7645SOL     OW34965   5.851   1.284   7.141
 7645SOL    HW134966   5.848   1.250   7.235
 7645SOL    HW234967   5.780   1.240   7.087
 7646SOL     OW34968   4.797   5.829   6.999
 7646SOL    HW134969   4.723   5.872   7.051
 7646SOL    HW234970   4.864   5.789   7.061
 7647SOL     OW34971   0.001   4.610   7.133
 7647SOL    HW134972   0.015   4.681   7.063
 7647SOL    HW234973   0.031   4.522   7.097
 7648SOL     OW34974   0.278   1.176   6.976
 7648SOL    HW134975   0.338   1.223   6.910
 7648SOL    HW234976   0.331   1.152   7.057
 7649SOL     OW34977   5.474   2.749   7.100
 7649SOL    HW134978   5.433   2.781   7.186
 7649SOL    HW234979   5.507   2.828   7.048
 7650SOL     OW34980   2.107   4.013   7.102
 7650SOL    HW134981   2.156   3.936   7.061
 7650SOL    HW234982   2.027   3.979   7.151
 7651SOL     OW34983   2.501   0.831   6.765
 7651SOL    HW134984   2.417   0.870   6.803
 7651SOL    HW234985   2.499   0.837   6.666
 7652SOL     OW34986   5.421   2.454   6.938
 7652SOL    HW134987   5.473   2.386   6.886
 7652SOL    HW234988   5.396   2.416   7.027
 7653SOL     OW34989   5.174   5.009   6.857
 7653SOL    HW134990   5.131   4.918   6.865
 7653SOL    HW234991   5.221   5.030   6.942
 7654SOL     OW34992   8.257   1.219   6.929
 7654SOL    HW134993   8.211   1.292   6.877
 7654SOL    HW234994   8.322   1.172   6.869
 7655SOL     OW34995   5.527   0.992   7.085
 7655SOL    HW134996   5.453   1.009   7.019
 7655SOL    HW234997   5.544   0.894   7.090
 7656SOL     OW34998   3.533   7.266   7.127
 7656SOL    HW134999   3.557   7.193   7.062
 7656SOL    HW235000   3.614   7.292   7.178
 7657SOL     OW35001   4.754   1.963   6.983
 7657SOL    HW135002   4.818   1.887   6.997
 7657SOL    HW235003   4.787   2.019   6.908
 7658SOL     OW35004   0.360   0.318   6.890
 7658SOL    HW135005   0.299   0.289   6.964
 7658SOL    HW235006   0.453   0.288   6.910
 7659SOL     OW35007   1.798   3.019   7.057
 7659SOL    HW135008   1.860   2.945   7.028
 7659SOL    HW235009   1.716   2.979   7.097
 7660SOL     OW35010   7.865   3.628   6.992
 7660SOL    HW135011   7.773   3.589   6.978
 7660SOL    HW235012   7.933   3.562   6.966
 7661SOL     OW35013   1.313   1.729   7.135
 7661SOL    HW135014   1.304   1.630   7.120
 7661SOL    HW235015   1.257   1.777   7.068
 7662SOL     OW35016   9.049   2.205   6.843
 7662SOL    HW135017   8.991   2.203   6.761
 7662SOL    HW235018   9.103   2.288   6.843
 7663SOL     OW35019   7.225   6.468   6.836
 7663SOL    HW135020   7.216   6.557   6.791
 7663SOL    HW235021   7.139   6.442   6.877
 7664SOL     OW35022   2.637   2.134   7.101
 7664SOL    HW135023   2.654   2.098   7.193
 7664SOL    HW235024   2.561   2.198   7.104
 7665SOL     OW35025   9.280   4.254   6.879
 7665SOL    HW135026   9.266   4.350   6.902
 7665SOL    HW235027   9.316   4.246   6.787
 7666SOL     OW35028   2.411   2.354   6.810
 7666SOL    HW135029   2.358   2.383   6.729
 7666SOL    HW235030   2.414   2.430   6.875
 7667SOL     OW35031   9.382   2.651   7.110
 7667SOL    HW135032   9.480   2.672   7.111
 7667SOL    HW235033   9.331   2.735   7.096
 7668SOL     OW35034   8.523   6.793   6.825
 7668SOL    HW135035   8.467   6.840   6.755
 7668SOL    HW235036   8.489   6.818   6.915
 7669SOL     OW35037   1.452   2.001   6.995
 7669SOL    HW135038   1.534   2.054   6.969
 7669SOL    HW235039   1.388   2.061   7.041
 7670SOL     OW35040   4.882   2.832   7.165
 7670SOL    HW135041   4.899   2.845   7.263
 7670SOL    HW235042   4.794   2.789   7.152
 7671SOL     OW35043   1.807   0.668   6.871
 7671SOL    HW135044   1.749   0.613   6.810
 7671SOL    HW235045   1.753   0.744   6.907
 7672SOL     OW35046   2.138   0.315   6.999
 7672SOL    HW135047   2.060   0.274   6.951
 7672SOL    HW235048   2.208   0.339   6.932
 7673SOL     OW35049   1.631   6.001   6.839
 7673SOL    HW135050   1.672   6.076   6.787
 7673SOL    HW235051   1.578   5.943   6.779
 7674SOL     OW35052   7.996   6.206   6.811
 7674SOL    HW135053   7.897   6.187   6.813
 7674SOL    HW235054   8.012   6.296   6.773
 7675SOL     OW35055   6.116   3.378   6.787
 7675SOL    HW135056   6.022   3.362   6.819
 7675SOL    HW235057   6.122   3.469   6.749
 7676SOL     OW35058   6.750   6.968   6.950
 7676SOL    HW135059   6.720   6.976   7.045
 7676SOL    HW235060   6.849   6.977   6.946
 7677SOL     OW35061   8.025   6.646   6.907
 7677SOL    HW135062   8.065   6.597   6.985
 7677SOL    HW235063   7.942   6.599   6.879
 7678SOL     OW35064   4.566   7.924   6.968
 7678SOL    HW135065   4.649   7.908   7.023
 7678SOL    HW235066   4.588   7.910   6.872
 7679SOL     OW35067   2.341   7.803   7.030
 7679SOL    HW135068   2.324   7.825   7.127
 7679SOL    HW235069   2.436   7.774   7.020
 7680SOL     OW35070   4.262   2.437   7.044
 7680SOL    HW135071   4.291   2.415   7.138
 7680SOL    HW235072   4.163   2.431   7.039
 7681SOL     OW35073   3.743   0.389   7.022
 7681SOL    HW135074   3.668   0.332   7.056
 7681SOL    HW235075   3.828   0.362   7.067
 7682SOL     OW35076   5.299   7.610   6.771
 7682SOL    HW135077   5.359   7.683   6.738
 7682SOL    HW235078   5.217   7.606   6.715
 7683SOL     OW35079   1.484   4.242   7.127
 7683SOL    HW135080   1.424   4.288   7.192
 7683SOL    HW235081   1.554   4.191   7.176
 7684SOL     OW35082   8.380   2.961   6.911
 7684SOL    HW135083   8.373   2.914   6.999
 7684SOL    HW235084   8.368   3.059   6.924
 7685SOL     OW35085   6.633   3.838   7.051
 7685SOL    HW135086   6.720   3.789   7.067
 7685SOL    HW235087   6.587   3.851   7.138
 7686SOL     OW35088   5.036   7.274   6.953
 7686SOL    HW135089   5.044   7.191   6.897
 7686SOL    HW235090   5.116   7.332   6.940
 7687SOL     OW35091   3.103   7.789   6.959
 7687SOL    HW135092   3.056   7.722   6.901
 7687SOL    HW235093   3.051   7.802   7.043
 7688SOL     OW35094   0.146   2.219   7.175
 7688SOL    HW135095   0.072   2.176   7.123
 7688SOL    HW235096   0.234   2.188   7.139
 7689SOL     OW35097   4.266   7.619   6.955
 7689SOL    HW135098   4.321   7.628   7.038
 7689SOL    HW235099   4.173   7.648   6.975
 7690SOL     OW35100   7.410   6.925   7.123
 7690SOL    HW135101   7.477   6.955   7.191
 7690SOL    HW235102   7.319   6.928   7.162
 7691SOL     OW35103   6.045   4.879   6.799
 7691SOL    HW135104   5.962   4.835   6.764
 7691SOL    HW235105   6.070   4.838   6.886
 7692SOL     OW35106   0.485   6.678   7.053
 7692SOL    HW135107   0.454   6.640   6.966
 7692SOL    HW235108   0.550   6.751   7.035
 7693SOL     OW35109   7.730   4.124   7.007
 7693SOL    HW135110   7.646   4.089   7.049
 7693SOL    HW235111   7.766   4.057   6.942
 7694SOL     OW35112   9.053   3.840   7.130
 7694SOL    HW135113   9.131   3.782   7.104
 7694SOL    HW235114   9.065   3.869   7.225
 7695SOL     OW35115   6.148   2.593   6.998
 7695SOL    HW135116   6.099   2.640   7.072
 7695SOL    HW235117   6.172   2.659   6.928
 7696SOL     OW35118   0.952   2.490   6.904
 7696SOL    HW135119   0.891   2.429   6.854
 7696SOL    HW235120   0.919   2.584   6.895
 7697SOL     OW35121   2.571   6.834   7.030
 7697SOL    HW135122   2.621   6.778   6.963
 7697SOL    HW235123   2.519   6.904   6.983
 7698SOL     OW35124   1.196   3.410   6.906
 7698SOL    HW135125   1.165   3.485   6.965
 7698SOL    HW235126   1.295   3.418   6.893
 7699SOL     OW35127   7.421   0.291   6.778
 7699SOL    HW135128   7.502   0.324   6.730
 7699SOL    HW235129   7.364   0.369   6.803
 7700SOL     OW35130   3.991   6.236   7.160
 7700SOL    HW135131   3.898   6.232   7.198
 7700SOL    HW235132   3.987   6.271   7.067
 7701SOL     OW35133   4.704   0.194   6.744
 7701SOL    HW135134   4.606   0.199   6.766
 7701SOL    HW235135   4.756   0.173   6.826
 7702SOL     OW35136   3.248   5.892   7.189
 7702SOL    HW135137   3.275   5.796   7.179
 7702SOL    HW235138   3.328   5.950   7.180
 7703SOL     OW35139   1.228   1.173   6.982
 7703SOL    HW135140   1.242   1.253   6.922
 7703SOL    HW235141   1.132   1.171   7.010
 7704SOL     OW35142   4.864   2.601   7.199
 7704SOL    HW135143   4.956   2.571   7.227
 7704SOL    HW235144   4.843   2.561   7.110
 7705SOL     OW35145   2.780   5.073   6.880
 7705SOL    HW135146   2.705   5.140   6.879
 7705SOL    HW235147   2.862   5.114   6.841
 7706SOL     OW35148   7.421   6.021   7.112
 7706SOL    HW135149   7.354   5.994   7.042
 7706SOL    HW235150   7.449   6.115   7.096
 7707SOL     OW35151   1.147   2.050   7.057
 7707SOL    HW135152   1.246   2.033   7.050
 7707SOL    HW235153   1.130   2.120   7.125
 7708SOL     OW35154   2.891   1.293   7.110
 7708SOL    HW135155   2.852   1.375   7.067
 7708SOL    HW235156   2.826   1.218   7.102
 7709SOL     OW35157   5.114   0.421   6.850
 7709SOL    HW135158   5.185   0.385   6.788
 7709SOL    HW235159   5.048   0.474   6.798
 7710SOL     OW35160   2.612   7.014   6.822
 7710SOL    HW135161   2.596   6.915   6.812
 7710SOL    HW235162   2.593   7.060   6.736
 7711SOL     OW35163   5.953   4.478   6.824
 7711SOL    HW135164   5.977   4.446   6.732
 7711SOL    HW235165   5.969   4.576   6.829
 7712SOL     OW35166   4.409   3.871   7.021
 7712SOL    HW135167   4.414   3.908   6.928
 7712SOL    HW235168   4.470   3.922   7.080
 7713SOL     OW35169   4.517   2.617   6.883
 7713SOL    HW135170   4.456   2.609   6.804
 7713SOL    HW235171   4.609   2.591   6.856
 7714SOL     OW35172   6.958   7.489   7.073
 7714SOL    HW135173   6.923   7.528   7.159
 7714SOL    HW235174   7.052   7.518   7.060
 7715SOL     OW35175   4.934   3.451   6.915
 7715SOL    HW135176   4.920   3.364   6.964
 7715SOL    HW235177   4.893   3.525   6.968
 7716SOL     OW35178   7.450   7.658   6.884
 7716SOL    HW135179   7.417   7.665   6.978
 7716SOL    HW235180   7.396   7.717   6.825
 7717SOL     OW35181   3.613   6.060   6.790
 7717SOL    HW135182   3.588   6.019   6.701
 7717SOL    HW235183   3.635   6.156   6.777
 7718SOL     OW35184   3.708   4.525   7.045
 7718SOL    HW135185   3.736   4.442   7.095
 7718SOL    HW235186   3.697   4.600   7.109
 7719SOL     OW35187   2.930   5.412   7.141
 7719SOL    HW135188   2.842   5.459   7.128
 7719SOL    HW235189   2.988   5.429   7.061
 7720SOL     OW35190   7.022   2.314   7.105
 7720SOL    HW135191   6.954   2.297   7.176
 7720SOL    HW235192   7.106   2.266   7.128
 7721SOL     OW35193   1.827   7.090   6.969
 7721SOL    HW135194   1.880   7.168   6.935
 7721SOL    HW235195   1.757   7.067   6.902
 7722SOL     OW35196   6.778   6.532   6.843
 7722SOL    HW135197   6.834   6.575   6.913
 7722SOL    HW235198   6.682   6.556   6.858
 7723SOL     OW35199   5.078   2.978   7.223
 7723SOL    HW135200   5.002   3.033   7.187
 7723SOL    HW235201   5.135   2.946   7.147
 7724SOL     OW35202   3.275   2.364   7.046
 7724SOL    HW135203   3.347   2.294   7.041
 7724SOL    HW235204   3.305   2.438   7.105
 7725SOL     OW35205   0.851   3.692   6.891
 7725SOL    HW135206   0.907   3.727   6.968
 7725SOL    HW235207   0.871   3.596   6.877
 7726SOL     OW35208   5.583   3.020   7.143
 7726SOL    HW135209   5.627   3.001   7.055
 7726SOL    HW235210   5.517   2.949   7.164
 7727SOL     OW35211   4.932   5.695   6.916
 7727SOL    HW135212   4.907   5.669   7.010
 7727SOL    HW235213   5.030   5.710   6.911
 7728SOL     OW35214   8.116   4.939   6.834
 7728SOL    HW135215   8.115   4.944   6.934
 7728SOL    HW235216   8.027   4.909   6.802
 7729SOL     OW35217   4.287   3.107   7.043
 7729SOL    HW135218   4.335   3.148   6.965
 7729SOL    HW235219   4.305   3.160   7.125
 7730SOL     OW35220   6.955   6.000   7.201
 7730SOL    HW135221   7.029   6.037   7.144
 7730SOL    HW235222   6.895   5.944   7.145
 7731SOL     OW35223   0.512   5.196   7.094
 7731SOL    HW135224   0.534   5.288   7.129
 7731SOL    HW235225   0.517   5.197   6.995
 7732SOL     OW35226   4.483   3.523   6.823
 7732SOL    HW135227   4.388   3.492   6.828
 7732SOL    HW235228   4.524   3.492   6.738
 7733SOL     OW35229   6.395   3.114   7.041
 7733SOL    HW135230   6.366   3.144   6.950
 7733SOL    HW235231   6.325   3.057   7.081
 7734SOL     OW35232   1.665   3.432   6.705
 7734SOL    HW135233   1.712   3.355   6.750
 7734SOL    HW235234   1.662   3.509   6.767
 7735SOL     OW35235   5.841   6.893   6.812
 7735SOL    HW135236   5.818   6.828   6.739
 7735SOL    HW235237   5.880   6.975   6.772
 7736SOL     OW35238   3.892   7.066   6.703
 7736SOL    HW135239   3.848   7.047   6.791
 7736SOL    HW235240   3.953   7.145   6.713
 7737SOL     OW35241   5.725   5.416   6.930
 7737SOL    HW135242   5.800   5.404   6.865
 7737SOL    HW235243   5.640   5.386   6.889
 7738SOL     OW35244   1.117   5.898   6.843
 7738SOL    HW135245   1.067   5.980   6.872
 7738SOL    HW235246   1.053   5.833   6.804
 7739SOL     OW35247   8.753   0.306   6.910
 7739SOL    HW135248   8.826   0.360   6.868
 7739SOL    HW235249   8.685   0.283   6.842
 7740SOL     OW35250   3.459   1.127   6.836
 7740SOL    HW135251   3.531   1.178   6.787
 7740SOL    HW235252   3.421   1.058   6.776
 7741SOL     OW35253   1.052   5.390   7.029
 7741SOL    HW135254   1.080   5.320   6.962
 7741SOL    HW235255   0.984   5.449   6.987
 7742SOL     OW35256   3.941   6.866   7.051
 7742SOL    HW135257   4.007   6.805   7.095
 7742SOL    HW235258   3.961   6.960   7.075
 7743SOL     OW35259   8.063   3.673   6.740
 7743SOL    HW135260   8.095   3.610   6.812
 7743SOL    HW235261   8.054   3.765   6.778
 7744SOL     OW35262   5.253   1.522   7.162
 7744SOL    HW135263   5.310   1.541   7.243
 7744SOL    HW235264   5.169   1.576   7.167
 7745SOL     OW35265   4.445   8.233   6.837
 7745SOL    HW135266   4.499   8.176   6.776
 7745SOL    HW235267   4.369   8.273   6.787
 7746SOL     OW35268   2.297   6.736   7.139
 7746SOL    HW135269   2.210   6.777   7.168
 7746SOL    HW235270   2.331   6.786   7.060
 7747SOL     OW35271   3.640   2.990   6.774
 7747SOL    HW135272   3.582   3.012   6.853
 7747SOL    HW235273   3.723   2.946   6.806
 7748SOL     OW35274   0.711   1.675   6.817
 7748SOL    HW135275   0.645   1.614   6.862
 7748SOL    HW235276   0.666   1.760   6.793
 7749SOL     OW35277   5.616   4.754   7.088
 7749SOL    HW135278   5.604   4.753   7.188
 7749SOL    HW235279   5.693   4.696   7.064
 7750SOL     OW35280   5.702   0.699   7.096
 7750SOL    HW135281   5.691   0.797   7.075
 7750SOL    HW235282   5.794   0.683   7.132
 7751SOL     OW35283   3.584   4.152   6.844
 7751SOL    HW135284   3.600   4.178   6.748
 7751SOL    HW235285   3.504   4.093   6.849
 7752SOL     OW35286   6.880   4.492   7.028
 7752SOL    HW135287   6.890   4.398   7.061
 7752SOL    HW235288   6.950   4.511   6.960
 7753SOL     OW35289   5.061   5.248   6.860
 7753SOL    HW135290   5.010   5.174   6.906
 7753SOL    HW235291   5.153   5.254   6.899
 7754SOL     OW35292   5.520   1.324   6.919
 7754SOL    HW135293   5.559   1.244   6.965
 7754SOL    HW235294   5.523   1.403   6.980
 7755SOL     OW35295   4.068   6.280   6.840
 7755SOL    HW135296   4.108   6.256   6.929
 7755SOL    HW235297   4.132   6.257   6.768
 7756SOL     OW35298   8.798   0.263   7.073
 7756SOL    HW135299   8.888   0.260   7.118
 7756SOL    HW235300   8.736   0.320   7.126
 7757SOL     OW35301   6.338   1.427   7.190
 7757SOL    HW135302   6.282   1.474   7.122
 7757SOL    HW235303   6.374   1.343   7.151
 7758SOL     OW35304   5.943   8.394   6.974
 7758SOL    HW135305   5.871   8.324   6.969
 7758SOL    HW235306   5.974   8.416   6.882
 7759SOL     OW35307   2.080   6.834   6.862
 7759SOL    HW135308   2.055   6.817   6.958
 7759SOL    HW235309   2.115   6.927   6.853
 7760SOL     OW35310   1.558   0.965   6.936
 7760SOL    HW135311   1.543   0.865   6.931
 7760SOL    HW235312   1.566   1.001   6.844
 7761SOL     OW35313   1.235   0.205   6.973
 7761SOL    HW135314   1.178   0.123   6.960
 7761SOL    HW235315   1.322   0.179   7.014
 7762SOL     OW35316   7.358   8.113   7.122
 7762SOL    HW135317   7.295   8.069   7.057
 7762SOL    HW235318   7.413   8.180   7.073
 7763SOL     OW35319   0.784   6.046   7.141
 7763SOL    HW135320   0.720   6.057   7.217
 7763SOL    HW235321   0.876   6.038   7.176
 7764SOL     OW35322   2.717   0.508   7.143
 7764SOL    HW135323   2.742   0.461   7.058
 7764SOL    HW235324   2.647   0.576   7.125
 7765SOL     OW35325   2.695   2.417   7.150
 7765SOL    HW135326   2.639   2.479   7.094
 7765SOL    HW235327   2.777   2.392   7.101
 7766SOL     OW35328   2.723   8.036   6.790
 7766SOL    HW135329   2.798   8.034   6.857
 7766SOL    HW235330   2.641   8.072   6.833
 7767SOL     OW35331   5.573   7.194   6.877
 7767SOL    HW135332   5.574   7.100   6.912
 7767SOL    HW235333   5.590   7.257   6.951
 7768SOL     OW35334   4.914   2.350   7.125
 7768SOL    HW135335   4.949   2.416   7.192
 7768SOL    HW235336   4.839   2.298   7.165
 7769SOL     OW35337   7.206   1.090   7.132
 7769SOL    HW135338   7.272   1.154   7.091
 7769SOL    HW235339   7.232   0.997   7.110
 7770SOL     OW35340   3.284   6.418   6.912
 7770SOL    HW135341   3.343   6.440   6.834
 7770SOL    HW235342   3.213   6.354   6.884
 7771SOL     OW35343   8.901   2.742   6.821
 7771SOL    HW135344   8.888   2.645   6.843
 7771SOL    HW235345   8.914   2.752   6.723
 7772SOL     OW35346   2.064   3.817   6.971
 7772SOL    HW135347   2.003   3.894   6.992
 7772SOL    HW235348   2.046   3.785   6.879
 7773SOL     OW35349   1.915   3.642   6.814
 7773SOL    HW135350   1.850   3.670   6.885
 7773SOL    HW235351   1.978   3.575   6.850
 7774SOL     OW35352   2.401   4.814   6.770
 7774SOL    HW135353   2.432   4.803   6.864
 7774SOL    HW235354   2.371   4.907   6.755
 7775SOL     OW35355   8.897   5.572   6.718
 7775SOL    HW135356   8.932   5.614   6.802
 7775SOL    HW235357   8.811   5.617   6.693
 7776SOL     OW35358   8.133   2.233   7.176
 7776SOL    HW135359   8.152   2.326   7.145
 7776SOL    HW235360   8.038   2.225   7.202
 7777SOL     OW35361   6.979   6.518   7.121
 7777SOL    HW135362   7.027   6.519   7.209
 7777SOL    HW235363   6.881   6.517   7.137
 7778SOL     OW35364   4.041   3.391   6.903
 7778SOL    HW135365   4.139   3.406   6.887
 7778SOL    HW235366   4.029   3.307   6.956
 7779SOL     OW35367   7.950   0.358   7.014
 7779SOL    HW135368   7.916   0.291   6.947
 7779SOL    HW235369   8.032   0.400   6.979
 7780SOL     OW35370   4.728   6.596   7.089
 7780SOL    HW135371   4.791   6.560   7.020
 7780SOL    HW235372   4.637   6.559   7.073
 7781SOL     OW35373   8.434   8.336   6.855
 7781SOL    HW135374   8.384   8.361   6.939
 7781SOL    HW235375   8.412   8.401   6.783
 7782SOL     OW35376   1.456   3.954   7.070
 7782SOL    HW135377   1.453   3.935   6.972
 7782SOL    HW235378   1.407   3.883   7.119
 7783SOL     OW35379   8.532   4.767   7.179
 7783SOL    HW135380   8.582   4.817   7.250
 7783SOL    HW235381   8.588   4.763   7.097
 7784SOL     OW35382   6.068   3.964   7.013
 7784SOL    HW135383   6.037   4.026   7.086
 7784SOL    HW235384   6.061   3.870   7.044
 7785SOL     OW35385   5.196   6.426   6.903
 7785SOL    HW135386   5.218   6.335   6.869
 7785SOL    HW235387   5.178   6.421   7.001
 7786SOL     OW35388   7.608   2.101   6.889
 7786SOL    HW135389   7.544   2.168   6.852
 7786SOL    HW235390   7.631   2.124   6.983
 7787SOL     OW35391   8.459   1.398   7.179
 7787SOL    HW135392   8.489   1.488   7.144
 7787SOL    HW235393   8.361   1.400   7.195
 7788SOL     OW35394   8.591   6.948   7.161
 7788SOL    HW135395   8.536   6.982   7.239
 7788SOL    HW235396   8.641   6.867   7.189
 7789SOL     OW35397   0.805   7.800   7.088
 7789SOL    HW135398   0.886   7.746   7.113
 7789SOL    HW235399   0.796   7.802   6.989
 7790SOL     OW35400   4.210   2.771   7.179
 7790SOL    HW135401   4.272   2.828   7.124
 7790SOL    HW235402   4.248   2.680   7.188
 7791SOL     OW35403   7.761   6.701   7.059
 7791SOL    HW135404   7.758   6.777   6.993
 7791SOL    HW235405   7.845   6.650   7.048
 7792SOL     OW35406   3.423   6.546   7.034
 7792SOL    HW135407   3.385   6.629   7.077
 7792SOL    HW235408   3.427   6.559   6.936
 7793SOL     OW35409   5.417   3.558   6.761
 7793SOL    HW135410   5.391   3.561   6.858
 7793SOL    HW235411   5.485   3.628   6.744
 7794SOL     OW35412   2.145   2.669   6.856
 7794SOL    HW135413   2.122   2.613   6.775
 7794SOL    HW235414   2.189   2.611   6.924
 7795SOL     OW35415   8.531   5.842   6.983
 7795SOL    HW135416   8.573   5.766   7.033
 7795SOL    HW235417   8.546   5.927   7.032
 7796SOL     OW35418   4.892   4.600   6.845
 7796SOL    HW135419   4.948   4.623   6.925
 7796SOL    HW235420   4.796   4.611   6.868
 7797SOL     OW35421   9.314   0.164   6.959
 7797SOL    HW135422   9.384   0.235   6.971
 7797SOL    HW235423   9.332   0.090   7.023
 7798SOL     OW35424   1.840   4.483   6.878
 7798SOL    HW135425   1.805   4.562   6.827
 7798SOL    HW235426   1.764   4.432   6.916
 7799SOL     OW35427   6.819   4.124   6.890
 7799SOL    HW135428   6.719   4.114   6.895
 7799SOL    HW235429   6.855   4.060   6.823
 7800SOL     OW35430   9.095   1.240   7.166
 7800SOL    HW135431   9.149   1.322   7.185
 7800SOL    HW235432   9.009   1.266   7.124
 7801SOL     OW35433   0.675   2.562   6.855
 7801SOL    HW135434   0.760   2.613   6.844
 7801SOL    HW235435   0.694   2.464   6.851
 7802SOL     OW35436   1.862   6.067   7.117
 7802SOL    HW135437   1.928   6.013   7.169
 7802SOL    HW235438   1.837   6.148   7.169
 7803SOL     OW35439   7.596   4.543   6.837
 7803SOL    HW135440   7.557   4.604   6.907
 7803SOL    HW235441   7.678   4.501   6.872
 7804SOL     OW35442   3.574   6.967   7.030
 7804SOL    HW135443   3.633   7.017   6.966
 7804SOL    HW235444   3.515   6.905   6.979
 7805SOL     OW35445   2.348   0.803   7.009
 7805SOL    HW135446   2.355   0.784   7.107
 7805SOL    HW235447   2.343   0.902   6.994
 7806SOL     OW35448   5.292   7.146   6.786
 7806SOL    HW135449   5.392   7.146   6.777
 7806SOL    HW235450   5.267   7.146   6.882
 7807SOL     OW35451   5.200   5.540   6.862
 7807SOL    HW135452   5.151   5.563   6.777
 7807SOL    HW235453   5.297   5.555   6.849
 7808SOL     OW35454   0.566   0.198   6.798
 7808SOL    HW135455   0.467   0.211   6.791
 7808SOL    HW235456   0.585   0.105   6.828
 7809SOL     OW35457   9.459   2.894   7.024
 7809SOL    HW135458   9.370   2.940   7.028
 7809SOL    HW235459   9.498   2.905   6.934
 7810SOL     OW35460   7.063   0.475   7.004
 7810SOL    HW135461   7.147   0.445   7.051
 7810SOL    HW235462   6.988   0.415   7.030
 7811SOL     OW35463   7.197   0.012   6.856
 7811SOL    HW135464   7.135  -0.037   6.917
 7811SOL    HW235465   7.278   0.040   6.907
 7812SOL     OW35466   0.841   0.284   7.147
 7812SOL    HW135467   0.926   0.276   7.094
 7812SOL    HW235468   0.778   0.213   7.120
 7813SOL     OW35469   2.800   6.583   7.215
 7813SOL    HW135470   2.858   6.604   7.136
 7813SOL    HW235471   2.753   6.497   7.199
 7814SOL     OW35472   3.559   1.627   6.778
 7814SOL    HW135473   3.600   1.675   6.700
 7814SOL    HW235474   3.493   1.560   6.745
 7815SOL     OW35475   2.823   3.876   7.156
 7815SOL    HW135476   2.752   3.890   7.226
 7815SOL    HW235477   2.905   3.838   7.199
 7816SOL     OW35478   0.803   5.680   7.119
 7816SOL    HW135479   0.782   5.764   7.171
 7816SOL    HW235480   0.833   5.705   7.028
 7817SOL     OW35481   0.393   0.078   6.885
 7817SOL    HW135482   0.472   0.017   6.873
 7817SOL    HW235483   0.326   0.059   6.814
 7818SOL     OW35484   7.923   4.395   6.960
 7818SOL    HW135485   7.824   4.377   6.969
 7818SOL    HW235486   7.937   4.466   6.891
 7819SOL     OW35487   5.803   8.233   7.174
 7819SOL    HW135488   5.888   8.188   7.203
 7819SOL    HW235489   5.801   8.325   7.210
 7820SOL     OW35490   4.801   4.315   6.973
 7820SOL    HW135491   4.901   4.318   6.981
 7820SOL    HW235492   4.774   4.341   6.881
 7821SOL     OW35493   5.431   6.645   7.217
 7821SOL    HW135494   5.400   6.707   7.144
 7821SOL    HW235495   5.505   6.588   7.184
 7822SOL     OW35496   0.512   7.226   6.924
 7822SOL    HW135497   0.531   7.239   6.827
 7822SOL    HW235498   0.538   7.133   6.951
 7823SOL     OW35499   7.447   1.810   7.061
 7823SOL    HW135500   7.424   1.766   6.974
 7823SOL    HW235501   7.364   1.850   7.100
 7824SOL     OW35502   3.935   7.542   6.850
 7824SOL    HW135503   3.982   7.508   6.932
 7824SOL    HW235504   3.905   7.635   6.866
 7825SOL     OW35505   2.589   5.557   6.973
 7825SOL    HW135506   2.563   5.488   7.041
 7825SOL    HW235507   2.662   5.614   7.010
 7826SOL     OW35508   8.277   5.557   7.056
 7826SOL    HW135509   8.296   5.623   7.130
 7826SOL    HW235510   8.288   5.602   6.968
 7827SOL     OW35511   5.461   5.671   7.205
 7827SOL    HW135512   5.432   5.713   7.119
 7827SOL    HW235513   5.559   5.685   7.218
 7828SOL     OW35514   9.088   4.611   6.875
 7828SOL    HW135515   9.135   4.539   6.822
 7828SOL    HW235516   9.119   4.607   6.969
 7829SOL     OW35517   9.141   4.865   7.127
 7829SOL    HW135518   9.123   4.771   7.155
 7829SOL    HW235519   9.215   4.866   7.060
 7830SOL     OW35520   5.672   8.072   6.987
 7830SOL    HW135521   5.718   8.018   6.917
 7830SOL    HW235522   5.588   8.110   6.950
 7831SOL     OW35523   8.035   0.972   7.138
 7831SOL    HW135524   8.135   0.973   7.129
 7831SOL    HW235525   8.009   1.014   7.224
 7832SOL     OW35526   5.592   2.069   6.950
 7832SOL    HW135527   5.646   2.142   6.993
 7832SOL    HW235528   5.550   2.013   7.020
 7833SOL     OW35529   6.784   1.443   6.740
 7833SOL    HW135530   6.734   1.526   6.763
 7833SOL    HW235531   6.882   1.459   6.750
 7834SOL     OW35532   7.671   0.183   6.767
 7834SOL    HW135533   7.645   0.086   6.767
 7834SOL    HW235534   7.742   0.198   6.699
 7835SOL     OW35535   3.083   0.682   6.715
 7835SOL    HW135536   2.998   0.690   6.768
 7835SOL    HW235537   3.129   0.598   6.739
 7836SOL     OW35538   5.008   1.106   7.123
 7836SOL    HW135539   4.945   1.029   7.134
 7836SOL    HW235540   5.060   1.119   7.206
 7837SOL     OW35541   3.647   0.165   7.009
 7837SOL    HW135542   3.581   0.210   6.948
 7837SOL    HW235543   3.736   0.161   6.964
 7838SOL     OW35544   6.714   1.716   6.761
 7838SOL    HW135545   6.741   1.658   6.683
 7838SOL    HW235546   6.615   1.715   6.770
 7839SOL     OW35547   0.709   6.955   6.730
 7839SOL    HW135548   0.688   7.009   6.812
 7839SOL    HW235549   0.806   6.963   6.709
 7840SOL     OW35550   0.672   3.862   6.844
 7840SOL    HW135551   0.634   3.952   6.865
 7840SOL    HW235552   0.677   3.808   6.927
 7841SOL     OW35553   8.691   3.267   6.908
 7841SOL    HW135554   8.722   3.192   6.967
 7841SOL    HW235555   8.733   3.352   6.938
 7842SOL     OW35556   4.101   3.080   7.216
 7842SOL    HW135557   4.016   3.130   7.193
 7842SOL    HW235558   4.179   3.136   7.192
 7843SOL     OW35559   5.040   1.550   6.887
 7843SOL    HW135560   5.059   1.620   6.818
 7843SOL    HW235561   5.059   1.460   6.849
 7844SOL     OW35562   3.159   2.018   7.018
 7844SOL    HW135563   3.080   2.018   6.956
 7844SOL    HW235564   3.234   2.067   6.975
 7845SOL     OW35565   0.203   4.418   7.009
 7845SOL    HW135566   0.299   4.387   7.003
 7845SOL    HW235567   0.196   4.493   7.074
 7846SOL     OW35568   4.083   2.372   6.830
 7846SOL    HW135569   4.014   2.330   6.890
 7846SOL    HW235570   4.174   2.351   6.864
 7847SOL     OW35571   1.098   4.321   7.031
 7847SOL    HW135572   1.046   4.341   7.114
 7847SOL    HW235573   1.194   4.344   7.045
 7848SOL     OW35574   3.856   3.718   6.936
 7848SOL    HW135575   3.805   3.667   7.006
 7848SOL    HW235576   3.946   3.743   6.971
 7849SOL     OW35577   1.659   1.569   7.040
 7849SOL    HW135578   1.647   1.553   6.941
 7849SOL    HW235579   1.587   1.520   7.089
 7850SOL     OW35580   3.006   2.305   6.843
 7850SOL    HW135581   3.043   2.236   6.905
 7850SOL    HW235582   3.034   2.396   6.872
 7851SOL     OW35583   3.658   7.423   7.063
 7851SOL    HW135584   3.659   7.358   6.986
 7851SOL    HW235585   3.582   7.486   7.051
 7852SOL     OW35586   5.313   5.068   7.188
 7852SOL    HW135587   5.411   5.050   7.204
 7852SOL    HW235588   5.295   5.165   7.205
 7853SOL     OW35589   4.177   5.671   6.768
 7853SOL    HW135590   4.245   5.696   6.837
 7853SOL    HW235591   4.086   5.673   6.810
 7854SOL     OW35592   2.914   5.697   7.012
 7854SOL    HW135593   2.877   5.764   7.077
 7854SOL    HW235594   2.945   5.616   7.061
 7855SOL     OW35595   8.289   3.323   6.903
 7855SOL    HW135596   8.376   3.359   6.866
 7855SOL    HW235597   8.289   3.333   7.002
 7856SOL     OW35598   3.415   3.522   6.937
 7856SOL    HW135599   3.491   3.494   6.996
 7856SOL    HW235600   3.345   3.566   6.992
 7857SOL     OW35601   2.598   7.788   7.021
 7857SOL    HW135602   2.600   7.832   7.111
 7857SOL    HW235603   2.567   7.694   7.031
 7858SOL     OW35604   0.175   1.006   7.133
 7858SOL    HW135605   0.200   0.939   7.063
 7858SOL    HW235606   0.111   1.071   7.095
 7859SOL     OW35607   4.825   4.183   6.787
 7859SOL    HW135608   4.782   4.139   6.708
 7859SOL    HW235609   4.871   4.266   6.757
 7860SOL     OW35610   6.572   1.817   6.910
 7860SOL    HW135611   6.631   1.816   6.992
 7860SOL    HW235612   6.481   1.784   6.935
 7861SOL     OW35613   4.192   2.049   6.994
 7861SOL    HW135614   4.170   2.132   6.941
 7861SOL    HW235615   4.248   1.989   6.938
 7862SOL     OW35616   8.321   0.860   6.869
 7862SOL    HW135617   8.267   0.917   6.807
 7862SOL    HW235618   8.392   0.915   6.911
 7863SOL     OW35619   4.205  -0.004   7.045
 7863SOL    HW135620   4.154  -0.059   6.979
 7863SOL    HW235621   4.213   0.089   7.012
 7864SOL     OW35622   9.045   7.742   6.936
 7864SOL    HW135623   8.953   7.762   6.902
 7864SOL    HW235624   9.092   7.828   6.954
 7865SOL     OW35625   8.946   7.216   6.819
 7865SOL    HW135626   8.847   7.231   6.828
 7865SOL    HW235627   8.987   7.219   6.909
 7866SOL     OW35628   1.633   6.469   6.781
 7866SOL    HW135629   1.631   6.391   6.845
 7866SOL    HW235630   1.727   6.486   6.752
 7867SOL     OW35631   8.701   4.493   6.919
 7867SOL    HW135632   8.625   4.536   6.870
 7867SOL    HW235633   8.767   4.563   6.946
 7868SOL     OW35634   8.040   7.402   7.127
 7868SOL    HW135635   8.041   7.318   7.071
 7868SOL    HW235636   7.976   7.390   7.202
 7869SOL     OW35637   1.152   2.370   7.002
 7869SOL    HW135638   1.136   2.276   7.034
 7869SOL    HW235639   1.066   2.419   7.003
 7870SOL     OW35640   1.072   4.675   7.144
 7870SOL    HW135641   1.044   4.738   7.071
 7870SOL    HW235642   1.158   4.633   7.120
 7871SOL     OW35643   1.149   2.881   7.135
 7871SOL    HW135644   1.101   2.851   7.217
 7871SOL    HW235645   1.098   2.853   7.054
 7872SOL     OW35646   8.965   7.911   6.762
 7872SOL    HW135647   8.901   7.972   6.809
 7872SOL    HW235648   8.927   7.886   6.673
 7873SOL     OW35649   4.126   1.226   7.015
 7873SOL    HW135650   4.172   1.145   7.052
 7873SOL    HW235651   4.170   1.252   6.930
 7874SOL     OW35652   4.070   4.694   7.196
 7874SOL    HW135653   4.156   4.674   7.244
 7874SOL    HW235654   4.067   4.790   7.171
 7875SOL     OW35655   0.295   7.692   6.956
 7875SOL    HW135656   0.248   7.604   6.968
 7875SOL    HW235657   0.334   7.697   6.865
 7876SOL     OW35658   2.837   0.418   6.789
 7876SOL    HW135659   2.866   0.470   6.708
 7876SOL    HW235660   2.888   0.448   6.868
 7877SOL     OW35661   4.680   7.579   6.730
 7877SOL    HW135662   4.711   7.512   6.799
 7877SOL    HW235663   4.685   7.670   6.769
 7878SOL     OW35664   0.598   2.052   7.154
 7878SOL    HW135665   0.576   2.149   7.141
 7878SOL    HW235666   0.575   2.026   7.247
 7879SOL     OW35667   5.137   2.391   7.143
 7879SOL    HW135668   5.197   2.469   7.161
 7879SOL    HW235669   5.112   2.348   7.229
 7880SOL     OW35670   3.969   5.914   6.726
 7880SOL    HW135671   3.946   5.886   6.820
 7880SOL    HW235672   3.922   5.998   6.705
 7881SOL     OW35673   6.023   2.515   6.770
 7881SOL    HW135674   6.026   2.615   6.762
 7881SOL    HW235675   5.984   2.490   6.858
 7882SOL     OW35676   3.908   7.138   6.917
 7882SOL    HW135677   3.831   7.200   6.902
 7882SOL    HW235678   3.980   7.157   6.851
 7883SOL     OW35679   7.079   1.858   6.921
 7883SOL    HW135680   7.026   1.908   6.853
 7883SOL    HW235681   7.168   1.836   6.883
 7884SOL     OW35682   4.934   6.841   7.164
 7884SOL    HW135683   4.871   6.919   7.174
 7884SOL    HW235684   5.028   6.874   7.167
 7885SOL     OW35685   2.394   8.106   7.082
 7885SOL    HW135686   2.401   8.151   7.171
 7885SOL    HW235687   2.301   8.115   7.047
 7886SOL     OW35688   6.061   3.149   6.877
 7886SOL    HW135689   6.127   3.220   6.901
 7886SOL    HW235690   6.081   3.114   6.786
 7887SOL     OW35691   1.907   2.602   6.876
 7887SOL    HW135692   1.866   2.515   6.847
 7887SOL    HW235693   2.005   2.589   6.892
 7888SOL     OW35694   3.096   6.977   6.937
 7888SOL    HW135695   3.092   6.887   6.891
 7888SOL    HW235696   3.052   7.045   6.878
 7889SOL     OW35697   0.107   3.884   6.881
 7889SOL    HW135698   0.062   3.877   6.970
 7889SOL    HW235699   0.180   3.816   6.875
 7890SOL     OW35700   1.673   3.783   6.889
 7890SOL    HW135701   1.712   3.743   6.973
 7890SOL    HW235702   1.698   3.726   6.811
 7891SOL     OW35703   0.156   6.876   6.809
 7891SOL    HW135704   0.189   6.939   6.738
 7891SOL    HW235705   0.154   6.784   6.772
 7892SOL     OW35706   3.399   7.194   6.797
 7892SOL    HW135707   3.440   7.264   6.856
 7892SOL    HW235708   3.307   7.173   6.829
 7893SOL     OW35709   7.567   4.905   6.819
 7893SOL    HW135710   7.549   4.863   6.909
 7893SOL    HW235711   7.663   4.895   6.797
 7894SOL     OW35712   4.766   7.284   6.832
 7894SOL    HW135713   4.861   7.313   6.815
 7894SOL    HW235714   4.706   7.363   6.825
 7895SOL     OW35715   2.520   5.443   6.734
 7895SOL    HW135716   2.438   5.391   6.760
 7895SOL    HW235717   2.530   5.521   6.796
 7896SOL     OW35718   4.314   2.638   6.889
 7896SOL    HW135719   4.352   2.730   6.901
 7896SOL    HW235720   4.307   2.593   6.978
 7897SOL     OW35721   0.494   5.920   7.190
 7897SOL    HW135722   0.481   6.008   7.143
 7897SOL    HW235723   0.585   5.886   7.171
 7898SOL     OW35724   8.324   2.687   6.987
 7898SOL    HW135725   8.268   2.641   7.056
 7898SOL    HW235726   8.279   2.771   6.959
 7899SOL     OW35727   2.854   6.348   6.850
 7899SOL    HW135728   2.807   6.437   6.856
 7899SOL    HW235729   2.917   6.349   6.773
 7900SOL     OW35730   9.199   5.571   6.840
 7900SOL    HW135731   9.175   5.500   6.906
 7900SOL    HW235732   9.273   5.626   6.877
 7901SOL     OW35733   6.948   0.069   6.868
 7901SOL    HW135734   6.913  -0.009   6.920
 7901SOL    HW235735   6.947   0.046   6.771
 7902SOL     OW35736   2.042   2.234   7.082
 7902SOL    HW135737   2.056   2.190   7.171
 7902SOL    HW235738   2.106   2.197   7.016
 7903SOL     OW35739   6.830   3.509   6.856
 7903SOL    HW135740   6.794   3.581   6.797
 7903SOL    HW235741   6.924   3.487   6.828
 7904SOL     OW35742   7.829   6.834   6.776
 7904SOL    HW135743   7.740   6.790   6.757
 7904SOL    HW235744   7.878   6.847   6.691
 7905SOL     OW35745   8.591   8.035   6.828
 7905SOL    HW135746   8.570   7.938   6.810
 7905SOL    HW235747   8.526   8.071   6.894
 7906SOL     OW35748   6.158   5.387   7.003
 7906SOL    HW135749   6.072   5.366   7.051
 7906SOL    HW235750   6.235   5.364   7.061
 7907SOL     OW35751   1.995   8.181   6.737
 7907SOL    HW135752   2.055   8.129   6.799
 7907SOL    HW235753   1.964   8.264   6.782
 7908SOL     OW35754   4.779   1.358   6.926
 7908SOL    HW135755   4.795   1.307   7.011
 7908SOL    HW235756   4.831   1.443   6.928
 7909SOL     OW35757   0.556   1.525   7.096
 7909SOL    HW135758   0.630   1.506   7.030
 7909SOL    HW235759   0.475   1.473   7.071
 7910SOL     OW35760   7.379   1.088   6.807
 7910SOL    HW135761   7.448   1.123   6.871
 7910SOL    HW235762   7.288   1.100   6.846
 7911SOL     OW35763   6.115   6.869   7.146
 7911SOL    HW135764   6.096   6.950   7.203
 7911SOL    HW235765   6.030   6.826   7.121
 7912SOL     OW35766   6.480   1.483   6.816
 7912SOL    HW135767   6.490   1.583   6.819
 7912SOL    HW235768   6.417   1.455   6.888
 7913SOL     OW35769   6.329   3.391   7.017
 7913SOL    HW135770   6.283   3.394   7.106
 7913SOL    HW235771   6.428   3.389   7.031
 7914SOL     OW35772   2.701   1.486   7.091
 7914SOL    HW135773   2.716   1.457   7.186
 7914SOL    HW235774   2.724   1.582   7.082
 7915SOL     OW35775   5.048   4.702   7.066
 7915SOL    HW135776   5.053   4.745   6.975
 7915SOL    HW235777   5.120   4.739   7.124
 7916SOL     OW35778   3.300   1.459   6.880
 7916SOL    HW135779   3.247   1.379   6.908
 7916SOL    HW235780   3.392   1.452   6.914
 7917SOL     OW35781   3.936   5.349   7.053
 7917SOL    HW135782   3.855   5.403   7.030
 7917SOL    HW235783   3.918   5.253   7.032
 7918SOL     OW35784   6.959   7.166   7.167
 7918SOL    HW135785   7.053   7.200   7.164
 7918SOL    HW235786   6.938   7.134   7.258
 7919SOL     OW35787   5.197   5.837   6.803
 7919SOL    HW135788   5.180   5.929   6.839
 7919SOL    HW235789   5.241   5.782   6.873
 7920SOL     OW35790   7.243   7.839   7.074
 7920SOL    HW135791   7.317   7.800   7.017
 7920SOL    HW235792   7.283   7.898   7.143
 7921SOL     OW35793   1.489   1.970   6.739
 7921SOL    HW135794   1.545   1.924   6.808
 7921SOL    HW235795   1.456   2.057   6.774
 7922SOL     OW35796   8.957   7.568   7.118
 7922SOL    HW135797   8.972   7.474   7.087
 7922SOL    HW235798   8.859   7.588   7.115
 7923SOL     OW35799   3.265   1.230   6.775
 7923SOL    HW135800   3.212   1.165   6.831
 7923SOL    HW235801   3.331   1.276   6.833
 7924SOL     OW35802   9.125   7.359   6.758
 7924SOL    HW135803   9.086   7.322   6.673
 7924SOL    HW235804   9.060   7.345   6.832
 7925SOL     OW35805   4.362   7.149   7.111
 7925SOL    HW135806   4.425   7.080   7.074
 7925SOL    HW235807   4.371   7.233   7.059
 7926SOL     OW35808   0.707   3.607   7.187
 7926SOL    HW135809   0.694   3.619   7.089
 7926SOL    HW235810   0.800   3.632   7.212
 7927SOL     OW35811   4.889   7.087   6.794
 7927SOL    HW135812   4.964   7.153   6.790
 7927SOL    HW235813   4.912   7.015   6.858
 7928SOL     OW35814   4.785   3.094   6.941
 7928SOL    HW135815   4.715   3.145   6.992
 7928SOL    HW235816   4.819   3.019   6.996
 7929SOL     OW35817   0.277   0.642   7.101
 7929SOL    HW135818   0.278   0.696   7.017
 7929SOL    HW235819   0.202   0.672   7.159
 7930SOL     OW35820   0.448   0.444   7.002
 7930SOL    HW135821   0.472   0.356   7.044
 7930SOL    HW235822   0.482   0.518   7.059
 7931SOL     OW35823   7.952   7.193   6.722
 7931SOL    HW135824   8.008   7.214   6.803
 7931SOL    HW235825   7.880   7.261   6.712
 7932SOL     OW35826   9.097   2.430   7.021
 7932SOL    HW135827   9.044   2.514   7.037
 7932SOL    HW235828   9.100   2.412   6.924
 7933SOL     OW35829   3.374   4.389   7.031
 7933SOL    HW135830   3.329   4.320   6.973
 7933SOL    HW235831   3.351   4.480   6.998
 7934SOL     OW35832   2.185   7.983   7.217
 7934SOL    HW135833   2.177   7.997   7.117
 7934SOL    HW235834   2.274   7.946   7.238
 7935SOL     OW35835   5.560   3.410   7.166
 7935SOL    HW135836   5.596   3.502   7.145
 7935SOL    HW235837   5.575   3.391   7.262
 7936SOL     OW35838   6.348   7.759   7.173
 7936SOL    HW135839   6.351   7.831   7.243
 7936SOL    HW235840   6.259   7.715   7.176
 7937SOL     OW35841   0.475   5.136   6.825
 7937SOL    HW135842   0.500   5.069   6.896
 7937SOL    HW235843   0.413   5.203   6.863
 7938SOL     OW35844   4.099   7.207   7.120
 7938SOL    HW135845   4.103   7.163   7.029
 7938SOL    HW235846   4.032   7.281   7.117
 7939SOL     OW35847   5.776   5.973   6.901
 7939SOL    HW135848   5.855   5.916   6.875
 7939SOL    HW235849   5.703   5.960   6.834
 7940SOL     OW35850   7.385   1.318   6.798
 7940SOL    HW135851   7.469   1.345   6.846
 7940SOL    HW235852   7.339   1.247   6.851
 7941SOL     OW35853   2.192   2.074   7.107
 7941SOL    HW135854   2.108   2.031   7.139
 7941SOL    HW235855   2.262   2.004   7.094
 7942SOL     OW35856   8.330   6.382   7.193
 7942SOL    HW135857   8.293   6.377   7.100
 7942SOL    HW235858   8.365   6.474   7.209
 7943SOL     OW35859   2.430   4.121   7.050
 7943SOL    HW135860   2.379   4.206   7.033
 7943SOL    HW235861   2.490   4.102   6.973
 7944SOL     OW35862   6.580   2.526   6.807
 7944SOL    HW135863   6.509   2.547   6.739
 7944SOL    HW235864   6.669   2.536   6.765
 7945SOL     OW35865   5.708   3.228   6.927
 7945SOL    HW135866   5.609   3.237   6.919
 7945SOL    HW235867   5.751   3.260   6.843
 7946SOL     OW35868   2.309   1.798   6.812
 7946SOL    HW135869   2.352   1.707   6.805
 7946SOL    HW235870   2.343   1.844   6.894
 7947SOL     OW35871   3.059   3.154   7.158
 7947SOL    HW135872   3.021   3.247   7.149
 7947SOL    HW235873   2.992   3.088   7.125
 7948SOL     OW35874   4.770   2.791   6.862
 7948SOL    HW135875   4.816   2.815   6.949
 7948SOL    HW235876   4.684   2.746   6.882
 7949SOL     OW35877   3.419   5.459   6.905
 7949SOL    HW135878   3.388   5.391   6.973
 7949SOL    HW235879   3.512   5.486   6.927
 7950SOL     OW35880   5.012   0.053   6.945
 7950SOL    HW135881   4.963   0.110   6.878
 7950SOL    HW235882   5.083   0.001   6.898
 7951SOL     OW35883   5.825   5.106   6.780
 7951SOL    HW135884   5.832   5.021   6.728
 7951SOL    HW235885   5.834   5.183   6.718
 7952SOL     OW35886   9.016   0.637   7.172
 7952SOL    HW135887   8.973   0.683   7.250
 7952SOL    HW235888   8.959   0.560   7.143
 7953SOL     OW35889   5.258   6.045   7.001
 7953SOL    HW135890   5.269   6.118   7.070
 7953SOL    HW235891   5.161   6.023   6.991
 7954SOL     OW35892   2.344   0.163   6.979
 7954SOL    HW135893   2.397   0.203   7.054
 7954SOL    HW235894   2.258   0.127   7.015
 7955SOL     OW35895   5.881   1.717   6.764
 7955SOL    HW135896   5.882   1.816   6.747
 7955SOL    HW235897   5.913   1.700   6.857
 7956SOL     OW35898   5.420   6.469   6.847
 7956SOL    HW135899   5.500   6.510   6.891
 7956SOL    HW235900   5.438   6.373   6.830
 7957SOL     OW35901   3.765   6.614   6.892
 7957SOL    HW135902   3.811   6.692   6.849
 7957SOL    HW235903   3.776   6.534   6.835
 7958SOL     OW35904   2.892   6.020   6.773
 7958SOL    HW135905   2.910   6.008   6.675
 7958SOL    HW235906   2.954   6.089   6.809
 7959SOL     OW35907   9.507   3.867   7.186
 7959SOL    HW135908   9.441   3.833   7.253
 7959SOL    HW235909   9.464   3.874   7.097
 7960SOL     OW35910   3.207   6.937   7.131
 7960SOL    HW135911   3.107   6.938   7.126
 7960SOL    HW235912   3.237   7.007   7.195
 7961SOL     OW35913   7.081   1.635   6.916
 7961SOL    HW135914   7.105   1.550   6.868
 7961SOL    HW235915   7.051   1.703   6.850
 7962SOL     OW35916   7.291   5.730   7.210
 7962SOL    HW135917   7.293   5.658   7.140
 7962SOL    HW235918   7.207   5.783   7.200
 7963SOL     OW35919   2.546   5.710   6.898
 7963SOL    HW135920   2.497   5.755   6.823
 7963SOL    HW235921   2.614   5.772   6.935
 7964SOL     OW35922   7.511   7.807   7.220
 7964SOL    HW135923   7.457   7.827   7.137
 7964SOL    HW235924   7.525   7.709   7.226
 7965SOL     OW35925   8.104   5.221   7.225
 7965SOL    HW135926   8.170   5.244   7.152
 7965SOL    HW235927   8.019   5.190   7.184
 7966SOL     OW35928   0.854   0.748   6.864
 7966SOL    HW135929   0.840   0.735   6.963
 7966SOL    HW235930   0.948   0.724   6.841
 7967SOL     OW35931   4.937   5.402   7.199
 7967SOL    HW135932   4.891   5.489   7.181
 7967SOL    HW235933   5.003   5.384   7.126
 7968SOL     OW35934   0.694   4.224   6.965
 7968SOL    HW135935   0.685   4.164   7.045
 7968SOL    HW235936   0.614   4.213   6.907
 7969SOL     OW35937   1.824   2.385   7.207
 7969SOL    HW135938   1.890   2.311   7.192
 7969SOL    HW235939   1.733   2.354   7.180
 7970SOL     OW35940   7.094   7.060   6.983
 7970SOL    HW135941   7.141   7.130   6.930
 7970SOL    HW235942   7.158   6.987   7.005
 7971SOL     OW35943   6.426   8.376   6.976
 7971SOL    HW135944   6.511   8.408   7.020
 7971SOL    HW235945   6.410   8.281   7.002
 7972SOL     OW35946   3.021   2.488   7.076
 7972SOL    HW135947   2.977   2.577   7.059
 7972SOL    HW235948   3.113   2.503   7.110
 7973SOL     OW35949   0.877   6.316   6.761
 7973SOL    HW135950   0.917   6.243   6.818
 7973SOL    HW235951   0.867   6.398   6.816
 7974SOL     OW35952   5.446   0.785   7.156
 7974SOL    HW135953   5.389   0.775   7.238
 7974SOL    HW235954   5.540   0.761   7.178
 7975SOL     OW35955   6.293   4.087   7.069
 7975SOL    HW135956   6.209   4.100   7.015
 7975SOL    HW235957   6.349   4.169   7.063
 7976SOL     OW35958   3.335   0.473   7.129
 7976SOL    HW135959   3.258   0.499   7.188
 7976SOL    HW235960   3.391   0.405   7.175
 7977SOL     OW35961   9.094   0.201   7.101
 7977SOL    HW135962   9.191   0.174   7.095
 7977SOL    HW235963   9.061   0.224   7.011
 7978SOL     OW35964   0.192   2.701   7.026
 7978SOL    HW135965   0.164   2.624   7.085
 7978SOL    HW235966   0.272   2.745   7.066
 7979SOL     OW35967   8.385   1.081   7.061
 7979SOL    HW135968   8.314   1.033   7.009
 7979SOL    HW235969   8.447   1.126   6.997
 7980SOL     OW35970   1.102   6.303   7.179
 7980SOL    HW135971   1.039   6.227   7.190
 7980SOL    HW235972   1.053   6.389   7.188
 7981SOL     OW35973   8.432   5.705   7.153
 7981SOL    HW135974   8.488   5.682   7.233
 7981SOL    HW235975   8.370   5.779   7.177
 7982SOL     OW35976   4.448   6.220   7.134
 7982SOL    HW135977   4.425   6.175   7.047
 7982SOL    HW235978   4.462   6.317   7.118
 7983SOL     OW35979   7.395   2.067   6.831
 7983SOL    HW135980   7.438   2.009   6.761
 7983SOL    HW235981   7.316   2.113   6.791
 7984SOL     OW35982   8.499   1.772   6.796
 7984SOL    HW135983   8.540   1.726   6.717
 7984SOL    HW235984   8.419   1.823   6.766
 7985SOL     OW35985   1.963   0.465   7.160
 7985SOL    HW135986   2.055   0.503   7.155
 7985SOL    HW235987   1.911   0.493   7.079
 7986SOL     OW35988   2.916   6.188   7.097
 7986SOL    HW135989   2.909   6.287   7.085
 7986SOL    HW235990   2.975   6.150   7.026
 7987SOL     OW35991   6.052   2.452   7.075
 7987SOL    HW135992   6.052   2.375   7.011
 7987SOL    HW235993   5.976   2.512   7.054
 7988SOL     OW35994   4.116   6.705   6.812
 7988SOL    HW135995   4.159   6.766   6.879
 7988SOL    HW235996   4.040   6.658   6.855
 7989SOL     OW35997   7.058   5.549   7.140
 7989SOL    HW135998   6.962   5.577   7.133
 7989SOL    HW235999   7.066   5.452   7.118
 7990SOL     OW36000   2.017   8.515   6.914
 7990SOL    HW136001   1.924   8.553   6.927
 7990SOL    HW236002   2.009   8.424   6.875
 7991SOL     OW36003   0.792   7.341   6.910
 7991SOL    HW136004   0.750   7.298   6.829
 7991SOL    HW236005   0.724   7.398   6.956
 7992SOL     OW36006   0.734   7.994   6.790
 7992SOL    HW136007   0.675   7.985   6.709
 7992SOL    HW236008   0.809   7.930   6.784
 7993SOL     OW36009   8.798   6.880   6.924
 7993SOL    HW136010   8.897   6.877   6.904
 7993SOL    HW236011   8.776   6.809   6.990
 7994SOL     OW36012   0.641   0.229   7.018
 7994SOL    HW136013   0.706   0.189   6.953
 7994SOL    HW236014   0.665   0.324   7.034
 7995SOL     OW36015   8.882   2.390   6.959
 7995SOL    HW136016   8.828   2.328   7.017
 7995SOL    HW236017   8.919   2.339   6.882
 7996SOL     OW36018   8.967   4.337   7.035
 7996SOL    HW136019   8.876   4.376   7.050
 7996SOL    HW236020   9.026   4.362   7.111
 7997SOL     OW36021   0.632   8.167   6.956
 7997SOL    HW136022   0.557   8.204   6.901
 7997SOL    HW236023   0.715   8.165   6.902
 7998SOL     OW36024   6.574   6.183   7.211
 7998SOL    HW136025   6.647   6.167   7.144
 7998SOL    HW236026   6.492   6.134   7.182
 7999SOL     OW36027   8.540   2.576   6.786
 7999SOL    HW136028   8.562   2.620   6.874
 7999SOL    HW236029   8.441   2.565   6.778
 8000SOL     OW36030   5.421   1.876   6.856
 8000SOL    HW136031   5.377   1.964   6.877
 8000SOL    HW236032   5.518   1.882   6.874
 8001SOL     OW36033   0.494   2.320   6.990
 8001SOL    HW136034   0.513   2.253   6.917
 8001SOL    HW236035   0.511   2.279   7.078
 8002SOL     OW36036   1.315   2.742   7.028
 8002SOL    HW136037   1.336   2.785   6.940
 8002SOL    HW236038   1.374   2.780   7.098
 8003SOL     OW36039   4.014   7.665   6.745
 8003SOL    HW136040   4.019   7.731   6.820
 8003SOL    HW236041   4.103   7.623   6.732
 8004SOL     OW36042   2.813   3.558   7.120
 8004SOL    HW136043   2.838   3.601   7.033
 8004SOL    HW236044   2.790   3.463   7.104
 8005SOL     OW36045   4.726   0.927   6.744
 8005SOL    HW136046   4.714   1.001   6.811
 8005SOL    HW236047   4.745   0.842   6.792
 8006SOL     OW36048   3.219   0.904   6.900
 8006SOL    HW136049   3.219   0.895   6.799
 8006SOL    HW236050   3.231   0.814   6.940
 8007SOL     OW36051   8.895   0.119   6.830
 8007SOL    HW136052   8.962   0.115   6.755
 8007SOL    HW236053   8.805   0.100   6.794
 8008SOL     OW36054   7.865   8.392   6.892
 8008SOL    HW136055   7.862   8.338   6.977
 8008SOL    HW236056   7.864   8.489   6.914
 8009SOL     OW36057   6.247   2.908   6.774
 8009SOL    HW136058   6.229   2.996   6.728
 8009SOL    HW236059   6.166   2.851   6.767
 8010SOL     OW36060   5.698   2.806   6.919
 8010SOL    HW136061   5.622   2.782   6.856
 8010SOL    HW236062   5.666   2.873   6.985
 8011SOL     OW36063   6.193   4.608   6.722
 8011SOL    HW136064   6.251   4.691   6.715
 8011SOL    HW236065   6.111   4.629   6.774
 8012SOL     OW36066   2.780   2.182   6.974
 8012SOL    HW136067   2.782   2.110   7.045
 8012SOL    HW236068   2.803   2.269   7.015
 8013SOL     OW36069   3.479   5.140   6.951
 8013SOL    HW136070   3.564   5.122   7.001
 8013SOL    HW236071   3.411   5.179   7.013
 8014SOL     OW36072   3.215   6.794   6.873
 8014SOL    HW136073   3.274   6.815   6.794
 8014SOL    HW236074   3.271   6.787   6.955
 8015SOL     OW36075   1.308   3.306   7.107
 8015SOL    HW136076   1.209   3.303   7.123
 8015SOL    HW236077   1.345   3.390   7.146
 8016SOL     OW36078   5.142   2.676   6.937
 8016SOL    HW136079   5.184   2.602   6.990
 8016SOL    HW236080   5.044   2.677   6.953
 8017SOL     OW36081   6.235   1.918   7.147
 8017SOL    HW136082   6.143   1.942   7.116
 8017SOL    HW236083   6.276   1.996   7.193
 8018SOL     OW36084   2.373   5.646   7.093
 8018SOL    HW136085   2.409   5.666   7.185
 8018SOL    HW236086   2.444   5.660   7.026
 8019SOL     OW36087   8.009   1.654   6.768
 8019SOL    HW136088   7.935   1.613   6.823
 8019SOL    HW236089   8.069   1.707   6.826
 8020SOL     OW36090   7.845   5.851   7.145
 8020SOL    HW136091   7.840   5.802   7.057
 8020SOL    HW236092   7.867   5.947   7.127
 8021SOL     OW36093   9.466   5.519   6.870
 8021SOL    HW136094   9.540   5.512   6.802
 8021SOL    HW236095   9.380   5.494   6.828
 8022SOL     OW36096   5.149   5.726   7.031
 8022SOL    HW136097   5.075   5.683   7.082
 8022SOL    HW236098   5.175   5.812   7.074
 8023SOL     OW36099   2.145   4.718   6.779
 8023SOL    HW136100   2.215   4.762   6.836
 8023SOL    HW236101   2.063   4.702   6.833
 8024SOL     OW36102   4.030   5.367   6.835
 8024SOL    HW136103   4.082   5.301   6.889
 8024SOL    HW236104   4.013   5.448   6.891
 8025SOL     OW36105   4.550   6.713   7.011
 8025SOL    HW136106   4.571   6.771   6.932
 8025SOL    HW236107   4.549   6.618   6.982
 8026SOL     OW36108   7.231   6.201   7.176
 8026SOL    HW136109   7.225   6.149   7.262
 8026SOL    HW236110   7.156   6.174   7.116
 8027SOL     OW36111   5.626   1.449   6.802
 8027SOL    HW136112   5.664   1.363   6.838
 8027SOL    HW236113   5.665   1.468   6.713
 8028SOL     OW36114   3.169   4.945   7.078
 8028SOL    HW136115   3.121   4.888   7.145
 8028SOL    HW236116   3.267   4.931   7.086
 8029SOL     OW36117   4.662   2.386   7.153
 8029SOL    HW136118   4.654   2.365   7.251
 8029SOL    HW236119   4.595   2.334   7.102
 8030SOL     OW36120   5.952   0.327   6.711
 8030SOL    HW136121   6.001   0.410   6.739
 8030SOL    HW236122   5.898   0.293   6.787
 8031SOL     OW36123   3.076   2.690   7.145
 8031SOL    HW136124   3.065   2.603   7.194
 8031SOL    HW236125   3.129   2.753   7.200
 8032SOL     OW36126   8.675   7.541   7.087
 8032SOL    HW136127   8.758   7.509   7.041
 8032SOL    HW236128   8.648   7.629   7.050
 8033SOL     OW36129   3.750   1.622   6.882
 8033SOL    HW136130   3.838   1.601   6.926
 8033SOL    HW236131   3.681   1.637   6.953
 8034SOL     OW36132   1.783   1.594   6.808
 8034SOL    HW136133   1.795   1.692   6.789
 8034SOL    HW236134   1.872   1.552   6.818
 8035SOL     OW36135   5.053   6.685   6.840
 8035SOL    HW136136   5.054   6.589   6.808
 8035SOL    HW236137   5.092   6.689   6.931
 8036SOL     OW36138   1.785   1.249   6.932
 8036SOL    HW136139   1.715   1.181   6.955
 8036SOL    HW236140   1.873   1.218   6.965
 8037SOL     OW36141   8.286   1.507   6.957
 8037SOL    HW136142   8.356   1.441   6.985
 8037SOL    HW236143   8.200   1.484   7.000
 8038SOL     OW36144   3.278   2.328   6.801
 8038SOL    HW136145   3.230   2.378   6.874
 8038SOL    HW236146   3.320   2.247   6.840
 8039SOL     OW36147   7.824   4.170   7.149
 8039SOL    HW136148   7.886   4.197   7.224
 8039SOL    HW236149   7.731   4.168   7.182
 8040SOL     OW36150   2.258   4.073   6.829
 8040SOL    HW136151   2.287   4.021   6.748
 8040SOL    HW236152   2.218   4.160   6.800
 8041SOL     OW36153   7.987   1.385   6.724
 8041SOL    HW136154   7.976   1.297   6.677
 8041SOL    HW236155   8.030   1.370   6.813
 8042SOL     OW36156   2.815   7.606   6.763
 8042SOL    HW136157   2.900   7.556   6.746
 8042SOL    HW236158   2.827   7.701   6.735
 8043SOL     OW36159   2.384   8.037   6.890
 8043SOL    HW136160   2.401   7.939   6.871
 8043SOL    HW236161   2.290   8.059   6.865
 8044SOL     OW36162   4.370   1.780   7.204
 8044SOL    HW136163   4.351   1.805   7.109
 8044SOL    HW236164   4.346   1.855   7.264
 8045SOL     OW36165   4.474   4.351   6.777
 8045SOL    HW136166   4.468   4.316   6.871
 8045SOL    HW236167   4.407   4.304   6.720
 8046SOL     OW36168   3.446   3.195   7.035
 8046SOL    HW136169   3.386   3.204   7.115
 8046SOL    HW236170   3.442   3.102   7.002
 8047SOL     OW36171   5.918   7.213   6.759
 8047SOL    HW136172   6.001   7.210   6.703
 8047SOL    HW236173   5.908   7.304   6.798
 8048SOL     OW36174   2.023   3.620   7.125
 8048SOL    HW136175   2.103   3.617   7.065
 8048SOL    HW236176   2.034   3.694   7.191
 8049SOL     OW36177   8.077   0.665   6.823
 8049SOL    HW136178   8.109   0.572   6.844
 8049SOL    HW236179   7.979   0.670   6.837
 8050SOL     OW36180   1.278   3.948   6.864
 8050SOL    HW136181   1.178   3.950   6.866
 8050SOL    HW236182   1.310   3.979   6.775
 8051SOL     OW36183   6.103   0.525   6.867
 8051SOL    HW136184   6.069   0.431   6.870
 8051SOL    HW236185   6.065   0.571   6.787
 8052SOL     OW36186   4.440   6.503   6.830
 8052SOL    HW136187   4.495   6.576   6.789
 8052SOL    HW236188   4.466   6.416   6.789
 8053SOL     OW36189   1.393   8.173   6.975
 8053SOL    HW136190   1.308   8.194   6.926
 8053SOL    HW236191   1.443   8.258   6.991
 8054SOL     OW36192   0.996   2.692   7.147
 8054SOL    HW136193   1.060   2.688   7.224
 8054SOL    HW236194   0.916   2.745   7.173
 8055SOL     OW36195   1.920   1.069   6.771
 8055SOL    HW136196   1.916   1.162   6.810
 8055SOL    HW236197   1.912   1.002   6.845
 8056SOL     OW36198   1.139   8.390   6.774
 8056SOL    HW136199   1.057   8.430   6.733
 8056SOL    HW236200   1.122   8.370   6.870
 8057SOL     OW36201   0.579   6.451   7.096
 8057SOL    HW136202   0.654   6.478   7.156
 8057SOL    HW236203   0.493   6.451   7.147
 8058SOL     OW36204   1.931   6.631   7.123
 8058SOL    HW136205   1.875   6.687   7.061
 8058SOL    HW236206   1.906   6.535   7.113
 8059SOL     OW36207   5.222   7.782   7.085
 8059SOL    HW136208   5.218   7.777   6.985
 8059SOL    HW236209   5.139   7.743   7.124
 8060SOL     OW36210   1.043   1.343   6.805
 8060SOL    HW136211   1.027   1.281   6.728
 8060SOL    HW236212   1.037   1.437   6.774
 8061SOL     OW36213   1.747   6.229   7.045
 8061SOL    HW136214   1.684   6.239   6.967
 8061SOL    HW236215   1.840   6.218   7.012
 8062SOL     OW36216   5.229   6.909   7.023
 8062SOL    HW136217   5.327   6.911   7.045
 8062SOL    HW236218   5.218   6.901   6.924
 8063SOL     OW36219   7.979   4.703   6.790
 8063SOL    HW136220   7.980   4.762   6.871
 8063SOL    HW236221   8.072   4.677   6.767
 8064SOL     OW36222   7.161   1.313   6.849
 8064SOL    HW136223   7.170   1.213   6.850
 8064SOL    HW236224   7.134   1.344   6.940
 8065SOL     OW36225   8.477   6.677   7.136
 8065SOL    HW136226   8.393   6.638   7.175
 8065SOL    HW236227   8.459   6.709   7.043
 8066SOL     OW36228   3.294   4.156   6.970
 8066SOL    HW136229   3.273   4.058   6.979
 8066SOL    HW236230   3.247   4.205   7.042
 8067SOL     OW36231   4.963   0.253   7.111
 8067SOL    HW136232   4.887   0.203   7.066
 8067SOL    HW236233   4.926   0.310   7.183
 8068SOL     OW36234   6.822   4.398   6.828
 8068SOL    HW136235   6.889   4.324   6.818
 8068SOL    HW236236   6.748   4.368   6.888
 8069SOL     OW36237   2.151   2.438   7.111
 8069SOL    HW136238   2.171   2.346   7.074
 8069SOL    HW236239   2.063   2.468   7.076
 8070SOL     OW36240   1.313   6.885   6.966
 8070SOL    HW136241   1.274   6.835   6.888
 8070SOL    HW236242   1.341   6.975   6.937
 8071SOL     OW36243   8.939   6.781   6.741
 8071SOL    HW136244   8.942   6.880   6.722
 8071SOL    HW236245   8.860   6.761   6.797
 8072SOL     OW36246   5.415   8.406   6.877
 8072SOL    HW136247   5.438   8.314   6.844
 8072SOL    HW236248   5.414   8.470   6.801
 8073SOL     OW36249   7.168   1.939   6.758
 8073SOL    HW136250   7.097   1.988   6.706
 8073SOL    HW236251   7.255   1.986   6.747
 8074SOL     OW36252   3.362   0.083   6.915
 8074SOL    HW136253   3.426   0.132   6.974
 8074SOL    HW236254   3.354   0.131   6.828
 8075SOL     OW36255   8.730   7.800   6.822
 8075SOL    HW136256   8.678   7.792   6.908
 8075SOL    HW236257   8.714   7.718   6.767
 8076SOL     OW36258   3.901   4.404   6.714
 8076SOL    HW136259   3.827   4.403   6.782
 8076SOL    HW236260   3.980   4.451   6.752
 8077SOL     OW36261   5.299   4.873   7.068
 8077SOL    HW136262   5.216   4.879   7.013
 8077SOL    HW236263   5.379   4.871   7.008
 8078SOL     OW36264   0.940   3.446   7.142
 8078SOL    HW136265   0.903   3.539   7.131
 8078SOL    HW236266   1.006   3.428   7.070
 8079SOL     OW36267   3.396   0.651   6.906
 8079SOL    HW136268   3.412   0.698   6.819
 8079SOL    HW236269   3.403   0.553   6.893
 8080SOL     OW36270   6.075   0.986   7.109
 8080SOL    HW136271   6.114   1.049   7.040
 8080SOL    HW236272   6.064   0.896   7.068
 8081SOL     OW36273   0.545   7.661   7.106
 8081SOL    HW136274   0.578   7.586   7.164
 8081SOL    HW236275   0.491   7.724   7.160
 8082SOL     OW36276   2.861   2.445   6.823
 8082SOL    HW136277   2.797   2.522   6.831
 8082SOL    HW236278   2.932   2.467   6.757
 8083SOL     OW36279   4.501   0.687   6.860
 8083SOL    HW136280   4.430   0.698   6.930
 8083SOL    HW236281   4.579   0.640   6.899
 8084SOL     OW36282   0.372   2.623   6.952
 8084SOL    HW136283   0.409   2.532   6.930
 8084SOL    HW236284   0.315   2.655   6.878
 8085SOL     OW36285   3.748   2.967   7.085
 8085SOL    HW136286   3.801   2.882   7.090
 8085SOL    HW236287   3.798   3.039   7.132
 8086SOL     OW36288   1.212   5.951   6.997
 8086SOL    HW136289   1.245   5.856   6.997
 8086SOL    HW236290   1.112   5.950   6.999
 8087SOL     OW36291   5.530   6.750   6.897
 8087SOL    HW136292   5.505   6.814   6.970
 8087SOL    HW236293   5.466   6.674   6.896
 8088SOL     OW36294   2.072   6.417   6.930
 8088SOL    HW136295   2.148   6.445   6.989
 8088SOL    HW236296   2.033   6.497   6.886
 8089SOL     OW36297   2.352   6.394   7.102
 8089SOL    HW136298   2.317   6.393   7.196
 8089SOL    HW236299   2.279   6.423   7.040
 8090SOL     OW36300   8.044   3.202   7.145
 8090SOL    HW136301   8.014   3.125   7.089
 8090SOL    HW236302   7.969   3.266   7.158
 8091SOL     OW36303   8.070   0.154   6.817
 8091SOL    HW136304   7.974   0.127   6.814
 8091SOL    HW236305   8.116   0.108   6.892
 8092SOL     OW36306   2.715   3.109   7.040
 8092SOL    HW136307   2.794   3.139   7.094
 8092SOL    HW236308   2.631   3.136   7.086
 8093SOL     OW36309   8.862   5.431   7.063
 8093SOL    HW136310   8.922   5.385   6.997
 8093SOL    HW236311   8.777   5.380   7.072
 8094SOL     OW36312   4.564   2.125   7.163
 8094SOL    HW136313   4.602   2.044   7.118
 8094SOL    HW236314   4.629   2.157   7.231
 8095SOL     OW36315   1.851   5.840   6.784
 8095SOL    HW136316   1.936   5.893   6.785
 8095SOL    HW236317   1.825   5.817   6.877
 8096SOL     OW36318   6.001   0.650   7.083
 8096SOL    HW136319   5.929   0.581   7.071
 8096SOL    HW236320   5.961   0.735   7.114
 8097SOL     OW36321   1.477   1.101   7.059
 8097SOL    HW136322   1.575   1.124   7.051
 8097SOL    HW236323   1.424   1.158   6.998
 8098SOL     OW36324   9.379   4.065   7.022
 8098SOL    HW136325   9.431   4.068   6.936
 8098SOL    HW236326   9.442   4.051   7.098
 8099SOL     OW36327   4.573   2.836   7.154
 8099SOL    HW136328   4.511   2.820   7.076
 8099SOL    HW236329   4.599   2.749   7.193
 8100SOL     OW36330   5.166   1.832   6.987
 8100SOL    HW136331   5.202   1.906   7.045
 8100SOL    HW236332   5.098   1.780   7.037
 8101SOL     OW36333   3.076   2.143   7.165
 8101SOL    HW136334   2.978   2.164   7.155
 8101SOL    HW236335   3.086   2.050   7.198
 8102SOL     OW36336   6.165   4.856   7.129
 8102SOL    HW136337   6.094   4.789   7.152
 8102SOL    HW236338   6.132   4.947   7.152
 8103SOL     OW36339   2.544   2.685   6.896
 8103SOL    HW136340   2.524   2.707   6.992
 8103SOL    HW236341   2.582   2.766   6.852
 8104SOL     OW36342   1.191   0.665   6.986
 8104SOL    HW136343   1.263   0.628   7.045
 8104SOL    HW236344   1.174   0.760   7.010
 8105SOL     OW36345   2.114   2.887   6.908
 8105SOL    HW136346   2.021   2.889   6.868
 8105SOL    HW236347   2.112   2.836   6.993
 8106SOL     OW36348   0.802   8.241   6.729
 8106SOL    HW136349   0.894   8.240   6.770
 8106SOL    HW236350   0.736   8.271   6.797
 8107SOL     OW36351   4.813   8.076   6.853
 8107SOL    HW136352   4.812   8.157   6.913
 8107SOL    HW236353   4.762   8.002   6.897
 8108SOL     OW36354   5.567   0.504   7.225
 8108SOL    HW136355   5.547   0.459   7.137
 8108SOL    HW236356   5.556   0.602   7.215
 8109SOL     OW36357   7.453   4.667   7.152
 8109SOL    HW136358   7.405   4.578   7.148
 8109SOL    HW236359   7.389   4.737   7.182
 8110SOL     OW36360   4.309   5.812   7.140
 8110SOL    HW136361   4.373   5.826   7.063
 8110SOL    HW236362   4.326   5.723   7.180
 8111SOL     OW36363   7.578   5.831   6.803
 8111SOL    HW136364   7.664   5.831   6.854
 8111SOL    HW236365   7.505   5.799   6.861
 8112SOL     OW36366   2.099   5.972   6.836
 8112SOL    HW136367   2.151   6.030   6.772
 8112SOL    HW236368   2.141   5.976   6.925
 8113SOL     OW36369   7.704   4.939   7.002
 8113SOL    HW136370   7.629   4.951   7.068
 8113SOL    HW236371   7.772   5.009   7.017
 8114SOL     OW36372   8.528   4.147   7.064
 8114SOL    HW136373   8.448   4.191   7.107
 8114SOL    HW236374   8.599   4.134   7.132
 8115SOL     OW36375   5.306   6.415   7.103
 8115SOL    HW136376   5.305   6.508   7.141
 8115SOL    HW236377   5.342   6.417   7.011
 8116SOL     OW36378   1.459   2.272   6.882
 8116SOL    HW136379   1.439   2.362   6.843
 8116SOL    HW236380   1.485   2.209   6.810
 8117SOL     OW36381   8.666   8.314   6.941
 8117SOL    HW136382   8.650   8.413   6.941
 8117SOL    HW236383   8.712   8.287   7.025
 8118SOL     OW36384   6.462   5.515   6.818
 8118SOL    HW136385   6.529   5.590   6.827
 8118SOL    HW236386   6.389   5.528   6.885
 8119SOL     OW36387   4.906   8.384   7.030
 8119SOL    HW136388   4.974   8.318   6.994
 8119SOL    HW236389   4.889   8.364   7.125
 8120SOL     OW36390   3.134   1.283   6.986
 8120SOL    HW136391   3.186   1.306   7.068
 8120SOL    HW236392   3.049   1.336   6.985
 8121SOL     OW36393   7.446   5.239   7.066
 8121SOL    HW136394   7.359   5.218   7.020
 8121SOL    HW236395   7.433   5.317   7.127
 8122SOL     OW36396   3.554   4.359   7.008
 8122SOL    HW136397   3.553   4.358   6.908
 8122SOL    HW236398   3.554   4.265   7.042
 8123SOL     OW36399   2.957   1.697   6.795
 8123SOL    HW136400   2.931   1.766   6.863
 8123SOL    HW236401   2.912   1.611   6.815
 8124SOL     OW36402   5.131   6.497   7.159
 8124SOL    HW136403   5.068   6.451   7.095
 8124SOL    HW236404   5.156   6.585   7.122
 8125SOL     OW36405   2.912   0.701   7.096
 8125SOL    HW136406   2.821   0.699   7.053
 8125SOL    HW236407   2.921   0.785   7.148
 8126SOL     OW36408   7.734   6.039   7.188
 8126SOL    HW136409   7.767   6.066   7.279
 8126SOL    HW236410   7.689   6.117   7.145
 8127SOL     OW36411   8.237   3.074   7.135
 8127SOL    HW136412   8.165   3.004   7.146
 8127SOL    HW236413   8.211   3.136   7.063
 8128SOL     OW36414   0.242   8.022   7.076
 8128SOL    HW136415   0.197   8.111   7.061
 8128SOL    HW236416   0.259   8.010   7.173
 8129SOL     OW36417   1.954   4.351   7.160
 8129SOL    HW136418   2.002   4.285   7.219
 8129SOL    HW236419   1.929   4.431   7.213
 8130SOL     OW36420   4.702   8.352   6.791
 8130SOL    HW136421   4.627   8.304   6.839
 8130SOL    HW236422   4.789   8.321   6.826
 8131SOL     OW36423   7.901   5.700   6.800
 8131SOL    HW136424   7.945   5.714   6.889
 8131SOL    HW236425   7.824   5.638   6.811
 8132SOL     OW36426   4.745   4.497   7.169
 8132SOL    HW136427   4.799   4.460   7.245
 8132SOL    HW236428   4.770   4.448   7.085
 8133SOL     OW36429   7.645   0.699   6.907
 8133SOL    HW136430   7.570   0.751   6.866
 8133SOL    HW236431   7.703   0.761   6.959
 8134SOL     OW36432   7.957   3.817   7.011
 8134SOL    HW136433   7.911   3.787   6.927
 8134SOL    HW236434   7.981   3.914   7.002
 8135SOL     OW36435   0.465   4.121   7.057
 8135SOL    HW136436   0.368   4.145   7.049
 8135SOL    HW236437   0.484   4.093   7.151
 8136SOL     OW36438   2.502   6.528   6.893
 8136SOL    HW136439   2.530   6.613   6.940
 8136SOL    HW236440   2.576   6.461   6.899
 8137SOL     OW36441   6.401   4.710   7.033
 8137SOL    HW136442   6.453   4.631   6.998
 8137SOL    HW236443   6.305   4.698   7.009
 8138SOL     OW36444   1.842   1.963   7.210
 8138SOL    HW136445   1.908   2.021   7.258
 8138SOL    HW236446   1.883   1.928   7.127
 8139SOL     OW36447   8.864   8.159   6.963
 8139SOL    HW136448   8.898   8.233   7.023
 8139SOL    HW236449   8.769   8.142   6.982
 8140SOL     OW36450   8.165   5.719   7.170
 8140SOL    HW136451   8.218   5.770   7.238
 8140SOL    HW236452   8.070   5.718   7.196
 8141SOL     OW36453   3.267   5.586   7.064
 8141SOL    HW136454   3.354   5.578   7.016
 8141SOL    HW236455   3.249   5.503   7.115
 8142SOL     OW36456   7.262   6.813   6.888
 8142SOL    HW136457   7.284   6.902   6.845
 8142SOL    HW236458   7.190   6.769   6.837
 8143SOL     OW36459   7.088   0.921   6.728
 8143SOL    HW136460   7.048   0.862   6.798
 8143SOL    HW236461   7.169   0.966   6.765
 8144SOL     OW36462   1.349   4.347   7.063
 8144SOL    HW136463   1.316   4.316   6.974
 8144SOL    HW236464   1.417   4.419   7.050
 8145SOL     OW36465   3.399   1.282   7.018
 8145SOL    HW136466   3.486   1.320   6.987
 8145SOL    HW236467   3.382   1.197   6.971
 8146SOL     OW36468   6.959   3.113   6.702
 8146SOL    HW136469   6.978   3.198   6.751
 8146SOL    HW236470   6.967   3.036   6.764
 8147SOL     OW36471   4.576   5.998   7.178
 8147SOL    HW136472   4.543   5.914   7.134
 8147SOL    HW236473   4.609   6.060   7.108
 8148SOL     OW36474   1.889   1.345   6.773
 8148SOL    HW136475   1.927   1.381   6.859
 8148SOL    HW236476   1.937   1.387   6.697
 8149SOL     OW36477   8.862   2.905   6.995
 8149SOL    HW136478   8.865   2.805   6.990
 8149SOL    HW236479   8.887   2.943   6.906
 8150SOL     OW36480   5.464   5.436   7.166
 8150SOL    HW136481   5.421   5.479   7.247
 8150SOL    HW236482   5.545   5.487   7.141
 8151SOL     OW36483   5.810   4.572   7.144
 8151SOL    HW136484   5.898   4.534   7.115
 8151SOL    HW236485   5.789   4.539   7.236
 8152SOL     OW36486   4.151   1.574   6.906
 8152SOL    HW136487   4.182   1.494   6.958
 8152SOL    HW236488   4.140   1.549   6.810
 8153SOL     OW36489   6.165   5.548   6.826
 8153SOL    HW136490   6.147   5.644   6.850
 8153SOL    HW236491   6.263   5.532   6.822
 8154SOL     OW36492   1.884   3.185   7.183
 8154SOL    HW136493   1.912   3.106   7.127
 8154SOL    HW236494   1.957   3.252   7.183
 8155SOL     OW36495   5.740   2.613   6.805
 8155SOL    HW136496   5.738   2.623   6.904
 8155SOL    HW236497   5.834   2.619   6.773
 8156SOL     OW36498   0.349   2.071   6.902
 8156SOL    HW136499   0.313   2.152   6.950
 8156SOL    HW236500   0.319   1.989   6.949
 8157SOL     OW36501   4.082   0.970   7.151
 8157SOL    HW136502   4.083   1.024   7.066
 8157SOL    HW236503   4.109   0.877   7.132
 8158SOL     OW36504   8.782   2.646   7.139
 8158SOL    HW136505   8.706   2.605   7.088
 8158SOL    HW236506   8.750   2.673   7.229
 8159SOL     OW36507   8.289   3.469   7.117
 8159SOL    HW136508   8.317   3.381   7.157
 8159SOL    HW236509   8.242   3.523   7.187
 8160SOL     OW36510   0.354   3.027   6.999
 8160SOL    HW136511   0.280   3.001   6.936
 8160SOL    HW236512   0.419   3.084   6.950
 8161SOL     OW36513   0.037   5.831   6.991
 8161SOL    HW136514   0.109   5.884   6.944
 8161SOL    HW236515   0.010   5.755   6.934
 8162SOL     OW36516   1.970   0.167   7.092
 8162SOL    HW136517   2.066   0.145   7.072
 8162SOL    HW236518   1.935   0.230   7.023
 8163SOL     OW36519   4.667   6.357   6.733
 8163SOL    HW136520   4.651   6.451   6.767
 8163SOL    HW236521   4.622   6.293   6.793
 8164SOL     OW36522   1.499   2.610   7.204
 8164SOL    HW136523   1.498   2.686   7.139
 8164SOL    HW236524   1.504   2.524   7.154
 8165SOL     OW36525   8.486   6.290   7.087
 8165SOL    HW136526   8.496   6.217   7.018
 8165SOL    HW236527   8.434   6.365   7.047
 8166SOL     OW36528   2.087   7.870   6.925
 8166SOL    HW136529   2.137   7.950   6.959
 8166SOL    HW236530   2.017   7.900   6.861
 8167SOL     OW36531   2.329   2.691   6.788
 8167SOL    HW136532   2.427   2.694   6.767
 8167SOL    HW236533   2.284   2.627   6.727
 8168SOL     OW36534   3.503   4.306   6.719
 8168SOL    HW136535   3.454   4.249   6.786
 8168SOL    HW236536   3.582   4.347   6.764
 8169SOL     OW36537   4.833   6.438   7.174
 8169SOL    HW136538   4.920   6.478   7.143
 8169SOL    HW236539   4.768   6.438   7.098
 8170SOL     OW36540   2.875   6.788   6.947
 8170SOL    HW136541   2.944   6.814   6.879
 8170SOL    HW236542   2.839   6.698   6.925
 8171SOL     OW36543   6.045   4.195   7.150
 8171SOL    HW136544   6.063   4.125   7.220
 8171SOL    HW236545   6.085   4.281   7.179
 8172SOL     OW36546   3.641   8.219   7.038
 8172SOL    HW136547   3.659   8.141   7.099
 8172SOL    HW236548   3.703   8.293   7.061
 8173SOL     OW36549   4.402   6.813   6.963
 8173SOL    HW136550   4.433   6.748   6.893
 8173SOL    HW236551   4.346   6.766   7.030
 8174SOL     OW36552   4.018   6.462   6.790
 8174SOL    HW136553   3.982   6.394   6.725
 8174SOL    HW236554   3.986   6.553   6.765
 8175SOL     OW36555   2.482   3.051   6.830
 8175SOL    HW136556   2.582   3.054   6.828
 8175SOL    HW236557   2.447   3.040   6.738
 8176SOL     OW36558   8.100   6.225   6.990
 8176SOL    HW136559   8.047   6.174   7.059
 8176SOL    HW236560   8.187   6.253   7.030
 8177SOL     OW36561   5.388   1.273   7.074
 8177SOL    HW136562   5.446   1.199   7.039
 8177SOL    HW236563   5.304   1.277   7.022
 8178SOL     OW36564   7.575   1.603   7.161
 8178SOL    HW136565   7.662   1.647   7.184
 8178SOL    HW236566   7.579   1.508   7.187
 8179SOL     OW36567   7.989   0.824   7.017
 8179SOL    HW136568   7.916   0.770   7.060
 8179SOL    HW236569   8.027   0.772   6.941
 8180SOL     OW36570   3.636   2.174   7.207
 8180SOL    HW136571   3.603   2.227   7.128
 8180SOL    HW236572   3.734   2.163   7.201
 8181SOL     OW36573   1.460   6.749   7.161
 8181SOL    HW136574   1.446   6.664   7.110
 8181SOL    HW236575   1.373   6.794   7.176
 8182SOL     OW36576   6.911   0.182   7.087
 8182SOL    HW136577   6.995   0.163   7.137
 8182SOL    HW236578   6.834   0.184   7.150
 8183SOL     OW36579   0.477   7.870   6.808
 8183SOL    HW136580   0.509   7.879   6.713
 8183SOL    HW236581   0.378   7.862   6.809
 8184SOL     OW36582   0.074   4.295   7.056
 8184SOL    HW136583   0.093   4.294   6.958
 8184SOL    HW236584   0.049   4.204   7.086
 8185SOL     OW36585   2.627   0.570   6.858
 8185SOL    HW136586   2.693   0.569   6.934
 8185SOL    HW236587   2.556   0.637   6.879
 8186SOL     OW36588   4.356   2.228   6.774
 8186SOL    HW136589   4.454   2.246   6.781
 8186SOL    HW236590   4.307   2.314   6.761
 8187SOL     OW36591   7.561   1.557   6.982
 8187SOL    HW136592   7.565   1.631   6.914
 8187SOL    HW236593   7.565   1.469   6.936
 8188SOL     OW36594   1.412   1.702   6.905
 8188SOL    HW136595   1.426   1.775   6.838
 8188SOL    HW236596   1.376   1.622   6.859
 8189SOL     OW36597   9.196   4.407   7.049
 8189SOL    HW136598   9.121   4.464   7.084
 8189SOL    HW236599   9.163   4.313   7.040
 8190SOL     OW36600   7.091   2.983   6.998
 8190SOL    HW136601   7.142   3.058   6.956
 8190SOL    HW236602   7.117   2.897   6.955
 8191SOL     OW36603   4.150   8.070   6.815
 8191SOL    HW136604   4.234   8.092   6.865
 8191SOL    HW236605   4.074   8.064   6.879
 8192SOL     OW36606   6.716   5.754   6.919
 8192SOL    HW136607   6.739   5.661   6.890
 8192SOL    HW236608   6.665   5.750   7.004
 8193SOL     OW36609   5.510   4.555   7.095
 8193SOL    HW136610   5.487   4.611   7.176
 8193SOL    HW236611   5.587   4.496   7.117
 8194SOL     OW36612   1.214   6.412   6.944
 8194SOL    HW136613   1.210   6.311   6.936
 8194SOL    HW236614   1.192   6.438   7.037
 8195SOL     OW36615   8.297   7.727   7.107
 8195SOL    HW136616   8.260   7.754   7.197
 8195SOL    HW236617   8.394   7.706   7.117
 8196SOL     OW36618   6.716   3.200   6.779
 8196SOL    HW136619   6.645   3.146   6.733
 8196SOL    HW236620   6.731   3.285   6.728
 8197SOL     OW36621   3.131   1.027   6.986
 8197SOL    HW136622   3.032   1.043   6.998
 8197SOL    HW236623   3.173   1.109   6.951
 8198SOL     OW36624   1.278   3.557   7.082
 8198SOL    HW136625   1.372   3.522   7.085
 8198SOL    HW236626   1.215   3.481   7.098
 8199SOL     OW36627   7.919   3.073   6.909
 8199SOL    HW136628   7.919   3.147   6.978
 8199SOL    HW236629   7.964   3.105   6.827
 8200SOL     OW36630   5.167   7.441   7.145
 8200SOL    HW136631   5.229   7.458   7.068
 8200SOL    HW236632   5.093   7.382   7.116
 8201SOL     OW36633   2.571   1.602   6.815
 8201SOL    HW136634   2.541   1.510   6.789
 8201SOL    HW236635   2.631   1.638   6.744
 8202SOL     OW36636   4.573   5.595   6.819
 8202SOL    HW136637   4.506   5.665   6.793
 8202SOL    HW236638   4.665   5.631   6.812
 8203SOL     OW36639   4.864   7.216   7.134
 8203SOL    HW136640   4.908   7.233   7.046
 8203SOL    HW236641   4.765   7.210   7.121
 8204SOL     OW36642   3.626   1.324   7.120
 8204SOL    HW136643   3.628   1.233   7.078
 8204SOL    HW236644   3.630   1.394   7.049
 8205SOL     OW36645   4.794   1.180   7.155
 8205SOL    HW136646   4.870   1.239   7.126
 8205SOL    HW236647   4.722   1.236   7.194
 8206SOL     OW36648   4.168   6.974   7.054
 8206SOL    HW136649   4.162   7.059   7.107
 8206SOL    HW236650   4.096   6.912   7.083
 8207SOL     OW36651   2.766   7.130   7.088
 8207SOL    HW136652   2.744   7.228   7.076
 8207SOL    HW236653   2.704   7.076   7.034
 8208SOL     OW36654   2.803   5.673   7.193
 8208SOL    HW136655   2.903   5.679   7.206
 8208SOL    HW236656   2.780   5.583   7.158
 8209SOL     OW36657   8.363   2.283   6.742
 8209SOL    HW136658   8.392   2.356   6.679
 8209SOL    HW236659   8.283   2.312   6.792
 8210SOL     OW36660   6.606   3.670   6.921
 8210SOL    HW136661   6.514   3.676   6.881
 8210SOL    HW236662   6.658   3.752   6.896
 8211SOL     OW36663   7.835   7.499   6.818
 8211SOL    HW136664   7.878   7.586   6.843
 8211SOL    HW236665   7.817   7.447   6.900
 8212SOL     OW36666   4.611   4.041   6.951
 8212SOL    HW136667   4.701   4.051   6.908
 8212SOL    HW236668   4.574   4.131   6.971
 8213SOL     OW36669   5.907   5.130   6.974
 8213SOL    HW136670   5.952   5.219   6.959
 8213SOL    HW236671   5.831   5.141   7.037
 8214SOL     OW36672   8.928   5.140   6.876
 8214SOL    HW136673   8.883   5.229   6.890
 8214SOL    HW236674   8.927   5.089   6.962
 8215SOL     OW36675   5.058   5.011   7.122
 8215SOL    HW136676   5.085   5.106   7.102
 8215SOL    HW236677   5.096   4.951   7.052
 8216SOL     OW36678   9.110   2.844   7.206
 8216SOL    HW136679   9.199   2.866   7.164
 8216SOL    HW236680   9.065   2.773   7.153
 8217SOL     OW36681   6.450   6.854   7.119
 8217SOL    HW136682   6.387   6.840   7.042
 8217SOL    HW236683   6.483   6.948   7.119
 8218SOL     OW36684   5.508   1.132   6.757
 8218SOL    HW136685   5.491   1.229   6.775
 8218SOL    HW236686   5.426   1.090   6.720
 8219SOL     OW36687   7.637   0.449   6.886
 8219SOL    HW136688   7.710   0.453   6.955
 8219SOL    HW236689   7.553   0.483   6.925
 8220SOL     OW36690   8.291   5.194   6.927
 8220SOL    HW136691   8.243   5.113   6.961
 8220SOL    HW236692   8.387   5.188   6.951
 8221SOL     OW36693   6.162   8.386   6.975
 8221SOL    HW136694   6.232   8.325   7.012
 8221SOL    HW236695   6.154   8.467   7.033
 8222SOL     OW36696   7.592   6.501   7.072
 8222SOL    HW136697   7.509   6.462   7.111
 8222SOL    HW236698   7.634   6.562   7.139
 8223SOL     OW36699   1.589   4.521   6.790
 8223SOL    HW136700   1.533   4.485   6.715
 8223SOL    HW236701   1.682   4.536   6.758
 8224SOL     OW36702   6.359   1.611   6.908
 8224SOL    HW136703   6.432   1.593   6.976
 8224SOL    HW236704   6.279   1.647   6.954
 8225SOL     OW36705   6.994   6.233   6.922
 8225SOL    HW136706   6.904   6.219   6.880
 8225SOL    HW236707   7.052   6.154   6.903
 8226SOL     OW36708   7.649   0.257   6.986
 8226SOL    HW136709   7.733   0.287   7.032
 8226SOL    HW236710   7.626   0.165   7.016
 8227SOL     OW36711   5.355   2.193   7.170
 8227SOL    HW136712   5.453   2.216   7.176
 8227SOL    HW236713   5.301   2.274   7.192
 8228SOL     OW36714   7.248   4.392   7.209
 8228SOL    HW136715   7.252   4.348   7.119
 8228SOL    HW236716   7.337   4.387   7.252
 8229SOL     OW36717   5.538   0.073   6.835
 8229SOL    HW136718   5.583   0.001   6.781
 8229SOL    HW236719   5.472   0.121   6.778
 8230SOL     OW36720   5.641   8.206   6.815
 8230SOL    HW136721   5.620   8.301   6.793
 8230SOL    HW236722   5.561   8.150   6.796
 8231SOL     OW36723   0.592   5.601   6.842
 8231SOL    HW136724   0.581   5.514   6.793
 8231SOL    HW236725   0.592   5.676   6.776
 8232SOL     OW36726   8.852   6.081   7.059
 8232SOL    HW136727   8.890   6.017   6.993
 8232SOL    HW236728   8.801   6.152   7.011
 8233SOL     OW36729   1.083   0.388   6.830
 8233SOL    HW136730   1.109   0.359   6.923
 8233SOL    HW236731   1.164   0.416   6.780
 8234SOL     OW36732   3.035   0.535   7.015
 8234SOL    HW136733   3.037   0.462   6.946
 8234SOL    HW236734   2.993   0.617   6.976
 8235SOL     OW36735   1.915   1.496   7.025
 8235SOL    HW136736   1.826   1.458   7.052
 8235SOL    HW236737   1.986   1.428   7.039
 8236SOL     OW36738   4.106   8.164   7.132
 8236SOL    HW136739   4.015   8.166   7.175
 8236SOL    HW236740   4.137   8.070   7.123
 8237SOL     OW36741   7.835   1.714   7.058
 8237SOL    HW136742   7.882   1.775   6.994
 8237SOL    HW236743   7.820   1.626   7.015
 8238SOL     OW36744   7.670   6.345   7.189
 8238SOL    HW136745   7.624   6.301   7.111
 8238SOL    HW236746   7.699   6.275   7.254
 8239SOL     OW36747   7.037   6.844   7.184
 8239SOL    HW136748   7.116   6.900   7.159
 8239SOL    HW236749   7.032   6.765   7.125
 8240SOL     OW36750   0.449   0.780   7.100
 8240SOL    HW136751   0.460   0.706   7.167
 8240SOL    HW236752   0.359   0.820   7.110
 8241SOL     OW36753   8.666   5.046   6.891
 8241SOL    HW136754   8.746   5.019   6.836
 8241SOL    HW236755   8.676   5.140   6.920
 8242SOL     OW36756   0.681   6.644   6.815
 8242SOL    HW136757   0.602   6.582   6.819
 8242SOL    HW236758   0.691   6.690   6.903
 8243SOL     OW36759   3.817   2.490   7.210
 8243SOL    HW136760   3.892   2.483   7.144
 8243SOL    HW236761   3.745   2.547   7.172
 8244SOL     OW36762   3.497   1.789   6.878
 8244SOL    HW136763   3.465   1.817   6.969
 8244SOL    HW236764   3.438   1.716   6.844
 8245SOL     OW36765   0.596   4.923   7.179
 8245SOL    HW136766   0.500   4.941   7.155
 8245SOL    HW236767   0.616   4.964   7.268
 8246SOL     OW36768   5.549   4.106   7.035
 8246SOL    HW136769   5.607   4.174   7.081
 8246SOL    HW236770   5.454   4.123   7.058
 8247SOL     OW36771   9.205   5.965   7.228
 8247SOL    HW136772   9.134   6.008   7.172
 8247SOL    HW236773   9.295   5.996   7.198
 8248SOL     OW36774   7.319   0.400   6.981
 8248SOL    HW136775   7.349   0.436   7.069
 8248SOL    HW236776   7.332   0.468   6.910
 8249SOL     OW36777   6.218   1.081   6.809
 8249SOL    HW136778   6.284   1.014   6.774
 8249SOL    HW236779   6.258   1.172   6.804
 8250SOL     OW36780   2.599   1.904   6.729
 8250SOL    HW136781   2.548   1.829   6.773
 8250SOL    HW236782   2.554   1.990   6.748
 8251SOL     OW36783   6.155   5.670   7.100
 8251SOL    HW136784   6.107   5.740   7.046
 8251SOL    HW236785   6.225   5.627   7.043
 8252SOL     OW36786   9.369   1.704   7.098
 8252SOL    HW136787   9.285   1.757   7.116
 8252SOL    HW236788   9.405   1.670   7.184
 8253SOL     OW36789   7.757   4.352   7.175
 8253SOL    HW136790   7.772   4.426   7.241
 8253SOL    HW236791   7.673   4.304   7.197
 8254SOL     OW36792   7.964   1.216   6.853
 8254SOL    HW136793   8.037   1.191   6.788
 8254SOL    HW236794   7.879   1.173   6.825
 8255SOL     OW36795   3.822   4.328   6.968
 8255SOL    HW136796   3.868   4.238   6.968
 8255SOL    HW236797   3.724   4.315   6.955
 8256SOL     OW36798   9.172   8.202   6.805
 8256SOL    HW136799   9.180   8.103   6.820
 8256SOL    HW236800   9.224   8.249   6.876
 8257SOL     OW36801   6.366   0.730   6.877
 8257SOL    HW136802   6.454   0.703   6.838
 8257SOL    HW236803   6.339   0.819   6.842
 8258SOL     OW36804   3.333   7.738   6.893
 8258SOL    HW136805   3.373   7.659   6.846
 8258SOL    HW236806   3.389   7.762   6.972
 8259SOL     OW36807   5.534   5.991   6.915
 8259SOL    HW136808   5.556   5.901   6.875
 8259SOL    HW236809   5.615   6.029   6.958
 8260SOL     OW36810   3.531   6.425   6.775
 8260SOL    HW136811   3.491   6.353   6.833
 8260SOL    HW236812   3.480   6.431   6.690
 8261SOL     OW36813   4.803   6.254   7.042
 8261SOL    HW136814   4.721   6.293   7.002
 8261SOL    HW236815   4.781   6.167   7.085
 8262SOL     OW36816   4.014   0.473   6.739
 8262SOL    HW136817   4.063   0.407   6.798
 8262SOL    HW236818   4.055   0.563   6.749
 8263SOL     OW36819   8.250   2.128   6.863
 8263SOL    HW136820   8.274   2.072   6.943
 8263SOL    HW236821   8.217   2.216   6.894
 8264SOL     OW36822   6.106   1.417   6.946
 8264SOL    HW136823   6.137   1.338   6.893
 8264SOL    HW236824   6.099   1.496   6.886
 8265SOL     OW36825   3.189   1.747   7.061
 8265SOL    HW136826   3.262   1.679   7.051
 8265SOL    HW236827   3.122   1.714   7.126
 8266SOL     OW36828   4.285   6.260   6.964
 8266SOL    HW136829   4.305   6.162   6.972
 8266SOL    HW236830   4.369   6.310   6.945
 8267SOL     OW36831   0.049   3.692   7.124
 8267SOL    HW136832   0.132   3.643   7.150
 8267SOL    HW236833  -0.019   3.684   7.197
 8268SOL     OW36834   2.405   7.074   7.189
 8268SOL    HW136835   2.353   7.047   7.271
 8268SOL    HW236836   2.357   7.146   7.141
 8269SOL     OW36837   4.085   6.078   6.917
 8269SOL    HW136838   4.160   6.054   6.853
 8269SOL    HW236839   4.073   6.005   6.983
 8270SOL     OW36840   3.423   4.841   6.943
 8270SOL    HW136841   3.384   4.856   6.852
 8270SOL    HW236842   3.514   4.882   6.947
 8271SOL     OW36843   4.500   0.524   7.073
 8271SOL    HW136844   4.452   0.463   7.137
 8271SOL    HW236845   4.585   0.555   7.114
 8272X2IT   H1836846   0.144   1.830   7.001
 8272X2IT    N436847   0.107   1.818   6.908
 8272X2IT   H1736848   0.011   1.847   6.893
 8272X2IT   C1436849   0.196   1.827   6.805
 8272X2IT    O536850   0.318   1.821   6.816
 8272X2IT    O436851   0.130   1.841   6.687
 8272X2IT   C1336852   0.211   1.845   6.568
 8272X2IT   C1036853   0.249   1.704   6.520
 8272X2IT    C936854   0.328   1.704   6.391
 8272X2IT    C436855   0.263   1.630   6.294
 8272X2IT    C536856   0.314   1.611   6.155
 8272X2IT    O136857   0.251   1.540   6.075
 8272X2IT    C636858   0.438   1.677   6.122
 8272X2IT   C1236859   0.496   1.662   5.983
 8272X2IT    C736860   0.505   1.749   6.219
 8272X2IT    C836861   0.451   1.768   6.362
 8272X2IT    O236862   0.517   1.839   6.440
 8272X2IT    N336863   0.621   1.812   6.199
 8272X2IT   H1536864   0.669   1.812   6.111
 8272X2IT   H1636865   0.660   1.865   6.278
 8272X2IT    N236866   0.150   1.571   6.342
 8272X2IT    C336867   0.025   1.544   6.271
 8272X2IT    C236868  -0.077   1.623   6.352
 8272X2IT    H236869  -0.183   1.598   6.346
 8272X2IT    N136870  -0.036   1.764   6.371
 8272X2IT   H1436871  -0.118   1.821   6.394
 8272X2IT    C136872  -0.015   1.666   6.480
 8272X2IT    H136873  -0.070   1.674   6.573
 8272X2IT   C1136874   0.127   1.610   6.484
 8272X2IT    O336875   0.117   1.498   6.569
 8272X2IT   C1536876   0.223   1.402   6.563
 8273X2IT   H1836877   2.633   0.296   6.595
 8273X2IT    N436878   2.705   0.239   6.638
 8273X2IT   H1736879   2.783   0.212   6.579
 8273X2IT   C1436880   2.725   0.257   6.772
 8273X2IT    O536881   2.648   0.314   6.847
 8273X2IT    O436882   2.842   0.199   6.809
 8273X2IT   C1336883   2.874   0.204   6.950
 8273X2IT   C1036884   2.804   0.091   7.028
 8273X2IT    C936885   2.840   0.089   7.175
 8273X2IT    C436886   2.894  -0.033   7.209
 8273X2IT    C536887   2.942  -0.068   7.347
 8273X2IT    O136888   2.986  -0.182   7.369
 8273X2IT    C636889   2.931   0.035   7.447
 8273X2IT   C1236890   2.977   0.007   7.588
 8273X2IT    C736891   2.875   0.157   7.413
 8273X2IT    C836892   2.827   0.192   7.272
 8273X2IT    O236893   2.782   0.306   7.252
 8273X2IT    N336894   2.859   0.259   7.499
 8273X2IT   H1536895   2.888   0.254   7.596
 8273X2IT   H1636896   2.818   0.345   7.463
 8273X2IT    N236897   2.893  -0.120   7.105
 8273X2IT    C336898   2.991  -0.226   7.074
 8273X2IT    C236899   3.040  -0.184   6.936
 8273X2IT    H236900   3.088  -0.258   6.871
 8273X2IT    N136901   3.085  -0.043   6.932
 8273X2IT   H1436902   3.148  -0.030   6.853
 8273X2IT    C136903   2.951  -0.079   6.881
 8273X2IT    H136904   2.928  -0.070   6.776
 8273X2IT   C1136905   2.840  -0.055   6.982
 8273X2IT    O336906   2.729  -0.125   6.928
 8273X2IT   C1536907   2.621  -0.154   7.017
 8274X2IT   H1836908   4.447   5.786   0.806
 8274X2IT    N436909   4.471   5.868   0.752
 8274X2IT   H1736910   4.398   5.907   0.694
 8274X2IT   C1436911   4.566   5.950   0.806
 8274X2IT    O536912   4.642   5.920   0.896
 8274X2IT    O436913   4.566   6.070   0.740
 8274X2IT   C1336914   4.666   6.165   0.782
 8274X2IT   C1036915   4.801   6.138   0.713
 8274X2IT    C936916   4.907   6.240   0.749
 8274X2IT    C436917   4.955   6.301   0.634
 8274X2IT    C536918   5.061   6.408   0.634
 8274X2IT    O136919   5.100   6.454   0.526
 8274X2IT    C636920   5.111   6.449   0.763
 8274X2IT   C1236921   5.217   6.557   0.770
 8274X2IT    C736922   5.064   6.387   0.877
 8274X2IT    C836923   4.957   6.278   0.876
 8274X2IT    O236924   4.919   6.232   0.985
 8274X2IT    N336925   5.106   6.417   1.001
 8274X2IT   H1536926   5.174   6.488   1.020
 8274X2IT   H1636927   5.063   6.366   1.079
 8274X2IT    N236928   4.901   6.248   0.522
 8274X2IT    C336929   4.870   6.316   0.395
 8274X2IT    C236930   4.720   6.294   0.383
 8274X2IT    H236931   4.672   6.304   0.285
 8274X2IT    N136932   4.647   6.336   0.505
 8274X2IT   H1436933   4.549   6.353   0.481
 8274X2IT    C136934   4.676   6.193   0.482
 8274X2IT    H136935   4.597   6.122   0.463
 8274X2IT   C1136936   4.800   6.144   0.556
 8274X2IT    O336937   4.829   6.019   0.496
 8274X2IT   C1536938   4.961   5.966   0.516
 8275X2IT   H1836939   3.312   5.244   0.596
 8275X2IT    N436940   3.392   5.305   0.605
 8275X2IT   H1736941   3.410   5.345   0.696
 8275X2IT   C1436942   3.497   5.280   0.521
 8275X2IT    O536943   3.491   5.211   0.421
 8275X2IT    O436944   3.607   5.348   0.563
 8275X2IT   C1336945   3.725   5.336   0.479
 8275X2IT   C1036946   3.720   5.435   0.361
 8275X2IT    C936947   3.844   5.431   0.275
 8275X2IT    C436948   3.904   5.556   0.271
 8275X2IT    C536949   4.029   5.586   0.195
 8275X2IT    O136950   4.073   5.702   0.194
 8275X2IT    C636951   4.091   5.475   0.126
 8275X2IT   C1236952   4.219   5.499   0.048
 8275X2IT    C736953   4.032   5.351   0.130
 8275X2IT    C836954   3.903   5.322   0.207
 8275X2IT    O236955   3.860   5.205   0.207
 8275X2IT    N336956   4.081   5.243   0.068
 8275X2IT   H1536957   4.166   5.244   0.014
 8275X2IT   H1636958   4.029   5.155   0.079
 8275X2IT    N236959   3.830   5.649   0.337
 8275X2IT    C336960   3.879   5.767   0.411
 8275X2IT    C236961   3.826   5.740   0.551
 8275X2IT    H236962   3.816   5.823   0.622
 8275X2IT    N136963   3.862   5.606   0.601
 8275X2IT   H1436964   3.856   5.604   0.703
 8275X2IT    C136965   3.727   5.630   0.547
 8275X2IT    H136966   3.640   5.626   0.611
 8275X2IT   C1136967   3.711   5.587   0.402
 8275X2IT    O336968   3.591   5.649   0.360
 8275X2IT   C1536969   3.568   5.660   0.219
 8276X2IT   H1836970   6.147   6.633   6.742
 8276X2IT    N436971   6.102   6.587   6.819
 8276X2IT   H1736972   6.084   6.488   6.809
 8276X2IT   C1436973   6.129   6.638   6.944
 8276X2IT    O536974   6.177   6.747   6.966
 8276X2IT    O436975   6.088   6.549   7.039
 8276X2IT   C1336976   6.104   6.592   7.176
 8276X2IT   C1036977   5.986   6.680   7.221
 8276X2IT    C936978   5.995   6.721   7.366
 8276X2IT    C436979   5.883   6.678   7.435
 8276X2IT    C536980   5.860   6.702   7.582
 8276X2IT    O136981   5.755   6.663   7.634
 8276X2IT    C636982   5.965   6.771   7.653
 8276X2IT   C1236983   5.949   6.798   7.801
 8276X2IT    C736984   6.076   6.815   7.584
 8276X2IT    C836985   6.098   6.790   7.434
 8276X2IT    O236986   6.204   6.830   7.383
 8276X2IT    N336987   6.178   6.881   7.641
 8276X2IT   H1536988   6.181   6.904   7.738
 8276X2IT   H1636989   6.256   6.907   7.580
 8276X2IT    N236990   5.792   6.619   7.353
 8276X2IT    C336991   5.700   6.509   7.385
 8276X2IT    C236992   5.742   6.402   7.285
 8276X2IT    H236993   5.673   6.321   7.260
 8276X2IT    N136994   5.888   6.376   7.289
 8276X2IT   H1436995   5.907   6.283   7.249
 8276X2IT    C136996   5.832   6.462   7.183
 8276X2IT    H136997   5.833   6.431   7.079
 8276X2IT   C1136998   5.844   6.611   7.214
 8276X2IT    O336999   5.757   6.673   7.121
 8276X2IT   C1537000   5.717   6.807   7.149
 8277X2IT   H1837001   6.405   3.684   1.093
 8277X2IT    N437002   6.310   3.666   1.065
 8277X2IT   H1737003   6.262   3.592   1.114
 8277X2IT   C1437004   6.239   3.773   1.018
 8277X2IT    O537005   6.287   3.879   0.982
 8277X2IT    O437006   6.106   3.742   1.014
 8277X2IT   C1337007   6.019   3.844   0.960
 8277X2IT   C1037008   6.016   3.839   0.806
 8277X2IT    C937009   5.920   3.939   0.746
 8277X2IT    C437010   5.826   3.874   0.668
 8277X2IT    C537011   5.715   3.945   0.595
 8277X2IT    O137012   5.637   3.879   0.524
 8277X2IT    C637013   5.708   4.088   0.611
 8277X2IT   C1237014   5.599   4.165   0.539
 8277X2IT    C737015   5.803   4.153   0.687
 8277X2IT    C837016   5.916   4.080   0.761
 8277X2IT    O237017   5.993   4.147   0.831
 8277X2IT    N337018   5.806   4.285   0.707
 8277X2IT   H1537019   5.738   4.348   0.667
 8277X2IT   H1637020   5.880   4.322   0.767
 8277X2IT    N237021   5.849   3.741   0.660
 8277X2IT    C337022   5.750   3.632   0.649
 8277X2IT    C237023   5.779   3.550   0.774
 8277X2IT    H237024   5.747   3.446   0.778
 8277X2IT    N137025   5.780   3.632   0.897
 8277X2IT   H1437026   5.764   3.572   0.978
 8277X2IT    C137027   5.908   3.594   0.833
 8277X2IT    H137028   5.976   3.526   0.883
 8277X2IT   C1137029   5.966   3.703   0.744
 8277X2IT    O337030   6.066   3.636   0.670
 8277X2IT   C1537031   6.112   3.701   0.550
 8278X2IT   H1837032   0.994   0.372   0.231
 8278X2IT    N437033   0.980   0.459   0.182
 8278X2IT   H1737034   0.894   0.468   0.129
 8278X2IT   C1437035   1.037   0.570   0.236
 8278X2IT    O537036   1.124   0.570   0.322
 8278X2IT    O437037   0.985   0.682   0.178
 8278X2IT   C1337038   1.041   0.808   0.222
 8278X2IT   C1037039   1.172   0.841   0.147
 8278X2IT    C937040   1.230   0.975   0.185
 8278X2IT    C437041   1.242   1.055   0.073
 8278X2IT    C537042   1.295   1.195   0.075
 8278X2IT    O137043   1.306   1.258  -0.031
 8278X2IT    C637044   1.333   1.248   0.204
 8278X2IT   C1237045   1.387   1.389   0.214
 8278X2IT    C737046   1.322   1.167   0.316
 8278X2IT    C837047   1.268   1.024   0.312
 8278X2IT    O237048   1.258   0.962   0.419
 8278X2IT    N337049   1.356   1.206   0.440
 8278X2IT   H1537050   1.391   1.298   0.461
 8278X2IT   H1637051   1.342   1.139   0.516
 8278X2IT    N237052   1.207   0.989  -0.041
 8278X2IT    C337053   1.143   1.045  -0.162
 8278X2IT    C237054   1.014   0.965  -0.170
 8278X2IT    H237055   0.960   0.958  -0.264
 8278X2IT    N137056   0.938   0.968  -0.042
 8278X2IT   H1437057   0.840   0.945  -0.061
 8278X2IT    C137058   1.021   0.850  -0.076
 8278X2IT    H137059   0.975   0.754  -0.096
 8278X2IT   C1137060   1.158   0.852  -0.010
 8278X2IT    O337061   1.231   0.753  -0.079
 8278X2IT   C1537062   1.374   0.756  -0.067
 8279X2IT   H1837063   2.108   7.921   0.343
 8279X2IT    N437064   2.173   7.852   0.376
 8279X2IT   H1737065   2.146   7.797   0.456
 8279X2IT   C1437066   2.254   7.796   0.281
 8279X2IT    O537067   2.274   7.840   0.169
 8279X2IT    O437068   2.315   7.684   0.332
 8279X2IT   C1337069   2.409   7.618   0.245
 8279X2IT   C1037070   2.548   7.684   0.252
 8279X2IT    C937071   2.652   7.613   0.168
 8279X2IT    C437072   2.758   7.574   0.247
 8279X2IT    C537073   2.878   7.500   0.195
 8279X2IT    O137074   2.970   7.471   0.272
 8279X2IT    C637075   2.877   7.467   0.054
 8279X2IT   C1237076   2.995   7.392  -0.005
 8279X2IT    C737077   2.772   7.508  -0.025
 8279X2IT    C837078   2.650   7.584   0.029
 8279X2IT    O237079   2.559   7.612  -0.050
 8279X2IT    N337080   2.763   7.484  -0.157
 8279X2IT   H1537081   2.833   7.434  -0.208
 8279X2IT   H1637082   2.679   7.518  -0.205
 8279X2IT    N237083   2.745   7.616   0.375
 8279X2IT    C337084   2.790   7.548   0.498
 8279X2IT    C237085   2.660   7.529   0.574
 8279X2IT    H237086   2.663   7.512   0.682
 8279X2IT    N137087   2.556   7.463   0.492
 8279X2IT   H1437088   2.486   7.421   0.553
 8279X2IT    C137089   2.553   7.609   0.510
 8279X2IT    H137090   2.473   7.656   0.566
 8279X2IT   C1137091   2.615   7.686   0.394
 8279X2IT    O337092   2.633   7.817   0.445
 8279X2IT   C1537093   2.723   7.903   0.375
 8280X2IT   H1837094   3.580   4.061   1.112
 8280X2IT    N437095   3.531   3.988   1.066
 8280X2IT   H1737096   3.582   3.903   1.045
 8280X2IT   C1437097   3.396   3.980   1.089
 8280X2IT    O537098   3.329   4.069   1.139
 8280X2IT    O437099   3.348   3.860   1.046
 8280X2IT   C1337100   3.206   3.841   1.058
 8280X2IT   C1037101   3.129   3.904   0.941
 8280X2IT    C937102   2.980   3.879   0.947
 8280X2IT    C437103   2.938   3.814   0.832
 8280X2IT    C537104   2.795   3.774   0.807
 8280X2IT    O137105   2.766   3.720   0.699
 8280X2IT    C637106   2.700   3.804   0.911
 8280X2IT   C1237107   2.555   3.766   0.892
 8280X2IT    C737108   2.743   3.870   1.025
 8280X2IT    C837109   2.888   3.911   1.049
 8280X2IT    O237110   2.915   3.966   1.157
 8280X2IT    N337111   2.661   3.904   1.126
 8280X2IT   H1537112   2.563   3.883   1.127
 8280X2IT   H1637113   2.704   3.951   1.206
 8280X2IT    N237114   3.038   3.798   0.743
 8280X2IT    C337115   3.058   3.687   0.648
 8280X2IT    C237116   3.193   3.632   0.691
 8280X2IT    H237117   3.252   3.571   0.622
 8280X2IT    N137118   3.199   3.602   0.836
 8280X2IT   H1437119   3.274   3.536   0.855
 8280X2IT    C137120   3.258   3.727   0.784
 8280X2IT    H137121   3.365   3.743   0.788
 8280X2IT   C1137122   3.167   3.848   0.798
 8280X2IT    O337123   3.227   3.946   0.715
 8280X2IT   C1537124   3.145   4.057   0.676
 8281X2IT   H1837125   7.498   3.299   6.531
 8281X2IT    N437126   7.444   3.344   6.602
 8281X2IT   H1737127   7.401   3.285   6.672
 8281X2IT   C1437128   7.483   3.470   6.637
 8281X2IT    O537129   7.557   3.542   6.572
 8281X2IT    O437130   7.422   3.507   6.754
 8281X2IT   C1337131   7.448   3.641   6.800
 8281X2IT   C1037132   7.356   3.744   6.730
 8281X2IT    C937133   7.376   3.885   6.781
 8281X2IT    C437134   7.257   3.935   6.830
 8281X2IT    C537135   7.242   4.072   6.889
 8281X2IT    O137136   7.130   4.110   6.928
 8281X2IT    C637137   7.361   4.153   6.896
 8281X2IT   C1237138   7.353   4.292   6.954
 8281X2IT    C737139   7.480   4.103   6.845
 8281X2IT    C837140   7.494   3.963   6.785
 8281X2IT    O237141   7.606   3.927   6.747
 8281X2IT    N337142   7.596   4.172   6.845
 8281X2IT   H1537143   7.605   4.264   6.883
 8281X2IT   H1637144   7.678   4.124   6.807
 8281X2IT    N237145   7.154   3.848   6.812
 8281X2IT    C337146   7.037   3.828   6.899
 8281X2IT    C237147   7.050   3.681   6.937
 8281X2IT    H237148   6.963   3.626   6.973
 8281X2IT    N137149   7.184   3.649   6.991
 8281X2IT   H1437150   7.179   3.563   7.046
 8281X2IT    C137151   7.152   3.617   6.850
 8281X2IT    H137152   7.145   3.514   6.817
 8281X2IT   C1137153   7.202   3.721   6.752
 8281X2IT    O337154   7.134   3.690   6.632
 8281X2IT   C1537155   7.129   3.793   6.531
 8282X2IT   H1837156   7.218   3.239   1.582
 8282X2IT    N437157   7.208   3.242   1.483
 8282X2IT   H1737158   7.148   3.314   1.445
 8282X2IT   C1437159   7.316   3.200   1.410
 8282X2IT    O537160   7.409   3.135   1.453
 8282X2IT    O437161   7.302   3.239   1.279
 8282X2IT   C1337162   7.405   3.196   1.189
 8282X2IT   C1037163   7.381   3.052   1.139
 8282X2IT    C937164   7.483   3.005   1.039
 8282X2IT    C437165   7.421   2.969   0.920
 8282X2IT    C537166   7.495   2.919   0.799
 8282X2IT    O137167   7.430   2.885   0.699
 8282X2IT    C637168   7.638   2.913   0.809
 8282X2IT   C1237169   7.719   2.863   0.690
 8282X2IT    C737170   7.700   2.948   0.928
 8282X2IT    C837171   7.624   2.998   1.051
 8282X2IT    O237172   7.690   3.031   1.150
 8282X2IT    N337173   7.833   2.943   0.947
 8282X2IT   H1537174   7.898   2.915   0.876
 8282X2IT   H1637175   7.868   2.973   1.038
 8282X2IT    N237176   7.286   2.977   0.929
 8282X2IT    C337177   7.190   3.012   0.823
 8282X2IT    C237178   7.122   3.135   0.881
 8282X2IT    H237179   7.025   3.166   0.843
 8282X2IT    N137180   7.219   3.238   0.925
 8282X2IT   H1437181   7.173   3.329   0.929
 8282X2IT    C137182   7.157   3.148   1.025
 8282X2IT    H137183   7.089   3.187   1.099
 8282X2IT   C1137184   7.245   3.030   1.062
 8282X2IT    O337185   7.157   2.942   1.130
 8282X2IT   C1537186   7.199   2.806   1.144
 8283X2IT   H1837187   1.116   6.949   7.060
 8283X2IT    N437188   1.159   7.017   7.120
 8283X2IT   H1737189   1.205   6.982   7.203
 8283X2IT   C1437190   1.207   7.130   7.059
 8283X2IT    O537191   1.179   7.167   6.947
 8283X2IT    O437192   1.289   7.197   7.145
 8283X2IT   C1337193   1.342   7.322   7.097
 8283X2IT   C1037194   1.242   7.437   7.117
 8283X2IT    C937195   1.297   7.572   7.074
 8283X2IT    C437196   1.294   7.661   7.180
 8283X2IT    C537197   1.342   7.803   7.171
 8283X2IT    O137198   1.332   7.876   7.271
 8283X2IT    C637199   1.397   7.845   7.045
 8283X2IT   C1237200   1.447   7.987   7.030
 8283X2IT    C737201   1.399   7.756   6.939
 8283X2IT    C837202   1.349   7.612   6.948
 8283X2IT    O237203   1.360   7.540   6.848
 8283X2IT    N337204   1.446   7.787   6.817
 8283X2IT   H1537205   1.485   7.877   6.794
 8283X2IT   H1637206   1.444   7.713   6.746
 8283X2IT    N237207   1.235   7.607   7.290
 8283X2IT    C337208   1.267   7.633   7.431
 8283X2IT    C237209   1.306   7.495   7.481
 8283X2IT    H237210   1.303   7.473   7.588
 8283X2IT    N137211   1.409   7.432   7.397
 8283X2IT   H1437212   1.457   7.359   7.450
 8283X2IT    C137213   1.268   7.393   7.381
 8283X2IT    H137214   1.234   7.293   7.407
 8283X2IT   C1137215   1.199   7.464   7.266
 8283X2IT    O337216   1.061   7.440   7.288
 8283X2IT   C1537217   0.968   7.526   7.220
 8284X2IT   H1837218   4.067   3.260   0.219
 8284X2IT    N437219   4.146   3.204   0.244
 8284X2IT   H1737220   4.130   3.106   0.261
 8284X2IT   C1437221   4.267   3.244   0.194
 8284X2IT    O537222   4.290   3.354   0.146
 8284X2IT    O437223   4.359   3.145   0.209
 8284X2IT   C1337224   4.494   3.176   0.167
 8284X2IT   C1037225   4.571   3.252   0.276
 8284X2IT    C937226   4.715   3.280   0.237
 8284X2IT    C437227   4.801   3.224   0.330
 8284X2IT    C537228   4.950   3.233   0.322
 8284X2IT    O137229   5.020   3.183   0.412
 8284X2IT    C637230   5.005   3.301   0.207
 8284X2IT   C1237231   5.155   3.313   0.192
 8284X2IT    C737232   4.919   3.358   0.115
 8284X2IT    C837233   4.766   3.349   0.125
 8284X2IT    O237234   4.699   3.399   0.034
 8284X2IT    N337235   4.960   3.425   0.006
 8284X2IT   H1537236   5.056   3.438  -0.017
 8284X2IT   H1637237   4.887   3.461  -0.057
 8284X2IT    N237238   4.734   3.168   0.434
 8284X2IT    C337239   4.772   3.050   0.513
 8284X2IT    C237240   4.655   2.955   0.489
 8284X2IT    H237241   4.637   2.873   0.559
 8284X2IT    N137242   4.626   2.937   0.345
 8284X2IT   H1437243   4.573   2.851   0.332
 8284X2IT    C137244   4.544   3.030   0.426
 8284X2IT    H137245   4.440   3.009   0.445
 8284X2IT   C1137246   4.587   3.175   0.413
 8284X2IT    O337247   4.521   3.241   0.520
 8284X2IT   C1537248   4.570   3.370   0.558
 8285X2IT   H1837249   0.324   7.384   6.591
 8285X2IT    N437250   0.303   7.391   6.689
 8285X2IT   H1737251   0.332   7.475   6.737
 8285X2IT   C1437252   0.190   7.325   6.731
 8285X2IT    O537253   0.131   7.239   6.667
 8285X2IT    O437254   0.156   7.367   6.856
 8285X2IT   C1337255   0.043   7.301   6.916
 8285X2IT   C1037256   0.083   7.167   6.981
 8285X2IT    C937257  -0.032   7.098   7.051
 8285X2IT    C437258  -0.002   7.078   7.184
 8285X2IT    C537259  -0.095   7.013   7.283
 8285X2IT    O137260  -0.057   6.996   7.400
 8285X2IT    C637261  -0.224   6.973   7.233
 8285X2IT   C1237262  -0.323   6.907   7.326
 8285X2IT    C737263  -0.254   6.992   7.099
 8285X2IT    C837264  -0.158   7.058   7.000
 8285X2IT    O237265  -0.197   7.075   6.883
 8285X2IT    N337266  -0.370   6.957   7.043
 8285X2IT   H1537267  -0.445   6.914   7.094
 8285X2IT   H1637268  -0.382   6.977   6.943
 8285X2IT    N237269   0.125   7.117   7.214
 8285X2IT    C337270   0.175   7.174   7.341
 8285X2IT    C237271   0.228   7.310   7.296
 8285X2IT    H237272   0.300   7.362   7.358
 8285X2IT    N137273   0.128   7.387   7.219
 8285X2IT   H1437274   0.152   7.486   7.221
 8285X2IT    C137275   0.235   7.314   7.148
 8285X2IT    H137276   0.312   7.367   7.094
 8285X2IT   C1137277   0.191   7.178   7.095
 8285X2IT    O337278   0.312   7.112   7.063
 8285X2IT   C1537279   0.308   6.970   7.047
 8286X2IT   H1837280   3.624   0.700   6.108
 8286X2IT    N437281   3.539   0.657   6.140
 8286X2IT   H1737282   3.490   0.703   6.215
 8286X2IT   C1437283   3.468   0.586   6.047
 8286X2IT    O537284   3.511   0.548   5.939
 8286X2IT    O437285   3.342   0.560   6.094
 8286X2IT   C1337286   3.258   0.480   6.009
 8286X2IT   C1037287   3.286   0.330   6.027
 8286X2IT    C937288   3.194   0.242   5.945
 8286X2IT    C437289   3.124   0.156   6.027
 8286X2IT    C537290   3.024   0.055   5.977
 8286X2IT    O137291   2.969  -0.021   6.058
 8286X2IT    C637292   2.999   0.054   5.835
 8286X2IT   C1237293   2.899  -0.044   5.778
 8286X2IT    C737294   3.070   0.140   5.753
 8286X2IT    C837295   3.172   0.241   5.805
 8286X2IT    O237296   3.226   0.317   5.723
 8286X2IT    N337297   3.055   0.145   5.620
 8286X2IT   H1537298   2.990   0.087   5.569
 8286X2IT   H1637299   3.111   0.214   5.569
 8286X2IT    N237300   3.163   0.166   6.157
 8286X2IT    C337301   3.080   0.148   6.277
 8286X2IT    C237302   3.092   0.284   6.345
 8286X2IT    H237303   3.070   0.294   6.451
 8286X2IT    N137304   3.059   0.396   6.253
 8286X2IT   H1437305   3.034   0.479   6.308
 8286X2IT    C137306   3.200   0.362   6.280
 8286X2IT    H137307   3.264   0.431   6.334
 8286X2IT   C1137308   3.263   0.275   6.173
 8286X2IT    O337309   3.383   0.228   6.233
 8286X2IT   C1537310   3.445   0.113   6.173
 8287X2IT   H1837311   5.652   7.947   7.485
 8287X2IT    N437312   5.655   7.854   7.447
 8287X2IT   H1737313   5.574   7.795   7.462
 8287X2IT   C1437314   5.729   7.837   7.333
 8287X2IT    O537315   5.812   7.916   7.291
 8287X2IT    O437316   5.700   7.717   7.276
 8287X2IT   C1337317   5.776   7.683   7.158
 8287X2IT   C1037318   5.912   7.622   7.195
 8287X2IT    C937319   5.992   7.578   7.074
 8287X2IT    C437320   6.022   7.443   7.082
 8287X2IT    C537321   6.099   7.368   6.978
 8287X2IT    O137322   6.124   7.248   6.996
 8287X2IT    C637323   6.141   7.443   6.862
 8287X2IT   C1237324   6.220   7.372   6.753
 8287X2IT    C737325   6.113   7.578   6.855
 8287X2IT    C837326   6.034   7.654   6.962
 8287X2IT    O237327   6.010   7.774   6.942
 8287X2IT    N337328   6.149   7.656   6.752
 8287X2IT   H1537329   6.200   7.622   6.672
 8287X2IT   H1637330   6.121   7.754   6.756
 8287X2IT    N237331   5.979   7.389   7.199
 8287X2IT    C337332   5.930   7.252   7.223
 8287X2IT    C237333   5.789   7.277   7.275
 8287X2IT    H237334   5.738   7.199   7.332
 8287X2IT    N137335   5.711   7.365   7.185
 8287X2IT   H1437336   5.611   7.351   7.202
 8287X2IT    C137337   5.773   7.421   7.307
 8287X2IT    H137338   5.711   7.457   7.388
 8287X2IT   C1137339   5.906   7.490   7.281
 8287X2IT    O337340   5.962   7.505   7.410
 8287X2IT   C1537341   6.103   7.532   7.417
 8288X2IT   H1837342   9.446   3.209   0.759
 8288X2IT    N437343   9.398   3.158   0.830
 8288X2IT   H1737344   9.345   3.211   0.898
 8288X2IT   C1437345   9.355   3.032   0.795
 8288X2IT    O537346   9.393   2.969   0.698
 8288X2IT    O437347   9.266   2.987   0.888
 8288X2IT   C1337348   9.217   2.852   0.868
 8288X2IT   C1037349   9.315   2.748   0.924
 8288X2IT    C937350   9.264   2.606   0.911
 8288X2IT    C437351   9.257   2.546   1.036
 8288X2IT    C537352   9.210   2.406   1.059
 8288X2IT    O137353   9.211   2.359   1.174
 8288X2IT    C637354   9.167   2.332   0.943
 8288X2IT   C1237355   9.117   2.190   0.959
 8288X2IT    C737356   9.174   2.392   0.818
 8288X2IT    C837357   9.223   2.535   0.796
 8288X2IT    O237358   9.222   2.580   0.680
 8288X2IT    N337359   9.138   2.331   0.704
 8288X2IT   H1537360   9.102   2.237   0.701
 8288X2IT   H1637361   9.147   2.385   0.618
 8288X2IT    N237362   9.306   2.627   1.134
 8288X2IT    C337363   9.261   2.636   1.274
 8288X2IT    C237364   9.218   2.781   1.285
 8288X2IT    H237365   9.211   2.829   1.383
 8288X2IT    N137366   9.122   2.820   1.178
 8288X2IT   H1437367   9.070   2.902   1.207
 8288X2IT    C137368   9.265   2.856   1.165
 8288X2IT    H137369   9.296   2.960   1.169
 8288X2IT   C1137370   9.344   2.760   1.078
 8288X2IT    O337371   9.479   2.791   1.106
 8288X2IT   C1537372   9.578   2.694   1.070
 8289X2IT   H1837373   5.101   4.579   0.720
 8289X2IT    N437374   5.137   4.515   0.652
 8289X2IT   H1737375   5.209   4.549   0.590
 8289X2IT   C1437376   5.137   4.383   0.687
 8289X2IT    O537377   5.073   4.335   0.779
 8289X2IT    O437378   5.216   4.312   0.600
 8289X2IT   C1337379   5.219   4.169   0.621
 8289X2IT   C1037380   5.099   4.099   0.555
 8289X2IT    C937381   5.103   3.949   0.568
 8289X2IT    C437382   5.102   3.890   0.443
 8289X2IT    C537383   5.106   3.742   0.420
 8289X2IT    O137384   5.100   3.697   0.305
 8289X2IT    C637385   5.115   3.659   0.538
 8289X2IT   C1237386   5.120   3.508   0.522
 8289X2IT    C737387   5.115   3.718   0.663
 8289X2IT    C837388   5.110   3.869   0.685
 8289X2IT    O237389   5.116   3.911   0.801
 8289X2IT    N337390   5.122   3.649   0.778
 8289X2IT   H1537391   5.127   3.549   0.782
 8289X2IT   H1637392   5.123   3.703   0.865
 8289X2IT    N237393   5.088   3.981   0.343
 8289X2IT    C337394   5.145   3.976   0.208
 8289X2IT    C237395   5.231   4.101   0.204
 8289X2IT    H237396   5.260   4.144   0.108
 8289X2IT    N137397   5.324   4.109   0.318
 8289X2IT   H1437398   5.402   4.172   0.295
 8289X2IT    C137399   5.199   4.187   0.321
 8289X2IT    H137400   5.201   4.295   0.317
 8289X2IT   C1137401   5.087   4.120   0.399
 8289X2IT    O337402   4.971   4.191   0.361
 8289X2IT   C1537403   4.845   4.128   0.387
 8290X2IT   H1837404   8.426   0.786  -0.199
 8290X2IT    N437405   8.367   0.735  -0.137
 8290X2IT   H1737406   8.321   0.652  -0.174
 8290X2IT   C1437407   8.401   0.738  -0.004
 8290X2IT    O537408   8.478   0.818   0.046
 8290X2IT    O437409   8.333   0.641   0.064
 8290X2IT   C1337410   8.354   0.637   0.206
 8290X2IT   C1037411   8.264   0.739   0.279
 8290X2IT    C937412   8.278   0.733   0.430
 8290X2IT    C437413   8.155   0.706   0.488
 8290X2IT    C537414   8.134   0.693   0.636
 8290X2IT    O137415   8.020   0.673   0.680
 8290X2IT    C637416   8.251   0.706   0.719
 8290X2IT   C1237417   8.237   0.694   0.870
 8290X2IT    C737418   8.374   0.734   0.661
 8290X2IT    C837419   8.394   0.748   0.510
 8290X2IT    O237420   8.509   0.768   0.468
 8290X2IT    N337421   8.487   0.749   0.730
 8290X2IT   H1537422   8.493   0.741   0.830
 8290X2IT   H1637423   8.573   0.767   0.677
 8290X2IT    N237424   8.055   0.702   0.396
 8290X2IT    C337425   7.934   0.618   0.399
 8290X2IT    C237426   7.948   0.537   0.271
 8290X2IT    H237427   7.860   0.490   0.227
 8290X2IT    N137428   8.080   0.470   0.262
 8290X2IT   H1437429   8.073   0.391   0.196
 8290X2IT    C137430   8.056   0.595   0.187
 8290X2IT    H137431   8.053   0.596   0.079
 8290X2IT   C1137432   8.109   0.719   0.259
 8290X2IT    O337433   8.048   0.827   0.191
 8290X2IT   C1537434   8.047   0.954   0.257
 8291X2IT   H1837435   6.476   7.573   6.393
 8291X2IT    N437436   6.546   7.600   6.461
 8291X2IT   H1737437   6.588   7.526   6.515
 8291X2IT   C1437438   6.618   7.712   6.432
 8291X2IT    O537439   6.589   7.795   6.348
 8291X2IT    O437440   6.727   7.719   6.514
 8291X2IT   C1337441   6.810   7.837   6.500
 8291X2IT   C1037442   6.754   7.956   6.579
 8291X2IT    C937443   6.841   8.079   6.572
 8291X2IT    C437444   6.879   8.118   6.699
 8291X2IT    C537445   6.967   8.236   6.727
 8291X2IT    O137446   6.993   8.266   6.845
 8291X2IT    C637447   7.016   8.309   6.613
 8291X2IT   C1237448   7.106   8.429   6.635
 8291X2IT    C737449   6.978   8.270   6.486
 8291X2IT    C837450   6.887   8.150   6.458
 8291X2IT    O237451   6.863   8.122   6.340
 8291X2IT    N337452   7.017   8.333   6.374
 8291X2IT   H1537453   7.078   8.413   6.374
 8291X2IT   H1637454   6.983   8.295   6.285
 8291X2IT    N237455   6.821   8.042   6.795
 8291X2IT    C337456   6.876   8.003   6.926
 8291X2IT    C237457   6.877   7.851   6.917
 8291X2IT    H237458   6.881   7.792   7.008
 8291X2IT    N137459   6.944   7.802   6.795
 8291X2IT   H1437460   6.973   7.705   6.808
 8291X2IT    C137461   6.797   7.808   6.799
 8291X2IT    H137462   6.738   7.718   6.798
 8291X2IT   C1137463   6.739   7.933   6.734
 8291X2IT    O337464   6.605   7.936   6.778
 8291X2IT   C1537465   6.535   8.061   6.766
 8292X2IT   H1837466   2.942   7.414   5.873
 8292X2IT    N437467   2.959   7.497   5.927
 8292X2IT   H1737468   2.927   7.497   6.022
 8292X2IT   C1437469   3.071   7.569   5.894
 8292X2IT    O537470   3.134   7.557   5.790
 8292X2IT    O437471   3.098   7.659   5.992
 8292X2IT   C1337472   3.210   7.747   5.968
 8292X2IT   C1037473   3.170   7.868   5.881
 8292X2IT    C937474   3.283   7.966   5.860
 8292X2IT    C437475   3.246   8.091   5.906
 8292X2IT    C537476   3.336   8.211   5.900
 8292X2IT    O137477   3.294   8.321   5.940
 8292X2IT    C637478   3.468   8.191   5.845
 8292X2IT   C1237479   3.564   8.308   5.837
 8292X2IT    C737480   3.504   8.066   5.798
 8292X2IT    C837481   3.411   7.944   5.804
 8292X2IT    O237482   3.455   7.835   5.763
 8292X2IT    N337483   3.623   8.038   5.744
 8292X2IT   H1537484   3.697   8.105   5.735
 8292X2IT   H1637485   3.639   7.941   5.714
 8292X2IT    N237486   3.118   8.094   5.949
 8292X2IT    C337487   3.062   8.175   6.058
 8292X2IT    C237488   3.008   8.069   6.153
 8292X2IT    H237489   2.932   8.095   6.227
 8292X2IT    N137490   3.110   7.967   6.187
 8292X2IT   H1437491   3.084   7.920   6.274
 8292X2IT    C137492   3.008   7.937   6.084
 8292X2IT    H137493   2.932   7.862   6.102
 8292X2IT   C1137494   3.056   7.959   5.942
 8292X2IT    O337495   2.938   7.959   5.865
 8292X2IT   C1537496   2.946   8.014   5.733
 8293X2IT   H1837497   7.421   3.353  -0.101
 8293X2IT    N437498   7.493   3.326  -0.036
 8293X2IT   H1737499   7.559   3.397  -0.008
 8293X2IT   C1437500   7.460   3.227   0.052
 8293X2IT    O537501   7.364   3.152   0.041
 8293X2IT    O437502   7.552   3.221   0.152
 8293X2IT   C1337503   7.534   3.116   0.249
 8293X2IT   C1037504   7.593   2.983   0.200
 8293X2IT    C937505   7.582   2.872   0.302
 8293X2IT    C437506   7.708   2.822   0.332
 8293X2IT    C537507   7.733   2.711   0.430
 8293X2IT    O137508   7.849   2.670   0.448
 8293X2IT    C637509   7.617   2.658   0.498
 8293X2IT   C1237510   7.636   2.547   0.599
 8293X2IT    C737511   7.492   2.708   0.468
 8293X2IT    C837512   7.468   2.820   0.367
 8293X2IT    O237513   7.351   2.859   0.351
 8293X2IT    N337514   7.379   2.663   0.525
 8293X2IT   H1537515   7.376   2.591   0.595
 8293X2IT   H1637516   7.291   2.708   0.496
 8293X2IT    N237517   7.805   2.879   0.256
 8293X2IT    C337518   7.944   2.907   0.293
 8293X2IT    C237519   7.952   3.059   0.277
 8293X2IT    H237520   8.049   3.107   0.265
 8293X2IT    N137521   7.844   3.129   0.349
 8293X2IT   H1437522   7.871   3.226   0.365
 8293X2IT    C137523   7.832   3.106   0.204
 8293X2IT    H137524   7.834   3.190   0.135
 8293X2IT   C1137525   7.747   2.985   0.168
 8293X2IT    O337526   7.776   2.962   0.031
 8293X2IT   C1537527   7.743   2.833  -0.022
 8294X2IT   H1837528   9.352   6.251   7.590
 8294X2IT    N437529   9.354   6.228   7.493
 8294X2IT   H1737530   9.413   6.150   7.465
 8294X2IT   C1437531   9.240   6.253   7.422
 8294X2IT    O537532   9.148   6.325   7.458
 8294X2IT    O437533   9.245   6.189   7.301
 8294X2IT   C1337534   9.134   6.212   7.212
 8294X2IT   C1037535   9.151   6.343   7.133
 8294X2IT    C937536   9.040   6.367   7.034
 8294X2IT    C437537   9.092   6.379   6.906
 8294X2IT    C537538   9.009   6.403   6.783
 8294X2IT    O137539   9.064   6.416   6.674
 8294X2IT    C637540   8.866   6.410   6.803
 8294X2IT   C1237541   8.776   6.434   6.684
 8294X2IT    C737542   8.814   6.399   6.931
 8294X2IT    C837543   8.900   6.375   7.055
 8294X2IT    O237544   8.843   6.362   7.164
 8294X2IT    N337545   8.683   6.406   6.959
 8294X2IT   H1537546   8.612   6.419   6.889
 8294X2IT   H1637547   8.656   6.395   7.057
 8294X2IT    N237548   9.228   6.375   6.906
 8294X2IT    C337549   9.316   6.320   6.801
 8294X2IT    C237550   9.392   6.212   6.877
 8294X2IT    H237551   9.487   6.175   6.839
 8294X2IT    N137552   9.301   6.119   6.948
 8294X2IT   H1437553   9.350   6.031   6.967
 8294X2IT    C137554   9.368   6.227   7.023
 8294X2IT    H137555   9.442   6.205   7.098
 8294X2IT   C1137556   9.280   6.350   7.043
 8294X2IT    O337557   9.371   6.451   7.084
 8294X2IT   C1537558   9.326   6.587   7.074
 8295X2IT   H1837559   7.853   1.450   6.585
 8295X2IT    N437560   7.873   1.548   6.589
 8295X2IT   H1737561   7.882   1.590   6.680
 8295X2IT   C1437562   7.947   1.599   6.485
 8295X2IT    O537563   7.965   1.544   6.378
 8295X2IT    O437564   7.994   1.723   6.518
 8295X2IT   C1337565   8.068   1.792   6.415
 8295X2IT   C1037566   7.974   1.864   6.317
 8295X2IT    C937567   8.048   1.943   6.211
 8295X2IT    C437568   8.010   2.076   6.216
 8295X2IT    C537569   8.065   2.183   6.126
 8295X2IT    O137570   8.022   2.299   6.135
 8295X2IT    C637571   8.165   2.141   6.031
 8295X2IT   C1237572   8.225   2.243   5.937
 8295X2IT    C737573   8.202   2.008   6.025
 8295X2IT    C837574   8.145   1.900   6.118
 8295X2IT    O237575   8.189   1.785   6.107
 8295X2IT    N337576   8.294   1.959   5.940
 8295X2IT   H1537577   8.343   2.017   5.873
 8295X2IT   H1637578   8.315   1.859   5.946
 8295X2IT    N237579   7.911   2.098   6.307
 8295X2IT    C337580   7.889   2.218   6.389
 8295X2IT    C237581   7.899   2.162   6.531
 8295X2IT    H237582   7.855   2.218   6.614
 8295X2IT    N137583   8.023   2.085   6.552
 8295X2IT   H1437584   8.043   2.080   6.652
 8295X2IT    C137585   7.896   2.014   6.526
 8295X2IT    H137586   7.850   1.953   6.603
 8295X2IT   C1137587   7.879   1.972   6.381
 8295X2IT    O337588   7.742   1.939   6.370
 8295X2IT   C1537589   7.686   1.932   6.238
 8296X2IT   H1837590   1.549   7.484   0.258
 8296X2IT    N437591   1.510   7.507   0.348
 8296X2IT   H1737592   1.443   7.443   0.387
 8296X2IT   C1437593   1.591   7.579   0.432
 8296X2IT    O537594   1.691   7.639   0.399
 8296X2IT    O437595   1.539   7.577   0.559
 8296X2IT   C1337596   1.610   7.654   0.658
 8296X2IT   C1037597   1.569   7.802   0.653
 8296X2IT    C937598   1.637   7.885   0.760
 8296X2IT    C437599   1.541   7.946   0.840
 8296X2IT    C537600   1.574   8.036   0.956
 8296X2IT    O137601   1.483   8.089   1.020
 8296X2IT    C637602   1.714   8.054   0.985
 8296X2IT   C1237603   1.755   8.143   1.102
 8296X2IT    C737604   1.809   7.994   0.905
 8296X2IT    C837605   1.774   7.904   0.786
 8296X2IT    O237606   1.868   7.851   0.724
 8296X2IT    N337607   1.942   8.007   0.923
 8296X2IT   H1537608   1.982   8.061   0.998
 8296X2IT   H1637609   2.003   7.956   0.859
 8296X2IT    N237610   1.415   7.923   0.796
 8296X2IT    C337611   1.293   7.909   0.876
 8296X2IT    C237612   1.247   7.768   0.841
 8296X2IT    H237613   1.143   7.739   0.858
 8296X2IT    N137614   1.355   7.668   0.859
 8296X2IT   H1437615   1.313   7.575   0.869
 8296X2IT    C137616   1.324   7.719   0.724
 8296X2IT    H137617   1.281   7.654   0.649
 8296X2IT   C1137618   1.416   7.831   0.679
 8296X2IT    O337619   1.351   7.887   0.567
 8296X2IT   C1537620   1.393   8.017   0.525
 8297X2IT   H1837621   4.658   1.634  -0.115
 8297X2IT    N437622   4.738   1.649  -0.056
 8297X2IT   H1737623   4.806   1.717  -0.088
 8297X2IT   C1437624   4.719   1.632   0.078
 8297X2IT    O537625   4.624   1.574   0.129
 8297X2IT    O437626   4.824   1.685   0.147
 8297X2IT   C1337627   4.820   1.669   0.290
 8297X2IT   C1037628   4.875   1.531   0.332
 8297X2IT    C937629   4.880   1.512   0.482
 8297X2IT    C437630   5.009   1.484   0.522
 8297X2IT    C537631   5.049   1.461   0.665
 8297X2IT    O137632   5.167   1.433   0.692
 8297X2IT    C637633   4.945   1.472   0.764
 8297X2IT   C1237634   4.978   1.450   0.910
 8297X2IT    C737635   4.815   1.499   0.724
 8297X2IT    C837636   4.776   1.522   0.577
 8297X2IT    O237637   4.657   1.550   0.553
 8297X2IT    N337638   4.711   1.509   0.808
 8297X2IT   H1537639   4.720   1.499   0.907
 8297X2IT   H1637640   4.620   1.531   0.767
 8297X2IT    N237641   5.094   1.473   0.417
 8297X2IT    C337642   5.237   1.509   0.412
 8297X2IT    C237643   5.240   1.613   0.301
 8297X2IT    H237644   5.333   1.636   0.250
 8297X2IT    N137645   5.140   1.721   0.323
 8297X2IT   H1437646   5.168   1.804   0.270
 8297X2IT    C137647   5.110   1.612   0.229
 8297X2IT    H137648   5.101   1.631   0.123
 8297X2IT   C1137649   5.024   1.502   0.289
 8297X2IT    O337650   5.035   1.395   0.197
 8297X2IT   C1537651   4.997   1.264   0.244
 8298X2IT   H1837652   9.422   6.258   5.998
 8298X2IT    N437653   9.467   6.342   5.967
 8298X2IT   H1737654   9.568   6.342   5.963
 8298X2IT   C1437655   9.397   6.420   5.879
 8298X2IT    O537656   9.278   6.411   5.857
 8298X2IT    O437657   9.480   6.512   5.822
 8298X2IT   C1337658   9.419   6.606   5.731
 8298X2IT   C1037659   9.355   6.724   5.807
 8298X2IT    C937660   9.295   6.828   5.715
 8298X2IT    C437661   9.353   6.951   5.738
 8298X2IT    C537662   9.317   7.076   5.663
 8298X2IT    O137663   9.372   7.183   5.694
 8298X2IT    C637664   9.218   7.063   5.559
 8298X2IT   C1237665   9.178   7.185   5.479
 8298X2IT    C737666   9.160   6.940   5.536
 8298X2IT    C837667   9.197   6.813   5.614
 8298X2IT    O237668   9.141   6.707   5.582
 8298X2IT    N337669   9.066   6.918   5.443
 8298X2IT   H1537670   9.031   6.990   5.382
 8298X2IT   H1637671   9.030   6.822   5.434
 8298X2IT    N237672   9.440   6.948   5.842
 8298X2IT    C337673   9.564   7.026   5.859
 8298X2IT    C237674   9.670   6.917   5.869
 8298X2IT    H237675   9.766   6.939   5.914
 8298X2IT    N137676   9.662   6.821   5.757
 8298X2IT   H1437677   9.752   6.773   5.747
 8298X2IT    C137678   9.604   6.785   5.888
 8298X2IT    H137679   9.646   6.706   5.947
 8298X2IT   C1137680   9.454   6.809   5.895
 8298X2IT    O337681   9.425   6.802   6.033
 8298X2IT   C1537682   9.300   6.858   6.077
 8299X2IT   H1837683   7.996   3.174   1.155
 8299X2IT    N437684   8.005   3.258   1.099
 8299X2IT   H1737685   8.093   3.271   1.050
 8299X2IT   C1437686   7.890   3.307   1.045
 8299X2IT    O537687   7.777   3.277   1.079
 8299X2IT    O437688   7.920   3.400   0.949
 8299X2IT   C1337689   7.808   3.466   0.887
 8299X2IT   C1037690   7.758   3.584   0.972
 8299X2IT    C937691   7.645   3.660   0.907
 8299X2IT    C437692   7.680   3.793   0.891
 8299X2IT    C537693   7.590   3.896   0.829
 8299X2IT    O137694   7.629   4.014   0.822
 8299X2IT    C637695   7.462   3.850   0.782
 8299X2IT   C1237696   7.367   3.949   0.718
 8299X2IT    C737697   7.427   3.718   0.799
 8299X2IT    C837698   7.519   3.614   0.863
 8299X2IT    O237699   7.479   3.496   0.869
 8299X2IT    N337700   7.309   3.666   0.760
 8299X2IT   H1537701   7.238   3.720   0.714
 8299X2IT   H1637702   7.294   3.566   0.776
 8299X2IT    N237703   7.802   3.821   0.945
 8299X2IT    C337704   7.901   3.918   0.898
 8299X2IT    C237705   8.022   3.830   0.869
 8299X2IT    H237706   8.121   3.874   0.865
 8299X2IT    N137707   7.988   3.716   0.781
 8299X2IT   H1437708   8.073   3.681   0.737
 8299X2IT    C137709   7.999   3.695   0.927
 8299X2IT    H137710   8.079   3.635   0.969
 8299X2IT   C1137711   7.865   3.697   0.999
 8299X2IT    O337712   7.899   3.710   1.136
 8299X2IT   C1537713   7.795   3.753   1.225
 8300X2IT   H1837714   7.724   5.182   6.149
 8300X2IT    N437715   7.769   5.221   6.230
 8300X2IT   H1737716   7.864   5.252   6.219
 8300X2IT   C1437717   7.688   5.285   6.320
 8300X2IT    O537718   7.566   5.275   6.325
 8300X2IT    O437719   7.763   5.358   6.407
 8300X2IT   C1337720   7.691   5.426   6.512
 8300X2IT   C1037721   7.663   5.332   6.631
 8300X2IT    C937722   7.594   5.401   6.746
 8300X2IT    C437723   7.670   5.390   6.861
 8300X2IT    C537724   7.630   5.448   6.994
 8300X2IT    O137725   7.703   5.430   7.092
 8300X2IT    C637726   7.507   5.523   6.997
 8300X2IT   C1237727   7.461   5.584   7.128
 8300X2IT    C737728   7.431   5.533   6.882
 8300X2IT    C837729   7.472   5.473   6.748
 8300X2IT    O237730   7.398   5.492   6.650
 8300X2IT    N337731   7.314   5.599   6.876
 8300X2IT   H1537732   7.273   5.646   6.955
 8300X2IT   H1637733   7.266   5.602   6.785
 8300X2IT    N237734   7.780   5.313   6.842
 8300X2IT    C337735   7.912   5.327   6.906
 8300X2IT    C237736   8.004   5.349   6.786
 8300X2IT    H237737   8.111   5.330   6.796
 8300X2IT    N137738   7.956   5.459   6.699
 8300X2IT   H1437739   8.034   5.494   6.643
 8300X2IT    C137740   7.930   5.318   6.661
 8300X2IT    H137741   7.977   5.275   6.574
 8300X2IT   C1137742   7.791   5.271   6.699
 8300X2IT    O337743   7.798   5.130   6.686
 8300X2IT   C1537744   7.696   5.053   6.752
 8301X2IT   H1837745   7.774   7.239   0.430
 8301X2IT    N437746   7.833   7.319   0.443
 8301X2IT   H1737747   7.928   7.312   0.412
 8301X2IT   C1437748   7.771   7.441   0.440
 8301X2IT    O537749   7.651   7.460   0.450
 8301X2IT    O437750   7.865   7.540   0.428
 8301X2IT   C1337751   7.815   7.675   0.430
 8301X2IT   C1037752   7.793   7.725   0.574
 8301X2IT    C937753   7.747   7.869   0.581
 8301X2IT    C437754   7.836   7.944   0.656
 8301X2IT    C537755   7.821   8.091   0.682
 8301X2IT    O137756   7.904   8.150   0.753
 8301X2IT    C637757   7.707   8.156   0.620
 8301X2IT   C1237758   7.686   8.304   0.642
 8301X2IT    C737759   7.618   8.081   0.547
 8301X2IT    C837760   7.634   7.931   0.522
 8301X2IT    O237761   7.550   7.874   0.450
 8301X2IT    N337762   7.508   8.131   0.488
 8301X2IT   H1537763   7.484   8.229   0.492
 8301X2IT   H1637764   7.450   8.067   0.434
 8301X2IT    N237765   7.935   7.868   0.710
 8301X2IT    C337766   8.075   7.906   0.736
 8301X2IT    C237767   8.151   7.805   0.651
 8301X2IT    H237768   8.256   7.785   0.673
 8301X2IT    N137769   8.104   7.802   0.511
 8301X2IT   H1437770   8.177   7.762   0.451
 8301X2IT    C137771   8.059   7.698   0.606
 8301X2IT    H137772   8.089   7.595   0.593
 8301X2IT   C1137773   7.922   7.726   0.665
 8301X2IT    O337774   7.913   7.637   0.775
 8301X2IT   C1537775   7.813   7.665   0.874
 8302X2IT   H1837776   9.590   0.167   6.793
 8302X2IT    N437777   9.574   0.264   6.817
 8302X2IT   H1737778   9.630   0.302   6.892
 8302X2IT   C1437779   9.533   0.345   6.716
 8302X2IT    O537780   9.488   0.308   6.609
 8302X2IT    O437781   9.545   0.476   6.754
 8302X2IT   C1337782   9.499   0.574   6.658
 8302X2IT   C1037783   9.347   0.595   6.669
 8302X2IT    C937784   9.295   0.702   6.575
 8302X2IT    C437785   9.231   0.801   6.647
 8302X2IT    C537786   9.168   0.923   6.585
 8302X2IT    O137787   9.109   1.005   6.657
 8302X2IT    C637788   9.181   0.936   6.442
 8302X2IT   C1237789   9.121   1.057   6.373
 8302X2IT    C737790   9.245   0.837   6.370
 8302X2IT    C837791   9.307   0.713   6.435
 8302X2IT    O237792   9.365   0.632   6.361
 8302X2IT    N337793   9.260   0.839   6.237
 8302X2IT   H1537794   9.226   0.914   6.179
 8302X2IT   H1637795   9.310   0.761   6.194
 8302X2IT    N237796   9.223   0.772   6.780
 8302X2IT    C337797   9.227   0.865   6.894
 8302X2IT    C237798   9.349   0.818   6.970
 8302X2IT    H237799   9.361   0.844   7.076
 8302X2IT    N137800   9.469   0.808   6.884
 8302X2IT   H1437801   9.553   0.810   6.942
 8302X2IT    C137802   9.393   0.686   6.918
 8302X2IT    H137803   9.436   0.609   6.980
 8302X2IT   C1137804   9.295   0.644   6.809
 8302X2IT    O337805   9.210   0.550   6.873
 8302X2IT   C1537806   9.085   0.521   6.810
 8303X2IT   H1837807   8.286   5.541   0.771
 8303X2IT    N437808   8.205   5.545   0.713
 8303X2IT   H1737809   8.220   5.568   0.615
 8303X2IT   C1437810   8.101   5.464   0.747
 8303X2IT    O537811   8.087   5.409   0.855
 8303X2IT    O437812   8.012   5.456   0.644
 8303X2IT   C1337813   7.892   5.379   0.668
 8303X2IT   C1037814   7.786   5.461   0.742
 8303X2IT    C937815   7.657   5.386   0.764
 8303X2IT    C437816   7.551   5.454   0.706
 8303X2IT    C537817   7.409   5.406   0.708
 8303X2IT    O137818   7.320   5.476   0.657
 8303X2IT    C637819   7.385   5.280   0.772
 8303X2IT   C1237820   7.243   5.225   0.778
 8303X2IT    C737821   7.490   5.212   0.831
 8303X2IT    C837822   7.634   5.262   0.829
 8303X2IT    O237823   7.722   5.191   0.881
 8303X2IT    N337824   7.477   5.094   0.895
 8303X2IT   H1537825   7.389   5.046   0.904
 8303X2IT   H1637826   7.562   5.052   0.933
 8303X2IT    N237827   7.590   5.573   0.654
 8303X2IT    C337828   7.536   5.642   0.535
 8303X2IT    C237829   7.659   5.652   0.445
 8303X2IT    H237830   7.662   5.726   0.365
 8303X2IT    N137831   7.726   5.522   0.427
 8303X2IT   H1437832   7.784   5.525   0.342
 8303X2IT    C137833   7.781   5.619   0.524
 8303X2IT    H137834   7.877   5.666   0.508
 8303X2IT   C1137835   7.737   5.591   0.667
 8303X2IT    O337836   7.770   5.710   0.737
 8303X2IT   C1537837   7.707   5.731   0.864
 8304X2IT   H1837838   8.679   5.805   6.469
 8304X2IT    N437839   8.652   5.711   6.488
 8304X2IT   H1737840   8.629   5.688   6.584
 8304X2IT   C1437841   8.589   5.644   6.387
 8304X2IT    O537842   8.588   5.678   6.270
 8304X2IT    O437843   8.531   5.530   6.435
 8304X2IT   C1337844   8.466   5.446   6.338
 8304X2IT   C1037845   8.567   5.353   6.268
 8304X2IT    C937846   8.502   5.258   6.170
 8304X2IT    C437847   8.530   5.127   6.204
 8304X2IT    C537848   8.481   5.008   6.128
 8304X2IT    O137849   8.514   4.894   6.164
 8304X2IT    C637850   8.396   5.034   6.015
 8304X2IT   C1237851   8.342   4.918   5.933
 8304X2IT    C737852   8.368   5.165   5.980
 8304X2IT    C837853   8.420   5.286   6.058
 8304X2IT    O237854   8.385   5.399   6.020
 8304X2IT    N337855   8.292   5.200   5.875
 8304X2IT   H1537856   8.248   5.133   5.814
 8304X2IT   H1637857   8.277   5.300   5.859
 8304X2IT    N237858   8.615   5.119   6.310
 8304X2IT    C337859   8.619   5.016   6.415
 8304X2IT    C237860   8.595   5.098   6.541
 8304X2IT    H237861   8.624   5.058   6.638
 8304X2IT    N137862   8.474   5.183   6.531
 8304X2IT   H1437863   8.442   5.208   6.625
 8304X2IT    C137864   8.608   5.243   6.510
 8304X2IT    H137865   8.647   5.315   6.579
 8304X2IT   C1137866   8.646   5.255   6.363
 8304X2IT    O337867   8.785   5.281   6.366
 8304X2IT   C1537868   8.857   5.260   6.244
 8305X2IT   H1837869   6.752   5.806   0.650
 8305X2IT    N437870   6.820   5.877   0.671
 8305X2IT   H1737871   6.805   5.968   0.630
 8305X2IT   C1437872   6.882   5.867   0.792
 8305X2IT    O537873   6.883   5.768   0.863
 8305X2IT    O437874   6.948   5.983   0.820
 8305X2IT   C1337875   7.024   5.985   0.943
 8305X2IT   C1037876   7.163   5.923   0.923
 8305X2IT    C937877   7.249   5.929   1.047
 8305X2IT    C437878   7.366   5.997   1.021
 8305X2IT    C537879   7.474   6.022   1.123
 8305X2IT    O137880   7.577   6.081   1.089
 8305X2IT    C637881   7.448   5.974   1.256
 8305X2IT   C1237882   7.552   5.996   1.364
 8305X2IT    C737883   7.331   5.905   1.282
 8305X2IT    C837884   7.223   5.879   1.177
 8305X2IT    O237885   7.120   5.820   1.213
 8305X2IT    N337886   7.300   5.854   1.403
 8305X2IT   H1537887   7.359   5.863   1.483
 8305X2IT   H1637888   7.210   5.806   1.411
 8305X2IT    N237889   7.377   6.032   0.890
 8305X2IT    C337890   7.441   6.152   0.833
 8305X2IT    C237891   7.325   6.219   0.760
 8305X2IT    H237892   7.346   6.291   0.681
 8305X2IT    N137893   7.207   6.237   0.847
 8305X2IT   H1437894   7.147   6.311   0.809
 8305X2IT    C137895   7.211   6.125   0.752
 8305X2IT    H137896   7.143   6.122   0.668
 8305X2IT   C1137897   7.254   5.993   0.815
 8305X2IT    O337898   7.283   5.910   0.705
 8305X2IT   C1537899   7.363   5.793   0.730
 8306X2IT   H1837900   1.257   4.896   7.726
 8306X2IT    N437901   1.251   4.904   7.626
 8306X2IT   H1737902   1.199   4.833   7.578
 8306X2IT   C1437903   1.256   5.030   7.574
 8306X2IT    O537904   1.294   5.129   7.634
 8306X2IT    O437905   1.216   5.028   7.444
 8306X2IT   C1337906   1.222   5.154   7.373
 8306X2IT   C1037907   1.364   5.182   7.320
 8306X2IT    C937908   1.373   5.310   7.240
 8306X2IT    C437909   1.419   5.283   7.113
 8306X2IT    C537910   1.439   5.388   7.007
 8306X2IT    O137911   1.485   5.356   6.896
 8306X2IT    C637912   1.404   5.523   7.043
 8306X2IT   C1237913   1.421   5.634   6.941
 8306X2IT    C737914   1.359   5.550   7.171
 8306X2IT    C837915   1.340   5.442   7.278
 8306X2IT    O237916   1.294   5.477   7.388
 8306X2IT    N337917   1.325   5.673   7.214
 8306X2IT   H1537918   1.330   5.755   7.156
 8306X2IT   H1637919   1.291   5.681   7.310
 8306X2IT    N237920   1.452   5.153   7.097
 8306X2IT    C337921   1.441   5.071   6.975
 8306X2IT    C237922   1.346   4.960   7.019
 8306X2IT    H237923   1.343   4.866   6.964
 8306X2IT    N137924   1.222   5.013   7.080
 8306X2IT   H1437925   1.149   4.942   7.076
 8306X2IT    C137926   1.331   4.964   7.167
 8306X2IT    H137927   1.318   4.875   7.227
 8306X2IT   C1137928   1.421   5.075   7.220
 8306X2IT    O337929   1.534   5.007   7.270
 8306X2IT   C1537930   1.653   5.084   7.292
 8307X2IT   H1837931   1.024   1.263   5.541
 8307X2IT    N437932   1.025   1.241   5.639
 8307X2IT   H1737933   1.107   1.268   5.691
 8307X2IT   C1437934   0.903   1.240   5.702
 8307X2IT    O537935   0.795   1.235   5.646
 8307X2IT    O437936   0.921   1.241   5.837
 8307X2IT   C1337937   0.801   1.233   5.917
 8307X2IT   C1037938   0.754   1.087   5.934
 8307X2IT    C937939   0.633   1.074   6.023
 8307X2IT    C437940   0.661   0.991   6.129
 8307X2IT    C537941   0.562   0.957   6.237
 8307X2IT    O137942   0.594   0.878   6.327
 8307X2IT    C637943   0.432   1.019   6.228
 8307X2IT   C1237944   0.328   0.989   6.333
 8307X2IT    C737945   0.404   1.102   6.120
 8307X2IT    C837946   0.505   1.135   6.011
 8307X2IT    O237947   0.471   1.214   5.921
 8307X2IT    N337948   0.286   1.162   6.102
 8307X2IT   H1537949   0.209   1.153   6.166
 8307X2IT   H1637950   0.277   1.223   6.020
 8307X2IT    N237951   0.785   0.937   6.121
 8307X2IT    C337952   0.876   0.902   6.231
 8307X2IT    C237953   0.997   0.989   6.201
 8307X2IT    H237954   1.094   0.963   6.244
 8307X2IT    N137955   0.961   1.131   6.182
 8307X2IT   H1437956   1.044   1.189   6.197
 8307X2IT    C137957   0.985   1.045   6.064
 8307X2IT    H137958   1.071   1.062   6.000
 8307X2IT   C1137959   0.858   0.991   6.002
 8307X2IT    O337960   0.902   0.887   5.916
 8307X2IT   C1537961   0.805   0.791   5.873
 8308X2IT   H1837962   6.179   4.328  -0.250
 8308X2IT    N437963   6.268   4.302  -0.213
 8308X2IT   H1737964   6.350   4.327  -0.267
 8308X2IT   C1437965   6.278   4.297  -0.077
 8308X2IT    O537966   6.183   4.293   0.000
 8308X2IT    O437967   6.409   4.292  -0.039
 8308X2IT   C1337968   6.434   4.279   0.102
 8308X2IT   C1037969   6.425   4.132   0.148
 8308X2IT    C937970   6.458   4.114   0.295
 8308X2IT    C437971   6.563   4.026   0.309
 8308X2IT    C537972   6.622   3.986   0.442
 8308X2IT    O137973   6.714   3.903   0.446
 8308X2IT    C637974   6.564   4.048   0.559
 8308X2IT   C1237975   6.618   4.012   0.696
 8308X2IT    C737976   6.457   4.135   0.544
 8308X2IT    C837977   6.398   4.174   0.408
 8308X2IT    O237978   6.306   4.257   0.407
 8308X2IT    N337979   6.396   4.196   0.647
 8308X2IT   H1537980   6.423   4.183   0.743
 8308X2IT   H1637981   6.319   4.260   0.624
 8308X2IT    N237982   6.603   3.973   0.190
 8308X2IT    C337983   6.739   3.934   0.150
 8308X2IT    C237984   6.763   4.024   0.029
 8308X2IT    H237985   6.840   3.997  -0.044
 8308X2IT    N137986   6.737   4.166   0.058
 8308X2IT   H1437987   6.786   4.225  -0.010
 8308X2IT    C137988   6.635   4.086  -0.013
 8308X2IT    H137989   6.610   4.107  -0.116
 8308X2IT   C1137990   6.525   4.033   0.078
 8308X2IT    O337991   6.460   3.935   0.000
 8308X2IT   C1537992   6.378   3.840   0.070
 8309X2IT   H1837993   1.667   5.497   7.301
 8309X2IT    N437994   1.753   5.483   7.250
 8309X2IT   H1737995   1.783   5.557   7.189
 8309X2IT   C1437996   1.847   5.404   7.311
 8309X2IT    O537997   1.826   5.329   7.405
 8309X2IT    O437998   1.967   5.418   7.247
 8309X2IT   C1337999   2.074   5.335   7.296
 8309X2IT   C1038000   2.069   5.194   7.235
 8309X2IT    C938001   2.184   5.106   7.279
 8309X2IT    C438002   2.255   5.061   7.168
 8309X2IT    C538003   2.376   4.973   7.176
 8309X2IT    O138004   2.430   4.935   7.072
 8309X2IT    C638005   2.420   4.936   7.309
 8309X2IT   C1238006   2.542   4.847   7.324
 8309X2IT    C738007   2.349   4.980   7.419
 8309X2IT    C838008   2.225   5.069   7.409
 8309X2IT    O238009   2.172   5.106   7.515
 8309X2IT    N338010   2.381   4.949   7.545
 8309X2IT   H1538011   2.461   4.893   7.570
 8309X2IT   H1638012   2.323   4.989   7.619
 8309X2IT    N238013   2.197   5.101   7.052
 8309X2IT    C338014   2.264   5.134   6.925
 8309X2IT    C238015   2.221   5.279   6.903
 8309X2IT    H238016   2.226   5.322   6.804
 8309X2IT    N138017   2.248   5.364   7.022
 8309X2IT   H1438018   2.251   5.462   6.993
 8309X2IT    C138019   2.111   5.313   6.998
 8309X2IT    H138020   2.030   5.380   6.973
 8309X2IT   C1138021   2.079   5.188   7.078
 8309X2IT    O338022   1.961   5.137   7.017
 8309X2IT   C1538023   1.927   5.000   7.044
 8310X2IT   H1838024   9.467   3.725   6.402
 8310X2IT    N438025   9.482   3.670   6.486
 8310X2IT   H1738026   9.577   3.646   6.509
 8310X2IT   C1438027   9.391   3.688   6.586
 8310X2IT    O538028   9.282   3.741   6.574
 8310X2IT    O438029   9.438   3.633   6.702
 8310X2IT   C1338030   9.350   3.639   6.816
 8310X2IT   C1038031   9.249   3.523   6.814
 8310X2IT    C938032   9.158   3.520   6.935
 8310X2IT    C438033   9.171   3.400   7.002
 8310X2IT    C538034   9.096   3.365   7.127
 8310X2IT    O138035   9.110   3.253   7.178
 8310X2IT    C638036   9.009   3.467   7.180
 8310X2IT   C1238037   8.930   3.439   7.306
 8310X2IT    C738038   8.995   3.587   7.113
 8310X2IT    C838039   9.072   3.621   6.985
 8310X2IT    O238040   9.056   3.734   6.935
 8310X2IT    N338041   8.916   3.687   7.153
 8310X2IT   H1538042   8.860   3.683   7.237
 8310X2IT   H1638043   8.915   3.772   7.097
 8310X2IT    N238044   9.253   3.314   6.936
 8310X2IT    C338045   9.342   3.212   6.994
 8310X2IT    C238046   9.479   3.257   6.944
 8310X2IT    H238047   9.561   3.186   6.941
 8310X2IT    N138048   9.506   3.399   6.973
 8310X2IT   H1438049   9.607   3.416   6.970
 8310X2IT    C138050   9.461   3.359   6.838
 8310X2IT    H138051   9.527   3.369   6.753
 8310X2IT   C1138052   9.312   3.378   6.816
 8310X2IT    O338053   9.285   3.305   6.698
 8310X2IT   C1538054   9.148   3.271   6.672
 8311X2IT   H1838055   6.822   7.250   0.473
 8311X2IT    N438056   6.913   7.209   0.474
 8311X2IT   H1738057   6.934   7.143   0.547
 8311X2IT   C1438058   6.974   7.195   0.352
 8311X2IT    O538059   6.941   7.251   0.250
 8311X2IT    O438060   7.082   7.112   0.364
 8311X2IT   C1338061   7.160   7.092   0.244
 8311X2IT   C1038062   7.262   7.206   0.225
 8311X2IT    C938063   7.351   7.186   0.104
 8311X2IT    C438064   7.484   7.184   0.143
 8311X2IT    C538065   7.599   7.165   0.048
 8311X2IT    O138066   7.715   7.169   0.091
 8311X2IT    C638067   7.565   7.145  -0.091
 8311X2IT   C1238068   7.676   7.125  -0.192
 8311X2IT    C738069   7.432   7.148  -0.130
 8311X2IT    C838070   7.316   7.168  -0.032
 8311X2IT    O238071   7.201   7.164  -0.077
 8311X2IT    N338072   7.391   7.132  -0.256
 8311X2IT   H1538073   7.454   7.116  -0.333
 8311X2IT   H1638074   7.290   7.134  -0.273
 8311X2IT    N238075   7.499   7.209   0.276
 8311X2IT    C338076   7.602   7.156   0.367
 8311X2IT    C238077   7.517   7.083   0.470
 8311X2IT    H238078   7.560   7.061   0.568
 8311X2IT    N138079   7.422   6.988   0.409
 8311X2IT   H1438080   7.393   6.918   0.478
 8311X2IT    C138081   7.375   7.121   0.454
 8311X2IT    H138082   7.306   7.130   0.537
 8311X2IT   C1138083   7.367   7.223   0.342
 8311X2IT    O338084   7.354   7.347   0.409
 8311X2IT   C1538085   7.382   7.466   0.334
 8312X2IT   H1838086   2.325   4.645  -0.215
 8312X2IT    N438087   2.412   4.608  -0.180
 8312X2IT   H1738088   2.477   4.572  -0.249
 8312X2IT   C1438089   2.460   4.666  -0.066
 8312X2IT    O538090   2.396   4.735   0.010
 8312X2IT    O438091   2.591   4.630  -0.048
 8312X2IT   C1338092   2.654   4.678   0.072
 8312X2IT   C1038093   2.622   4.587   0.192
 8312X2IT    C938094   2.692   4.630   0.319
 8312X2IT    C438095   2.771   4.527   0.367
 8312X2IT    C538096   2.855   4.537   0.492
 8312X2IT    O138097   2.920   4.439   0.529
 8312X2IT    C638098   2.853   4.664   0.561
 8312X2IT   C1238099   2.936   4.681   0.687
 8312X2IT    C738100   2.773   4.766   0.513
 8312X2IT    C838101   2.688   4.755   0.387
 8312X2IT    O238102   2.623   4.854   0.351
 8312X2IT    N338103   2.763   4.887   0.572
 8312X2IT   H1538104   2.814   4.912   0.654
 8312X2IT   H1638105   2.702   4.955   0.527
 8312X2IT    N238106   2.758   4.414   0.294
 8312X2IT    C338107   2.861   4.312   0.265
 8312X2IT    C238108   2.869   4.316   0.113
 8312X2IT    H238109   2.911   4.231   0.059
 8312X2IT    N138110   2.890   4.453   0.062
 8312X2IT   H1438111   2.929   4.448  -0.033
 8312X2IT    C138112   2.754   4.394   0.060
 8312X2IT    H138113   2.706   4.371  -0.034
 8312X2IT   C1138114   2.668   4.437   0.177
 8312X2IT    O338115   2.560   4.346   0.175
 8312X2IT   C1538116   2.481   4.335   0.295
 8313X2IT   H1838117   0.808   2.595   0.631
 8313X2IT    N438118   0.804   2.517   0.567
 8313X2IT   H1738119   0.768   2.536   0.475
 8313X2IT   C1438120   0.899   2.421   0.583
 8313X2IT    O538121   0.969   2.406   0.682
 8313X2IT    O438122   0.902   2.340   0.473
 8313X2IT   C1338123   0.994   2.228   0.479
 8313X2IT   C1038124   0.933   2.109   0.554
 8313X2IT    C938125   1.023   1.987   0.556
 8313X2IT    C438126   0.958   1.879   0.499
 8313X2IT    C538127   1.020   1.743   0.484
 8313X2IT    O138128   0.954   1.651   0.435
 8313X2IT    C638129   1.156   1.729   0.530
 8313X2IT   C1238130   1.225   1.594   0.518
 8313X2IT    C738131   1.220   1.837   0.588
 8313X2IT    C838132   1.156   1.975   0.603
 8313X2IT    O238133   1.224   2.066   0.653
 8313X2IT    N338134   1.346   1.833   0.636
 8313X2IT   H1538135   1.403   1.750   0.632
 8313X2IT   H1638136   1.384   1.919   0.675
 8313X2IT    N238137   0.830   1.908   0.465
 8313X2IT    C338138   0.752   1.855   0.352
 8313X2IT    C238139   0.718   1.981   0.274
 8313X2IT    H238140   0.634   1.980   0.204
 8313X2IT    N138141   0.838   2.063   0.245
 8313X2IT   H1438142   0.818   2.125   0.166
 8313X2IT    C138143   0.749   2.100   0.357
 8313X2IT    H138144   0.691   2.191   0.354
 8313X2IT   C1138145   0.800   2.051   0.492
 8313X2IT    O338146   0.688   2.066   0.578
 8313X2IT   C1538147   0.690   1.994   0.702
 8314X2IT   H1838148   6.634   1.163  -0.461
 8314X2IT    N438149   6.637   1.072  -0.419
 8314X2IT   H1738150   6.674   0.997  -0.475
 8314X2IT   C1438151   6.653   1.068  -0.283
 8314X2IT    O538152   6.637   1.162  -0.207
 8314X2IT    O438153   6.686   0.941  -0.244
 8314X2IT   C1338154   6.700   0.920  -0.102
 8314X2IT   C1038155   6.564   0.895  -0.035
 8314X2IT    C938156   6.575   0.865   0.112
 8314X2IT    C438157   6.519   0.742   0.141
 8314X2IT    C538158   6.514   0.681   0.278
 8314X2IT    O138159   6.459   0.572   0.295
 8314X2IT    C638160   6.575   0.758   0.384
 8314X2IT   C1238161   6.574   0.703   0.525
 8314X2IT    C738162   6.630   0.882   0.356
 8314X2IT    C838163   6.634   0.942   0.216
 8314X2IT    O238164   6.690   1.052   0.201
 8314X2IT    N338165   6.687   0.961   0.448
 8314X2IT   H1538166   6.695   0.935   0.545
 8314X2IT   H1638167   6.726   1.050   0.416
 8314X2IT    N238168   6.462   0.685   0.031
 8314X2IT    C338169   6.453   0.542  -0.002
 8314X2IT    C238170   6.528   0.535  -0.135
 8314X2IT    H238171   6.511   0.451  -0.202
 8314X2IT    N138172   6.662   0.597  -0.127
 8314X2IT   H1438173   6.720   0.561  -0.203
 8314X2IT    C138174   6.550   0.673  -0.186
 8314X2IT    H138175   6.549   0.697  -0.292
 8314X2IT   C1138176   6.484   0.770  -0.089
 8314X2IT    O338177   6.363   0.805  -0.153
 8314X2IT   C1538178   6.261   0.865  -0.071
 8315X2IT   H1838179   4.558   4.439   6.315
 8315X2IT    N438180   4.459   4.452   6.325
 8315X2IT   H1738181   4.416   4.413   6.408
 8315X2IT   C1438182   4.407   4.566   6.270
 8315X2IT    O538183   4.463   4.636   6.188
 8315X2IT    O438184   4.280   4.586   6.317
 8315X2IT   C1338185   4.210   4.700   6.262
 8315X2IT   C1038186   4.144   4.665   6.127
 8315X2IT    C938187   4.064   4.779   6.070
 8315X2IT    C438188   3.932   4.740   6.050
 8315X2IT    C538189   3.825   4.829   5.995
 8315X2IT    O138190   3.711   4.784   5.977
 8315X2IT    C638191   3.864   4.965   5.964
 8315X2IT   C1238192   3.761   5.061   5.909
 8315X2IT    C738193   3.996   5.004   5.983
 8315X2IT    C838194   4.104   4.911   6.039
 8315X2IT    O238195   4.218   4.958   6.055
 8315X2IT    N338196   4.041   5.127   5.956
 8315X2IT   H1538197   3.983   5.201   5.920
 8315X2IT   H1638198   4.140   5.145   5.975
 8315X2IT    N238199   3.914   4.608   6.079
 8315X2IT    C338200   3.793   4.545   6.135
 8315X2IT    C238201   3.846   4.485   6.265
 8315X2IT    H238202   3.791   4.404   6.313
 8315X2IT    N138203   3.918   4.584   6.348
 8315X2IT   H1438204   3.920   4.552   6.445
 8315X2IT    C138205   3.994   4.489   6.265
 8315X2IT    H138206   4.056   4.413   6.311
 8315X2IT   C1138207   4.039   4.548   6.132
 8315X2IT    O338208   4.079   4.435   6.056
 8315X2IT   C1538209   4.090   4.452   5.914
 8316X2IT   H1838210   3.377   4.388   6.241
 8316X2IT    N438211   3.285   4.390   6.200
 8316X2IT   H1738212   3.254   4.306   6.153
 8316X2IT   C1438213   3.193   4.470   6.262
 8316X2IT    O538214   3.218   4.558   6.342
 8316X2IT    O438215   3.068   4.439   6.217
 8316X2IT   C1338216   2.960   4.521   6.268
 8316X2IT   C1038217   2.946   4.652   6.190
 8316X2IT    C938218   2.830   4.737   6.236
 8316X2IT    C438219   2.744   4.761   6.131
 8316X2IT    C538220   2.617   4.842   6.143
 8316X2IT    O138221   2.548   4.861   6.043
 8316X2IT    C638222   2.586   4.893   6.275
 8316X2IT   C1238223   2.460   4.974   6.294
 8316X2IT    C738224   2.673   4.869   6.379
 8316X2IT    C838225   2.802   4.788   6.365
 8316X2IT    O238226   2.870   4.769   6.467
 8316X2IT    N338227   2.653   4.914   6.504
 8316X2IT   H1538228   2.573   4.968   6.532
 8316X2IT   H1638229   2.724   4.890   6.575
 8316X2IT    N238230   2.790   4.710   6.014
 8316X2IT    C338231   2.712   4.656   5.902
 8316X2IT    C238232   2.764   4.513   5.894
 8316X2IT    H238233   2.751   4.456   5.801
 8316X2IT    N138234   2.758   4.443   6.024
 8316X2IT   H1438235   2.760   4.342   6.009
 8316X2IT    C138236   2.886   4.500   5.977
 8316X2IT    H138237   2.969   4.435   5.950
 8316X2IT   C1138238   2.917   4.636   6.036
 8316X2IT    O338239   3.022   4.686   5.955
 8316X2IT   C1538240   3.047   4.827   5.960
 8317X2IT   H1838241   2.057   0.869   6.701
 8317X2IT    N438242   2.006   0.812   6.768
 8317X2IT   H1738243   1.970   0.724   6.735
 8317X2IT   C1438244   2.044   0.824   6.899
 8317X2IT    O538245   2.111   0.915   6.944
 8317X2IT    O438246   1.991   0.722   6.972
 8317X2IT   C1338247   2.017   0.726   7.114
 8317X2IT   C1038248   1.917   0.817   7.187
 8317X2IT    C938249   1.937   0.818   7.337
 8317X2IT    C438250   1.820   0.779   7.400
 8317X2IT    C538251   1.806   0.768   7.549
 8317X2IT    O138252   1.696   0.736   7.598
 8317X2IT    C638253   1.923   0.799   7.628
 8317X2IT   C1238254   1.915   0.789   7.779
 8317X2IT    C738255   2.039   0.839   7.565
 8317X2IT    C838256   2.052   0.850   7.412
 8317X2IT    O238257   2.162   0.883   7.366
 8317X2IT    N338258   2.152   0.871   7.629
 8317X2IT   H1538259   2.161   0.867   7.729
 8317X2IT   H1638260   2.232   0.898   7.572
 8317X2IT    N238261   1.719   0.759   7.313
 8317X2IT    C338262   1.609   0.661   7.322
 8317X2IT    C238263   1.629   0.578   7.196
 8317X2IT    H238264   1.547   0.519   7.157
 8317X2IT    N138265   1.768   0.527   7.184
 8317X2IT   H1438266   1.769   0.446   7.121
 8317X2IT    C138267   1.726   0.646   7.107
 8317X2IT    H138268   1.720   0.642   6.999
 8317X2IT   C1138269   1.766   0.777   7.172
 8317X2IT    O338270   1.689   0.875   7.103
 8317X2IT   C1538271   1.674   1.003   7.166
 8318X2IT   H1838272   6.135   5.006   0.576
 8318X2IT    N438273   6.191   4.956   0.509
 8318X2IT   H1738274   6.176   4.856   0.503
 8318X2IT   C1438275   6.229   5.025   0.398
 8318X2IT    O538276   6.225   5.146   0.385
 8318X2IT    O438277   6.276   4.938   0.303
 8318X2IT   C1338278   6.326   4.998   0.182
 8318X2IT   C1038279   6.472   5.045   0.198
 8318X2IT    C938280   6.530   5.102   0.071
 8318X2IT    C438281   6.644   5.031   0.035
 8318X2IT    C538282   6.726   5.061  -0.087
 8318X2IT    O138283   6.828   4.995  -0.110
 8318X2IT    C638284   6.679   5.169  -0.171
 8318X2IT   C1238285   6.757   5.204  -0.296
 8318X2IT    C738286   6.567   5.240  -0.135
 8318X2IT    C838287   6.484   5.209  -0.010
 8318X2IT    O238288   6.382   5.276   0.011
 8318X2IT    N338289   6.517   5.342  -0.205
 8318X2IT   H1538290   6.557   5.375  -0.291
 8318X2IT   H1638291   6.432   5.387  -0.170
 8318X2IT    N238292   6.676   4.937   0.127
 8318X2IT    C338293   6.739   4.806   0.103
 8318X2IT    C238294   6.634   4.709   0.158
 8318X2IT    H238295   6.663   4.608   0.186
 8318X2IT    N138296   6.500   4.734   0.101
 8318X2IT   H1438297   6.443   4.650   0.111
 8318X2IT    C138298   6.533   4.786   0.235
 8318X2IT    H138299   6.484   4.746   0.323
 8318X2IT   C1138300   6.575   4.932   0.236
 8318X2IT    O338301   6.633   4.951   0.363
 8318X2IT   C1538302   6.717   5.066   0.381
 8319X2IT   H1838303   3.837   5.462   5.839
 8319X2IT    N438304   3.800   5.526   5.908
 8319X2IT   H1738305   3.739   5.599   5.875
 8319X2IT   C1438306   3.781   5.475   6.033
 8319X2IT    O538307   3.830   5.371   6.075
 8319X2IT    O438308   3.704   5.560   6.107
 8319X2IT   C1338309   3.681   5.523   6.244
 8319X2IT   C1038310   3.798   5.566   6.334
 8319X2IT    C938311   3.775   5.535   6.481
 8319X2IT    C438312   3.782   5.651   6.556
 8319X2IT    C538313   3.763   5.656   6.705
 8319X2IT    O138314   3.775   5.764   6.764
 8319X2IT    C638315   3.733   5.531   6.770
 8319X2IT   C1238316   3.712   5.528   6.920
 8319X2IT    C738317   3.727   5.415   6.695
 8319X2IT    C838318   3.747   5.411   6.543
 8319X2IT    O238319   3.735   5.302   6.485
 8319X2IT    N338320   3.701   5.294   6.746
 8319X2IT   H1538321   3.683   5.278   6.844
 8319X2IT   H1638322   3.698   5.215   6.681
 8319X2IT    N238323   3.816   5.759   6.480
 8319X2IT    C338324   3.773   5.899   6.498
 8319X2IT    C238325   3.703   5.928   6.366
 8319X2IT    H238326   3.689   6.031   6.334
 8319X2IT    N138327   3.600   5.826   6.334
 8319X2IT   H1438328   3.534   5.865   6.267
 8319X2IT    C138329   3.733   5.819   6.269
 8319X2IT    H138330   3.744   5.836   6.163
 8319X2IT   C1138331   3.828   5.721   6.337
 8319X2IT    O338332   3.955   5.754   6.284
 8319X2IT   C1538333   4.070   5.707   6.355
 8320X2IT   H1838334   9.403   7.792  -0.264
 8320X2IT    N438335   9.380   7.723  -0.196
 8320X2IT   H1738336   9.387   7.626  -0.224
 8320X2IT   C1438337   9.403   7.755  -0.065
 8320X2IT    O538338   9.423   7.868  -0.024
 8320X2IT    O438339   9.398   7.644   0.013
 8320X2IT   C1338340   9.414   7.664   0.155
 8320X2IT   C1038341   9.282   7.706   0.221
 8320X2IT    C938342   9.294   7.722   0.371
 8320X2IT    C438343   9.204   7.638   0.435
 8320X2IT    C538344   9.190   7.629   0.584
 8320X2IT    O138345   9.104   7.554   0.633
 8320X2IT    C638346   9.279   7.711   0.663
 8320X2IT   C1238347   9.271   7.705   0.814
 8320X2IT    C738348   9.368   7.795   0.599
 8320X2IT    C838349   9.381   7.804   0.447
 8320X2IT    O238350   9.467   7.880   0.400
 8320X2IT    N338351   9.454   7.876   0.663
 8320X2IT   H1538352   9.460   7.881   0.763
 8320X2IT   H1638353   9.517   7.933   0.606
 8320X2IT    N238354   9.125   7.572   0.347
 8320X2IT    C338355   9.068   7.437   0.361
 8320X2IT    C238356   9.128   7.365   0.240
 8320X2IT    H238357   9.080   7.274   0.202
 8320X2IT    N138358   9.275   7.380   0.232
 8320X2IT   H1438359   9.313   7.305   0.174
 8320X2IT    C138360   9.188   7.465   0.148
 8320X2IT    H138361   9.188   7.455   0.040
 8320X2IT   C1138362   9.164   7.603   0.207
 8320X2IT    O338363   9.055   7.654   0.132
 8320X2IT   C1538364   8.984   7.765   0.187
 8321X2IT   H1838365   9.479   5.108   0.369
 8321X2IT    N438366   9.383   5.138   0.373
 8321X2IT   H1738367   9.364   5.235   0.351
 8321X2IT   C1438368   9.289   5.044   0.343
 8321X2IT    O538369   9.308   4.923   0.340
 8321X2IT    O438370   9.168   5.104   0.322
 8321X2IT   C1338371   9.057   5.015   0.297
 8321X2IT   C1038372   8.997   4.961   0.428
 8321X2IT    C938373   8.875   4.873   0.406
 8321X2IT    C438374   8.766   4.925   0.473
 8321X2IT    C538375   8.630   4.863   0.471
 8321X2IT    O138376   8.538   4.914   0.538
 8321X2IT    C638377   8.614   4.744   0.391
 8321X2IT   C1238378   8.479   4.676   0.385
 8321X2IT    C738379   8.723   4.692   0.325
 8321X2IT    C838380   8.862   4.756   0.328
 8321X2IT    O238381   8.952   4.703   0.261
 8321X2IT    N338382   8.719   4.581   0.249
 8321X2IT   H1538383   8.635   4.527   0.235
 8321X2IT   H1638384   8.806   4.552   0.203
 8321X2IT    N238385   8.799   5.034   0.547
 8321X2IT    C338386   8.715   5.151   0.577
 8321X2IT    C238387   8.797   5.265   0.518
 8321X2IT    H238388   8.779   5.368   0.551
 8321X2IT    N138389   8.834   5.240   0.377
 8321X2IT   H1438390   8.857   5.329   0.331
 8321X2IT    C138391   8.933   5.216   0.484
 8321X2IT    H138392   9.022   5.278   0.493
 8321X2IT   C1138393   8.942   5.071   0.527
 8321X2IT    O338394   9.013   5.075   0.649
 8321X2IT   C1538395   9.005   4.959   0.734
 8322X2IT   H1838396   0.799   7.231   6.167
 8322X2IT    N438397   0.786   7.208   6.070
 8322X2IT   H1738398   0.697   7.170   6.042
 8322X2IT   C1438399   0.857   7.282   5.980
 8322X2IT    O538400   0.953   7.353   6.007
 8322X2IT    O438401   0.809   7.262   5.854
 8322X2IT   C1338402   0.879   7.329   5.747
 8322X2IT   C1038403   1.003   7.250   5.702
 8322X2IT    C938404   1.075   7.314   5.586
 8322X2IT    C438405   1.081   7.225   5.479
 8322X2IT    C538406   1.146   7.258   5.348
 8322X2IT    O138407   1.150   7.171   5.259
 8322X2IT    C638408   1.201   7.390   5.333
 8322X2IT   C1238409   1.267   7.429   5.203
 8322X2IT    C738410   1.195   7.478   5.440
 8322X2IT    C838411   1.130   7.444   5.574
 8322X2IT    O238412   1.126   7.532   5.661
 8322X2IT    N338413   1.245   7.603   5.437
 8322X2IT   H1538414   1.289   7.642   5.356
 8322X2IT   H1638415   1.234   7.660   5.521
 8322X2IT    N238416   1.030   7.104   5.511
 8322X2IT    C338417   0.959   7.010   5.422
 8322X2IT    C238418   0.823   6.998   5.491
 8322X2IT    H238419   0.760   6.912   5.469
 8322X2IT    N138420   0.762   7.130   5.518
 8322X2IT   H1438421   0.661   7.118   5.530
 8322X2IT    C138422   0.831   7.057   5.626
 8322X2IT    H138423   0.776   7.019   5.711
 8322X2IT   C1138424   0.974   7.104   5.649
 8322X2IT    O338425   1.031   7.003   5.730
 8322X2IT   C1538426   1.174   6.998   5.736
 8323X2IT   H1838427   0.417   3.373   5.964
 8323X2IT    N438428   0.408   3.449   6.029
 8323X2IT   H1738429   0.370   3.536   5.993
 8323X2IT   C1438430   0.386   3.416   6.160
 8323X2IT    O538431   0.404   3.306   6.208
 8323X2IT    O438432   0.345   3.526   6.229
 8323X2IT   C1338433   0.325   3.508   6.371
 8323X2IT   C1038434   0.457   3.519   6.449
 8323X2IT    C938435   0.439   3.507   6.599
 8323X2IT    C438436   0.488   3.620   6.662
 8323X2IT    C538437   0.485   3.641   6.810
 8323X2IT    O138438   0.534   3.744   6.858
 8323X2IT    C638439   0.423   3.536   6.889
 8323X2IT   C1238440   0.416   3.551   7.039
 8323X2IT    C738441   0.375   3.423   6.826
 8323X2IT    C838442   0.380   3.403   6.674
 8323X2IT    O238443   0.330   3.299   6.628
 8323X2IT    N338444   0.319   3.320   6.890
 8323X2IT   H1538445   0.306   3.318   6.990
 8323X2IT   H1638446   0.285   3.242   6.833
 8323X2IT    N238447   0.546   3.706   6.574
 8323X2IT    C338448   0.550   3.853   6.581
 8323X2IT    C238449   0.480   3.893   6.452
 8323X2IT    H238450   0.496   3.993   6.411
 8323X2IT    N138451   0.349   3.826   6.436
 8323X2IT   H1438452   0.292   3.880   6.370
 8323X2IT    C138453   0.467   3.774   6.364
 8323X2IT    H138454   0.473   3.779   6.256
 8323X2IT   C1138455   0.533   3.656   6.434
 8323X2IT    O338456   0.659   3.644   6.370
 8323X2IT   C1538457   0.759   3.568   6.438
 8324X2IT   H1838458   4.933   8.098  -0.000
 8324X2IT    N438459   4.960   8.014   0.047
 8324X2IT   H1738460   4.985   7.935  -0.011
 8324X2IT   C1438461   5.018   8.028   0.169
 8324X2IT    O538462   5.016   8.129   0.237
 8324X2IT    O438463   5.076   7.910   0.207
 8324X2IT   C1338464   5.137   7.908   0.338
 8324X2IT   C1038465   5.032   7.880   0.448
 8324X2IT    C938466   5.092   7.870   0.586
 8324X2IT    C438467   5.063   7.748   0.642
 8324X2IT    C538468   5.109   7.705   0.779
 8324X2IT    O138469   5.074   7.594   0.822
 8324X2IT    C638470   5.190   7.799   0.851
 8324X2IT   C1238471   5.240   7.762   0.990
 8324X2IT    C738472   5.219   7.922   0.796
 8324X2IT    C838473   5.171   7.964   0.657
 8324X2IT    O238474   5.206   8.076   0.615
 8324X2IT    N338475   5.293   8.016   0.857
 8324X2IT   H1538476   5.333   8.004   0.948
 8324X2IT   H1638477   5.309   8.103   0.805
 8324X2IT    N238478   4.982   7.673   0.563
 8324X2IT    C338479   4.979   7.527   0.548
 8324X2IT    C238480   5.009   7.509   0.399
 8324X2IT    H238481   4.982   7.416   0.349
 8324X2IT    N138482   5.130   7.582   0.357
 8324X2IT   H1438483   5.166   7.542   0.270
 8324X2IT    C138484   4.997   7.641   0.331
 8324X2IT    H138485   4.961   7.651   0.229
 8324X2IT   C1138486   4.955   7.744   0.434
 8324X2IT    O338487   4.816   7.761   0.411
 8324X2IT   C1538488   4.739   7.822   0.516
 8325X2IT   H1838489   4.681   2.309   6.006
 8325X2IT    N438490   4.666   2.257   6.091
 8325X2IT   H1738491   4.585   2.195   6.093
 8325X2IT   C1438492   4.777   2.224   6.164
 8325X2IT    O538493   4.887   2.275   6.150
 8325X2IT    O438494   4.745   2.130   6.257
 8325X2IT   C1338495   4.851   2.090   6.346
 8325X2IT   C1038496   4.865   2.188   6.464
 8325X2IT    C938497   4.971   2.146   6.563
 8325X2IT    C438498   4.916   2.132   6.689
 8325X2IT    C538499   4.993   2.090   6.811
 8325X2IT    O138500   4.936   2.084   6.920
 8325X2IT    C638501   5.133   2.062   6.791
 8325X2IT   C1238502   5.217   2.019   6.910
 8325X2IT    C738503   5.189   2.077   6.666
 8325X2IT    C838504   5.109   2.120   6.543
 8325X2IT    O238505   5.169   2.127   6.434
 8325X2IT    N338506   5.319   2.055   6.638
 8325X2IT   H1538507   5.385   2.024   6.707
 8325X2IT   H1638508   5.349   2.068   6.541
 8325X2IT    N238509   4.785   2.167   6.691
 8325X2IT    C338510   4.677   2.110   6.774
 8325X2IT    C238511   4.580   2.058   6.669
 8325X2IT    H238512   4.476   2.040   6.696
 8325X2IT    N138513   4.646   1.970   6.569
 8325X2IT   H1438514   4.576   1.911   6.524
 8325X2IT    C138515   4.618   2.111   6.536
 8325X2IT    H138516   4.545   2.136   6.459
 8325X2IT   C1138517   4.738   2.203   6.555
 8325X2IT    O338518   4.682   2.333   6.550
 8325X2IT   C1538519   4.762   2.440   6.603
 8326X2IT   H1838520   0.931   6.358   0.517
 8326X2IT    N438521   1.025   6.331   0.540
 8326X2IT   H1738522   1.100   6.382   0.496
 8326X2IT   C1438523   1.044   6.279   0.665
 8326X2IT    O538524   0.956   6.239   0.739
 8326X2IT    O438525   1.177   6.275   0.694
 8326X2IT   C1338526   1.213   6.216   0.821
 8326X2IT   C1038527   1.220   6.063   0.812
 8326X2IT    C938528   1.264   5.998   0.941
 8326X2IT    C438529   1.378   5.922   0.920
 8326X2IT    C538530   1.448   5.844   1.028
 8326X2IT    O138531   1.547   5.776   0.999
 8326X2IT    C638532   1.393   5.855   1.161
 8326X2IT   C1238533   1.459   5.779   1.274
 8326X2IT    C738534   1.279   5.930   1.182
 8326X2IT    C838535   1.207   6.007   1.071
 8326X2IT    O238536   1.108   6.075   1.102
 8326X2IT    N338537   1.219   5.943   1.301
 8326X2IT   H1538538   1.254   5.901   1.385
 8326X2IT   H1638539   1.136   6.003   1.305
 8326X2IT    N238540   1.414   5.919   0.789
 8326X2IT    C338541   1.549   5.911   0.733
 8326X2IT    C238542   1.558   6.039   0.651
 8326X2IT    H238543   1.631   6.048   0.571
 8326X2IT    N138544   1.521   6.159   0.730
 8326X2IT   H1438545   1.560   6.242   0.685
 8326X2IT    C138546   1.422   6.099   0.638
 8326X2IT    H138547   1.389   6.152   0.550
 8326X2IT   C1138548   1.324   6.006   0.708
 8326X2IT    O338549   1.263   5.935   0.602
 8326X2IT   C1538550   1.194   5.813   0.636
 8327X2IT   H1838551   4.298   3.132   0.863
 8327X2IT    N438552   4.233   3.162   0.793
 8327X2IT   H1738553   4.265   3.165   0.697
 8327X2IT   C1438554   4.101   3.135   0.817
 8327X2IT    O538555   4.054   3.103   0.926
 8327X2IT    O438556   4.028   3.152   0.703
 8327X2IT   C1338557   3.885   3.133   0.715
 8327X2IT   C1038558   3.816   3.260   0.768
 8327X2IT    C938559   3.666   3.246   0.776
 8327X2IT    C438560   3.605   3.344   0.699
 8327X2IT    C538561   3.456   3.359   0.684
 8327X2IT    O138562   3.410   3.452   0.616
 8327X2IT    C638563   3.375   3.261   0.753
 8327X2IT   C1238564   3.224   3.270   0.742
 8327X2IT    C738565   3.435   3.164   0.830
 8327X2IT    C838566   3.587   3.151   0.845
 8327X2IT    O238567   3.631   3.057   0.914
 8327X2IT    N338568   3.368   3.070   0.899
 8327X2IT   H1538569   3.268   3.063   0.898
 8327X2IT   H1638570   3.424   3.002   0.952
 8327X2IT    N238571   3.695   3.430   0.645
 8327X2IT    C338572   3.687   3.500   0.516
 8327X2IT    C238573   3.812   3.449   0.444
 8327X2IT    H238574   3.853   3.506   0.361
 8327X2IT    N138575   3.820   3.301   0.444
 8327X2IT   H1438576   3.882   3.271   0.369
 8327X2IT    C138577   3.899   3.379   0.542
 8327X2IT    H138578   4.007   3.381   0.536
 8327X2IT   C1138579   3.834   3.388   0.679
 8327X2IT    O338580   3.906   3.491   0.744
 8327X2IT   C1538581   3.845   3.551   0.859
 8328X2IT   H1838582   5.138   5.194   0.682
 8328X2IT    N438583   5.054   5.151   0.651
 8328X2IT   H1738584   4.980   5.139   0.719
 8328X2IT   C1438585   5.021   5.170   0.519
 8328X2IT    O538586   5.097   5.211   0.433
 8328X2IT    O438587   4.891   5.134   0.498
 8328X2IT   C1338588   4.844   5.143   0.362
 8328X2IT   C1038589   4.883   5.018   0.281
 8328X2IT    C938590   4.830   5.020   0.139
 8328X2IT    C438591   4.750   4.909   0.116
 8328X2IT    C538592   4.681   4.881  -0.014
 8328X2IT    O138593   4.615   4.777  -0.027
 8328X2IT    C638594   4.698   4.980  -0.118
 8328X2IT   C1238595   4.630   4.958  -0.252
 8328X2IT    C738596   4.778   5.090  -0.096
 8328X2IT    C838597   4.848   5.117   0.037
 8328X2IT    O238598   4.914   5.222   0.048
 8328X2IT    N338599   4.801   5.186  -0.187
 8328X2IT   H1538600   4.760   5.185  -0.279
 8328X2IT   H1638601   4.860   5.264  -0.159
 8328X2IT    N238602   4.749   4.825   0.222
 8328X2IT    C338603   4.639   4.739   0.268
 8328X2IT    C238604   4.614   4.791   0.410
 8328X2IT    H238605   4.563   4.728   0.482
 8328X2IT    N138606   4.596   4.937   0.413
 8328X2IT   H1438607   4.547   4.963   0.499
 8328X2IT    C138608   4.727   4.879   0.450
 8328X2IT    H138609   4.764   4.885   0.551
 8328X2IT   C1138610   4.827   4.881   0.336
 8328X2IT    O338611   4.930   4.793   0.379
 8328X2IT   C1538612   5.020   4.744   0.278
 8329X2IT   H1838613   3.967   1.979   1.179
 8329X2IT    N438614   4.010   2.034   1.108
 8329X2IT   H1738615   4.072   2.108   1.137
 8329X2IT   C1438616   4.034   1.970   0.989
 8329X2IT    O538617   3.984   1.865   0.954
 8329X2IT    O438618   4.120   2.045   0.913
 8329X2IT   C1338619   4.150   1.993   0.781
 8329X2IT   C1038620   4.041   2.032   0.680
 8329X2IT    C938621   4.071   1.985   0.539
 8329X2IT    C438622   4.075   2.093   0.453
 8329X2IT    C538623   4.103   2.082   0.306
 8329X2IT    O138624   4.100   2.184   0.236
 8329X2IT    C638625   4.132   1.950   0.256
 8329X2IT   C1238626   4.162   1.932   0.108
 8329X2IT    C738627   4.128   1.842   0.342
 8329X2IT    C838628   4.097   1.855   0.491
 8329X2IT    O238629   4.101   1.751   0.560
 8329X2IT    N338630   4.151   1.716   0.304
 8329X2IT   H1538631   4.174   1.690   0.210
 8329X2IT   H1638632   4.147   1.644   0.377
 8329X2IT    N238633   4.041   2.209   0.515
 8329X2IT    C338634   4.091   2.345   0.487
 8329X2IT    C238635   4.155   2.384   0.620
 8329X2IT    H238636   4.171   2.489   0.643
 8329X2IT    N138637   4.250   2.282   0.669
 8329X2IT   H1438638   4.314   2.325   0.736
 8329X2IT    C138639   4.113   2.287   0.725
 8329X2IT    H138640   4.097   2.315   0.828
 8329X2IT   C1138641   4.019   2.187   0.661
 8329X2IT    O338642   3.890   2.230   0.702
 8329X2IT   C1538643   3.778   2.180   0.628
 8330X2IT   H1838644   1.154   5.146   1.374
 8330X2IT    N438645   1.111   5.105   1.294
 8330X2IT   H1738646   1.044   5.031   1.310
 8330X2IT   C1438647   1.095   5.186   1.185
 8330X2IT    O538648   1.152   5.293   1.168
 8330X2IT    O438649   1.009   5.129   1.096
 8330X2IT   C1338650   0.988   5.200   0.973
 8330X2IT   C1038651   1.099   5.170   0.870
 8330X2IT    C938652   1.076   5.238   0.737
 8330X2IT    C438653   1.071   5.144   0.636
 8330X2IT    C538654   1.049   5.178   0.491
 8330X2IT    O138655   1.050   5.087   0.407
 8330X2IT    C638656   1.029   5.317   0.460
 8330X2IT   C1238657   1.006   5.358   0.316
 8330X2IT    C738658   1.036   5.411   0.561
 8330X2IT    C838659   1.059   5.376   0.708
 8330X2IT    O238660   1.058   5.468   0.791
 8330X2IT    N338661   1.020   5.543   0.541
 8330X2IT   H1538662   1.002   5.584   0.451
 8330X2IT   H1638663   1.025   5.604   0.624
 8330X2IT    N238664   1.096   5.019   0.681
 8330X2IT    C338665   1.040   4.892   0.632
 8330X2IT    C238666   0.970   4.838   0.756
 8330X2IT    H238667   0.946   4.731   0.763
 8330X2IT    N138668   0.877   4.937   0.816
 8330X2IT   H1438669   0.808   4.888   0.874
 8330X2IT    C138670   1.011   4.916   0.875
 8330X2IT    H138671   1.022   4.873   0.973
 8330X2IT   C1138672   1.114   5.019   0.829
 8330X2IT    O338673   1.238   4.963   0.868
 8330X2IT   C1538674   1.356   5.017   0.806
 8331X2IT   H1838675   0.321   5.953   7.038
 8331X2IT    N438676   0.350   5.885   6.971
 8331X2IT   H1738677   0.437   5.902   6.922
 8331X2IT   C1438678   0.312   5.756   6.995
 8331X2IT    O538679   0.225   5.722   7.074
 8331X2IT    O438680   0.383   5.670   6.916
 8331X2IT   C1338681   0.349   5.531   6.926
 8331X2IT   C1038682   0.227   5.496   6.838
 8331X2IT    C938683   0.192   5.349   6.841
 8331X2IT    C438684   0.195   5.297   6.712
 8331X2IT    C538685   0.166   5.154   6.679
 8331X2IT    O138686   0.168   5.117   6.561
 8331X2IT    C638687   0.137   5.067   6.791
 8331X2IT   C1238688   0.107   4.920   6.764
 8331X2IT    C738689   0.132   5.119   6.919
 8331X2IT    C838690   0.161   5.266   6.951
 8331X2IT    O238691   0.159   5.301   7.070
 8331X2IT    N338692   0.104   5.046   7.028
 8331X2IT   H1538693   0.084   4.948   7.025
 8331X2IT   H1638694   0.105   5.095   7.118
 8331X2IT    N238695   0.220   5.393   6.619
 8331X2IT    C338696   0.294   5.379   6.493
 8331X2IT    C238697   0.408   5.478   6.510
 8331X2IT    H238698   0.461   5.516   6.423
 8331X2IT    N138699   0.481   5.457   6.637
 8331X2IT   H1438700   0.574   5.499   6.630
 8331X2IT    C138701   0.380   5.564   6.628
 8331X2IT    H138702   0.409   5.669   6.633
 8331X2IT   C1138703   0.244   5.525   6.684
 8331X2IT    O338704   0.156   5.624   6.636
 8331X2IT   C1538705   0.016   5.595   6.639
 8332X2IT   H1838706   0.222   8.102   0.617
 8332X2IT    N438707   0.276   8.137   0.540
 8332X2IT   H1738708   0.376   8.128   0.547
 8332X2IT   C1438709   0.217   8.131   0.417
 8332X2IT    O538710   0.098   8.115   0.397
 8332X2IT    O438711   0.310   8.152   0.320
 8332X2IT   C1338712   0.261   8.156   0.184
 8332X2IT   C1038713   0.206   8.295   0.148
 8332X2IT    C938714   0.160   8.305   0.004
 8332X2IT    C438715   0.229   8.406  -0.061
 8332X2IT    C538716   0.207   8.442  -0.205
 8332X2IT    O138717   0.271   8.536  -0.254
 8332X2IT    C638718   0.111   8.363  -0.278
 8332X2IT   C1238719   0.085   8.394  -0.424
 8332X2IT    C738720   0.041   8.263  -0.212
 8332X2IT    C838721   0.063   8.228  -0.065
 8332X2IT    O238722  -0.001   8.133  -0.017
 8332X2IT    N338723  -0.051   8.186  -0.271
 8332X2IT   H1538724  -0.077   8.194  -0.368
 8332X2IT   H1638725  -0.095   8.114  -0.213
 8332X2IT    N238726   0.312   8.473   0.023
 8332X2IT    C338727   0.442   8.535  -0.009
 8332X2IT    C238728   0.536   8.461   0.084
 8332X2IT    H238729   0.633   8.504   0.109
 8332X2IT    N138730   0.523   8.314   0.072
 8332X2IT   H1438731   0.608   8.269   0.108
 8332X2IT    C138732   0.457   8.384   0.184
 8332X2IT    H138733   0.490   8.369   0.286
 8332X2IT   C1138734   0.310   8.413   0.159
 8332X2IT    O338735   0.276   8.508   0.258
 8332X2IT   C1538736   0.156   8.583   0.238
 8333X2IT   H1838737   7.301   2.886   6.294
 8333X2IT    N438738   7.380   2.838   6.333
 8333X2IT   H1738739   7.469   2.850   6.287
 8333X2IT   C1438740   7.377   2.815   6.467
 8333X2IT    O538741   7.278   2.823   6.538
 8333X2IT    O438742   7.501   2.777   6.511
 8333X2IT   C1338743   7.511   2.743   6.651
 8333X2IT   C1038744   7.467   2.597   6.677
 8333X2IT    C938745   7.483   2.556   6.821
 8333X2IT    C438746   7.567   2.446   6.830
 8333X2IT    C538747   7.604   2.379   6.959
 8333X2IT    O138748   7.677   2.279   6.958
 8333X2IT    C638749   7.551   2.438   7.080
 8333X2IT   C1238750   7.585   2.376   7.214
 8333X2IT    C738751   7.467   2.547   7.071
 8333X2IT    C838752   7.429   2.614   6.938
 8333X2IT    O238753   7.356   2.714   6.942
 8333X2IT    N338754   7.411   2.608   7.177
 8333X2IT   H1538755   7.427   2.578   7.272
 8333X2IT   H1638756   7.351   2.689   7.158
 8333X2IT    N238757   7.604   2.400   6.708
 8333X2IT    C338758   7.732   2.337   6.670
 8333X2IT    C238759   7.785   2.433   6.564
 8333X2IT    H238760   7.860   2.398   6.493
 8333X2IT    N138761   7.786   2.573   6.610
 8333X2IT   H1438762   7.852   2.627   6.552
 8333X2IT    C138763   7.676   2.526   6.523
 8333X2IT    H138764   7.665   2.563   6.422
 8333X2IT   C1138765   7.551   2.488   6.600
 8333X2IT    O338766   7.473   2.415   6.506
 8333X2IT   C1538767   7.368   2.333   6.558
 8334X2IT   H1838768   7.635   8.101  -0.473
 8334X2IT    N438769   7.670   8.124  -0.382
 8334X2IT   H1738770   7.642   8.213  -0.344
 8334X2IT   C1438771   7.695   8.020  -0.298
 8334X2IT    O538772   7.704   7.903  -0.331
 8334X2IT    O438773   7.712   8.066  -0.170
 8334X2IT   C1338774   7.745   7.968  -0.071
 8334X2IT   C1038775   7.896   7.937  -0.070
 8334X2IT    C938776   7.936   7.839   0.038
 8334X2IT    C438777   8.031   7.896   0.121
 8334X2IT    C538778   8.092   7.826   0.239
 8334X2IT    O138779   8.179   7.883   0.306
 8334X2IT    C638780   8.044   7.692   0.266
 8334X2IT   C1238781   8.101   7.616   0.384
 8334X2IT    C738782   7.950   7.635   0.182
 8334X2IT    C838783   7.890   7.708   0.062
 8334X2IT    O238784   7.803   7.648  -0.004
 8334X2IT    N338785   7.901   7.511   0.199
 8334X2IT   H1538786   7.929   7.451   0.274
 8334X2IT   H1638787   7.831   7.480   0.131
 8334X2IT    N238788   8.068   8.019   0.079
 8334X2IT    C338789   8.109   8.135   0.161
 8334X2IT    C238790   8.005   8.239   0.123
 8334X2IT    H238791   8.025   8.345   0.141
 8334X2IT    N138792   7.866   8.189   0.136
 8334X2IT   H1438793   7.802   8.267   0.144
 8334X2IT    C138794   7.931   8.194   0.003
 8334X2IT    H138795   7.894   8.261  -0.073
 8334X2IT   C1138796   7.990   8.060  -0.041
 8334X2IT    O338797   8.073   8.094  -0.150
 8334X2IT   C1538798   8.172   7.998  -0.189
 8335X2IT   H1838799   8.009   6.806   5.979
 8335X2IT    N438800   8.043   6.889   6.024
 8335X2IT   H1738801   8.010   6.978   5.988
 8335X2IT   C1438802   8.071   6.879   6.157
 8335X2IT    O538803   8.087   6.774   6.218
 8335X2IT    O438804   8.085   7.003   6.212
 8335X2IT   C1338805   8.122   7.007   6.351
 8335X2IT   C1038806   8.275   6.993   6.369
 8335X2IT    C938807   8.319   7.004   6.514
 8335X2IT    C438808   8.409   7.107   6.528
 8335X2IT    C538809   8.472   7.146   6.659
 8335X2IT    O138810   8.556   7.237   6.662
 8335X2IT    C638811   8.431   7.071   6.775
 8335X2IT   C1238812   8.490   7.105   6.910
 8335X2IT    C738813   8.341   6.967   6.760
 8335X2IT    C838814   8.278   6.928   6.626
 8335X2IT    O238815   8.195   6.836   6.626
 8335X2IT    N338816   8.298   6.891   6.862
 8335X2IT   H1538817   8.327   6.904   6.957
 8335X2IT   H1638818   8.230   6.817   6.840
 8335X2IT    N238819   8.441   7.164   6.409
 8335X2IT    C338820   8.475   7.305   6.382
 8335X2IT    C238821   8.366   7.346   6.284
 8335X2IT    H238822   8.382   7.433   6.219
 8335X2IT    N138823   8.231   7.314   6.333
 8335X2IT   H1438824   8.162   7.372   6.284
 8335X2IT    C138825   8.296   7.225   6.235
 8335X2IT    H138826   8.257   7.215   6.134
 8335X2IT   C1138827   8.362   7.104   6.299
 8335X2IT    O338828   8.444   7.051   6.196
 8335X2IT   C1538829   8.548   6.961   6.236
   9.48825   8.49895   7.30414
