UNITED ATOM STRUCTURE FOR MOLECULE UNK
12057
    0X2IT   H18    1   3.092   2.352   2.583
    0X2IT    N4    2   3.026   2.419   2.548
    0X2IT   H17    3   3.059   2.484   2.478
    0X2IT   C14    4   2.895   2.380   2.546
    0X2IT    O5    5   2.849   2.285   2.607
    0X2IT    O4    6   2.822   2.466   2.469
    0X2IT   C13    7   2.680   2.441   2.463
    0X2IT   C10    8   2.607   2.502   2.584
    0X2IT    C9    9   2.457   2.484   2.578
    0X2IT    C4   10   2.394   2.607   2.582
    0X2IT    C5   11   2.245   2.625   2.577
    0X2IT    O1   12   2.197   2.739   2.585
    0X2IT    C6   13   2.166   2.505   2.564
    0X2IT   C12   14   2.015   2.516   2.558
    0X2IT    C7   15   2.229   2.382   2.561
    0X2IT    C8   16   2.381   2.365   2.567
    0X2IT    O2   17   2.427   2.250   2.559
    0X2IT    N3   18   2.164   2.265   2.551
    0X2IT   H15   19   2.064   2.258   2.544
    0X2IT   H16   20   2.221   2.180   2.548
    0X2IT    N2   21   2.482   2.709   2.599
    0X2IT    C3   22   2.473   2.846   2.546
    0X2IT    C2   23   2.599   2.856   2.461
    0X2IT    H2   24   2.639   2.954   2.435
    0X2IT    N1   25   2.611   2.744   2.365
    0X2IT   H14   26   2.674   2.771   2.289
    0X2IT    C1   27   2.688   2.741   2.491
    0X2IT    H1   28   2.796   2.748   2.490
    0X2IT   C11   29   2.622   2.658   2.600
    0X2IT    O3   30   2.691   2.695   2.718
    0X2IT   C15   31   2.628   2.664   2.843
    1X2IT   H18   32   4.934   5.250   0.582
    1X2IT    N4   33   4.878   5.168   0.594
    1X2IT   H17   34   4.900   5.107   0.672
    1X2IT   C14   35   4.748   5.176   0.552
    1X2IT    O5   36   4.703   5.263   0.478
    1X2IT    O4   37   4.676   5.072   0.602
    1X2IT   C13   38   4.538   5.064   0.560
    1X2IT   C10   39   4.524   4.996   0.423
    1X2IT    C9   40   4.380   4.980   0.379
    1X2IT    C4   41   4.352   4.847   0.356
    1X2IT    C5   42   4.218   4.796   0.312
    1X2IT    O1   43   4.202   4.675   0.290
    1X2IT    C6   44   4.113   4.894   0.297
    1X2IT   C12   45   3.975   4.850   0.253
    1X2IT    C7   46   4.142   5.028   0.319
    1X2IT    C8   47   4.279   5.078   0.363
    1X2IT    O2   48   4.293   5.200   0.384
    1X2IT    N3   49   4.052   5.127   0.305
    1X2IT   H15   50   3.956   5.111   0.279
    1X2IT   H16   51   4.084   5.222   0.326
    1X2IT    N2   52   4.462   4.768   0.370
    1X2IT    C3   53   4.468   4.629   0.419
    1X2IT    C2   54   4.558   4.642   0.541
    1X2IT    H2   55   4.609   4.554   0.580
    1X2IT    N1   56   4.512   4.748   0.634
    1X2IT   H14   57   4.552   4.731   0.727
    1X2IT    C1   58   4.623   4.776   0.540
    1X2IT    H1   59   4.724   4.793   0.577
    1X2IT   C11   60   4.579   4.849   0.415
    1X2IT    O3   61   4.689   4.836   0.327
    1X2IT   C15   62   4.664   4.860   0.187
    2X2IT   H18   63   2.507   1.602   2.744
    2X2IT    N4   64   2.559   1.520   2.719
    2X2IT   H17   65   2.573   1.451   2.791
    2X2IT   C14   66   2.548   1.479   2.589
    2X2IT    O5   67   2.506   1.547   2.497
    2X2IT    O4   68   2.596   1.352   2.576
    2X2IT   C13   69   2.598   1.298   2.442
    2X2IT   C10   70   2.723   1.343   2.365
    2X2IT    C9   71   2.732   1.283   2.226
    2X2IT    C4   72   2.850   1.212   2.212
    2X2IT    C5   73   2.889   1.139   2.087
    2X2IT    O1   74   2.999   1.081   2.083
    2X2IT    C6   75   2.795   1.143   1.978
    2X2IT   C12   76   2.829   1.071   1.849
    2X2IT    C7   77   2.678   1.215   1.992
    2X2IT    C8   78   2.639   1.289   2.119
    2X2IT    O2   79   2.529   1.347   2.122
    2X2IT    N3   80   2.585   1.225   1.895
    2X2IT   H15   81   2.594   1.181   1.805
    2X2IT   H16   82   2.501   1.280   1.916
    2X2IT    N2   83   2.929   1.223   2.322
    2X2IT    C3   84   3.020   1.122   2.378
    2X2IT    C2   85   2.964   1.100   2.518
    2X2IT    H2   86   3.027   1.057   2.595
    2X2IT    N1   87   2.819   1.070   2.516
    2X2IT   H14   88   2.793   1.023   2.603
    2X2IT    C1   89   2.865   1.207   2.548
    2X2IT    H1   90   2.851   1.248   2.647
    2X2IT   C11   91   2.861   1.302   2.429
    2X2IT    O3   92   2.938   1.413   2.470
    2X2IT   C15   93   2.985   1.501   2.368
    3X2IT   H18   94   2.879   0.535   1.052
    3X2IT    N4   95   2.876   0.475   0.972
    3X2IT   H17   96   2.892   0.376   0.987
    3X2IT   C14   97   2.793   0.513   0.870
    3X2IT    O5   98   2.745   0.625   0.856
    3X2IT    O4   99   2.774   0.409   0.783
    3X2IT   C13  100   2.693   0.437   0.667
    3X2IT   C10  101   2.776   0.503   0.556
    3X2IT    C9  102   2.697   0.528   0.429
    3X2IT    C4  103   2.756   0.463   0.322
    3X2IT    C5  104   2.702   0.466   0.182
    3X2IT    O1  105   2.764   0.409   0.092
    3X2IT    C6  106   2.580   0.540   0.162
    3X2IT   C12  107   2.520   0.547   0.023
    3X2IT    C7  108   2.521   0.605   0.269
    3X2IT    C8  109   2.577   0.602   0.411
    3X2IT    O2  110   2.514   0.661   0.500
    3X2IT    N3  111   2.408   0.677   0.259
    3X2IT   H15  112   2.357   0.688   0.174
    3X2IT   H16  113   2.373   0.720   0.345
    3X2IT    N2  114   2.873   0.403   0.357
    3X2IT    C3  115   2.930   0.279   0.303
    3X2IT    C2  116   2.939   0.191   0.427
    3X2IT    H2  117   3.007   0.105   0.428
    3X2IT    N1  118   2.810   0.183   0.500
    3X2IT   H14  119   2.810   0.100   0.559
    3X2IT    C1  120   2.917   0.274   0.548
    3X2IT    H1  121   2.967   0.256   0.643
    3X2IT   C11  122   2.898   0.418   0.503
    3X2IT    O3  123   3.023   0.479   0.529
    3X2IT   C15  124   3.051   0.603   0.463
    4X2IT   H18  125   1.272   2.467   0.694
    4X2IT    N4  126   1.280   2.443   0.598
    4X2IT   H17  127   1.268   2.345   0.574
    4X2IT   C14  128   1.242   2.538   0.507
    4X2IT    O5  129   1.227   2.656   0.532
    4X2IT    O4  130   1.229   2.482   0.383
    4X2IT   C13  131   1.196   2.573   0.276
    4X2IT   C10  132   1.321   2.642   0.220
    4X2IT    C9  133   1.292   2.732   0.103
    4X2IT    C4  134   1.365   2.693  -0.008
    4X2IT    C5  135   1.359   2.761  -0.141
    4X2IT    O1  136   1.431   2.721  -0.234
    4X2IT    C6  137   1.268   2.872  -0.153
    4X2IT   C12  138   1.256   2.945  -0.285
    4X2IT    C7  139   1.195   2.912  -0.042
    4X2IT    C8  140   1.203   2.842   0.094
    4X2IT    O2  141   1.130   2.884   0.185
    4X2IT    N3  142   1.109   3.016  -0.042
    4X2IT   H15  143   1.091   3.071  -0.124
    4X2IT   H16  144   1.060   3.035   0.045
    4X2IT    N2  145   1.449   2.590   0.021
    4X2IT    C3  146   1.491   2.480  -0.067
    4X2IT    C2  147   1.442   2.357   0.008
    4X2IT    H2  148   1.486   2.260  -0.013
    4X2IT    N1  149   1.299   2.367   0.045
    4X2IT   H14  150   1.262   2.274   0.063
    4X2IT    C1  151   1.403   2.397   0.146
    4X2IT    H1  152   1.416   2.332   0.232
    4X2IT   C11  153   1.431   2.545   0.162
    4X2IT    O3  154   1.553   2.550   0.235
    4X2IT   C15  155   1.626   2.673   0.233
    5X2IT   H18  156   4.221   0.458   4.089
    5X2IT    N4  157   4.273   0.534   4.048
    5X2IT   H17  158   4.361   0.510   4.004
    5X2IT   C14  159   4.200   0.638   3.999
    5X2IT    O5  160   4.083   0.660   4.026
    5X2IT    O4  161   4.278   0.717   3.920
    5X2IT   C13  162   4.215   0.835   3.866
    5X2IT   C10  163   4.218   0.951   3.968
    5X2IT    C9  164   4.159   1.079   3.913
    5X2IT    C4  165   4.253   1.181   3.919
    5X2IT    C5  166   4.227   1.321   3.872
    5X2IT    O1  167   4.316   1.407   3.884
    5X2IT    C6  168   4.097   1.347   3.815
    5X2IT   C12  169   4.065   1.486   3.765
    5X2IT    C7  170   4.003   1.246   3.810
    5X2IT    C8  171   4.030   1.103   3.859
    5X2IT    O2  172   3.940   1.019   3.846
    5X2IT    N3  173   3.879   1.261   3.760
    5X2IT   H15  174   3.846   1.347   3.722
    5X2IT   H16  175   3.819   1.178   3.760
    5X2IT    N2  176   4.367   1.141   3.979
    5X2IT    C3  177   4.505   1.185   3.951
    5X2IT    C2  178   4.573   1.055   3.912
    5X2IT    H2  179   4.682   1.048   3.916
    5X2IT    N1  180   4.499   0.982   3.806
    5X2IT   H14  181   4.563   0.917   3.759
    5X2IT    C1  182   4.486   0.941   3.947
    5X2IT    H1  183   4.524   0.845   3.980
    5X2IT   C11  184   4.361   0.996   4.014
    5X2IT    O3  185   4.384   0.974   4.152
    5X2IT   C15  186   4.304   1.049   4.245
    6X2IT   H18  187   2.304   1.095  -0.409
    6X2IT    N4  188   2.233   1.126  -0.345
    6X2IT   H17  189   2.139   1.135  -0.381
    6X2IT   C14  190   2.252   1.095  -0.213
    6X2IT    O5  191   2.357   1.057  -0.164
    6X2IT    O4  192   2.136   1.116  -0.144
    6X2IT   C13  193   2.142   1.092  -0.002
    6X2IT   C10  194   2.199   1.215   0.073
    6X2IT    C9  195   2.200   1.197   0.223
    6X2IT    C4  196   2.127   1.297   0.284
    6X2IT    C5  197   2.107   1.308   0.432
    6X2IT    O1  198   2.043   1.404   0.478
    6X2IT    C6  199   2.168   1.205   0.513
    6X2IT   C12  200   2.152   1.211   0.664
    6X2IT    C7  201   2.242   1.106   0.453
    6X2IT    C8  202   2.262   1.096   0.301
    6X2IT    O2  203   2.327   1.000   0.257
    6X2IT    N3  204   2.304   1.007   0.520
    6X2IT   H15  205   2.300   0.998   0.620
    6X2IT   H16  206   2.355   0.938   0.464
    6X2IT    N2  207   2.081   1.388   0.194
    6X2IT    C3  208   1.955   1.464   0.200
    6X2IT    C2  209   1.885   1.420   0.071
    6X2IT    H2  210   1.806   1.482   0.029
    6X2IT    N1  211   1.878   1.273   0.059
    6X2IT   H14  212   1.803   1.248  -0.006
    6X2IT    C1  213   1.982   1.347  -0.015
    6X2IT    H1  214   1.980   1.352  -0.123
    6X2IT   C11  215   2.117   1.348   0.055
    6X2IT    O3  216   2.190   1.449  -0.012
    6X2IT   C15  217   2.306   1.501   0.055
    7X2IT   H18  218   2.638   3.103   4.486
    7X2IT    N4  219   2.661   3.054   4.402
    7X2IT   H17  220   2.682   2.956   4.410
    7X2IT   C14  221   2.603   3.100   4.287
    7X2IT    O5  222   2.549   3.209   4.274
    7X2IT    O4  223   2.617   3.007   4.187
    7X2IT   C13  224   2.565   3.045   4.058
    7X2IT   C10  225   2.667   3.131   3.980
    7X2IT    C9  226   2.620   3.167   3.841
    7X2IT    C4  227   2.710   3.121   3.747
    7X2IT    C5  228   2.693   3.140   3.599
    7X2IT    O1  229   2.781   3.099   3.522
    7X2IT    C6  230   2.573   3.206   3.555
    7X2IT   C12  231   2.549   3.228   3.407
    7X2IT    C7  232   2.483   3.253   3.650
    7X2IT    C8  233   2.502   3.234   3.800
    7X2IT    O2  234   2.413   3.276   3.876
    7X2IT    N3  235   2.370   3.318   3.619
    7X2IT   H15  236   2.341   3.337   3.525
    7X2IT   H16  237   2.310   3.346   3.697
    7X2IT    N2  238   2.820   3.065   3.804
    7X2IT    C3  239   2.901   2.953   3.753
    7X2IT    C2  240   2.887   2.850   3.865
    7X2IT    H2  241   2.961   2.770   3.874
    7X2IT    N1  242   2.746   2.824   3.900
    7X2IT   H14  243   2.739   2.734   3.947
    7X2IT    C1  244   2.827   2.915   3.984
    7X2IT    H1  245   2.853   2.887   4.086
    7X2IT   C11  246   2.806   3.062   3.952
    7X2IT    O3  247   2.914   3.127   4.017
    7X2IT   C15  248   2.944   3.261   3.974
    8X2IT   H18  249   3.524   2.521   4.086
    8X2IT    N4  250   3.558   2.509   4.179
    8X2IT   H17  251   3.657   2.524   4.194
    8X2IT   C14  252   3.471   2.537   4.281
    8X2IT    O5  253   3.350   2.548   4.269
    8X2IT    O4  254   3.539   2.547   4.399
    8X2IT   C13  255   3.459   2.570   4.516
    8X2IT   C10  256   3.400   2.438   4.571
    8X2IT    C9  257   3.321   2.457   4.699
    8X2IT    C4  258   3.374   2.380   4.800
    8X2IT    C5  259   3.320   2.376   4.940
    8X2IT    O1  260   3.371   2.301   5.023
    8X2IT    C6  261   3.207   2.462   4.968
    8X2IT   C12  262   3.147   2.463   5.107
    8X2IT    C7  263   3.153   2.538   4.866
    8X2IT    C8  264   3.209   2.541   4.723
    8X2IT    O2  265   3.155   2.617   4.641
    8X2IT    N3  266   3.047   2.620   4.881
    8X2IT   H15  267   2.999   2.631   4.969
    8X2IT   H16  268   3.017   2.673   4.800
    8X2IT    N2  269   3.476   2.302   4.756
    8X2IT    C3  270   3.596   2.260   4.831
    8X2IT    C2  271   3.709   2.318   4.747
    8X2IT    H2  272   3.809   2.278   4.756
    8X2IT    N1  273   3.690   2.463   4.720
    8X2IT   H14  274   3.780   2.505   4.695
    8X2IT    C1  275   3.654   2.363   4.616
    8X2IT    H1  276   3.710   2.358   4.524
    8X2IT   C11  277   3.506   2.330   4.613
    8X2IT    O3  278   3.499   2.212   4.534
    8X2IT   C15  279   3.379   2.134   4.544
    9X2IT   H18  280   0.295   4.691   4.715
    9X2IT    N4  281   0.365   4.629   4.679
    9X2IT   H17  282   0.351   4.530   4.693
    9X2IT   C14  283   0.430   4.671   4.566
    9X2IT    O5  284   0.431   4.786   4.525
    9X2IT    O4  285   0.499   4.567   4.510
    9X2IT   C13  286   0.578   4.599   4.394
    9X2IT   C10  287   0.716   4.656   4.434
    9X2IT    C9  288   0.805   4.684   4.315
    9X2IT    C4  289   0.923   4.613   4.326
    9X2IT    C5  290   1.033   4.617   4.224
    9X2IT    O1  291   1.137   4.553   4.244
    9X2IT    C6  292   1.010   4.699   4.108
    9X2IT   C12  293   1.117   4.708   4.001
    9X2IT    C7  294   0.893   4.771   4.097
    9X2IT    C8  295   0.781   4.766   4.202
    9X2IT    O2  296   0.678   4.832   4.180
    9X2IT    N3  297   0.863   4.852   3.994
    9X2IT   H15  298   0.925   4.865   3.915
    9X2IT   H16  299   0.773   4.899   3.996
    9X2IT    N2  300   0.931   4.544   4.443
    9X2IT    C3  301   0.996   4.415   4.468
    9X2IT    C2  302   0.880   4.329   4.517
    9X2IT    H2  303   0.900   4.239   4.575
    9X2IT    N1  304   0.764   4.333   4.425
    9X2IT   H14  305   0.705   4.251   4.441
    9X2IT    C1  306   0.763   4.416   4.547
    9X2IT    H1  307   0.693   4.396   4.627
    9X2IT   C11  308   0.805   4.560   4.522
    9X2IT    O3  309   0.830   4.612   4.651
    9X2IT   C15  310   0.908   4.732   4.660
   10X2IT   H18  311   2.670   2.620   1.144
   10X2IT    N4  312   2.718   2.669   1.071
   10X2IT   H17  313   2.685   2.656   0.977
   10X2IT   C14  314   2.776   2.788   1.105
   10X2IT    O5  315   2.796   2.826   1.219
   10X2IT    O4  316   2.811   2.857   0.993
   10X2IT   C13  317   2.879   2.983   1.014
   10X2IT   C10  318   3.029   2.962   1.036
   10X2IT    C9  319   3.105   3.092   1.052
   10X2IT    C4  320   3.205   3.101   0.956
   10X2IT    C5  321   3.298   3.217   0.942
   10X2IT    O1  322   3.387   3.215   0.856
   10X2IT    C6  323   3.278   3.327   1.035
   10X2IT   C12  324   3.369   3.448   1.026
   10X2IT    C7  325   3.180   3.317   1.131
   10X2IT    C8  326   3.086   3.197   1.144
   10X2IT    O2  327   2.998   3.202   1.232
   10X2IT    N3  328   3.155   3.413   1.222
   10X2IT   H15  329   3.207   3.499   1.227
   10X2IT   H16  330   3.079   3.396   1.288
   10X2IT    N2  331   3.213   2.988   0.880
   10X2IT    C3  332   3.250   2.977   0.738
   10X2IT    C2  333   3.126   2.914   0.677
   10X2IT    H2  334   3.132   2.863   0.581
   10X2IT    N1  335   3.002   2.988   0.712
   10X2IT   H14  336   2.929   2.966   0.644
   10X2IT    C1  337   3.037   2.865   0.786
   10X2IT    H1  338   2.976   2.776   0.776
   10X2IT   C11  339   3.106   2.891   0.918
   10X2IT    O3  340   3.160   2.765   0.955
   10X2IT   C15  341   3.263   2.764   1.055
   11X2IT   H18  342   2.812   4.768   1.719
   11X2IT    N4  343   2.840   4.776   1.623
   11X2IT   H17  344   2.914   4.715   1.591
   11X2IT   C14  345   2.742   4.814   1.535
   11X2IT    O5  346   2.636   4.865   1.565
   11X2IT    O4  347   2.784   4.791   1.407
   11X2IT   C13  348   2.694   4.833   1.302
   11X2IT   C10  349   2.710   4.983   1.271
   11X2IT    C9  350   2.622   5.029   1.157
   11X2IT    C4  351   2.699   5.084   1.056
   11X2IT    C5  352   2.644   5.138   0.928
   11X2IT    O1  353   2.720   5.189   0.845
   11X2IT    C6  354   2.501   5.129   0.911
   11X2IT   C12  355   2.438   5.182   0.784
   11X2IT    C7  356   2.423   5.076   1.012
   11X2IT    C8  357   2.481   5.021   1.142
   11X2IT    O2  358   2.403   4.971   1.225
   11X2IT    N3  359   2.290   5.065   1.006
   11X2IT   H15  360   2.235   5.094   0.927
   11X2IT   H16  361   2.243   5.022   1.086
   11X2IT    N2  362   2.831   5.089   1.090
   11X2IT    C3  363   2.948   5.075   1.001
   11X2IT    C2  364   3.019   4.954   1.060
   11X2IT    H2  365   3.124   4.938   1.039
   11X2IT    N1  366   2.928   4.838   1.076
   11X2IT   H14  367   2.983   4.752   1.081
   11X2IT    C1  368   2.960   4.922   1.193
   11X2IT    H1  369   3.018   4.883   1.275
   11X2IT   C11  370   2.854   5.027   1.223
   11X2IT    O3  371   2.917   5.116   1.313
   11X2IT   C15  372   2.857   5.245   1.330
   12X2IT   H18  373   0.624   1.032   4.211
   12X2IT    N4  374   0.624   1.131   4.193
   12X2IT   H17  375   0.585   1.162   4.106
   12X2IT   C14  376   0.617   1.212   4.303
   12X2IT    O5  377   0.637   1.178   4.418
   12X2IT    O4  378   0.587   1.340   4.264
   12X2IT   C13  379   0.583   1.439   4.369
   12X2IT   C10  380   0.723   1.492   4.402
   12X2IT    C9  381   0.722   1.601   4.507
   12X2IT    C4  382   0.780   1.716   4.457
   12X2IT    C5  383   0.795   1.843   4.535
   12X2IT    O1  384   0.852   1.940   4.483
   12X2IT    C6  385   0.740   1.844   4.668
   12X2IT   C12  386   0.751   1.969   4.752
   12X2IT    C7  387   0.683   1.729   4.719
   12X2IT    C8  388   0.669   1.599   4.639
   12X2IT    O2  389   0.612   1.503   4.692
   12X2IT    N3  390   0.631   1.719   4.842
   12X2IT   H15  391   0.629   1.795   4.908
   12X2IT   H16  392   0.589   1.629   4.868
   12X2IT    N2  393   0.831   1.697   4.332
   12X2IT    C3  394   0.839   1.795   4.223
   12X2IT    C2  395   0.756   1.729   4.114
   12X2IT    H2  396   0.769   1.759   4.010
   12X2IT    N1  397   0.622   1.688   4.162
   12X2IT   H14  398   0.559   1.677   4.082
   12X2IT    C1  399   0.729   1.587   4.151
   12X2IT    H1  400   0.723   1.507   4.079
   12X2IT   C11  401   0.800   1.560   4.283
   12X2IT    O3  402   0.917   1.490   4.245
   12X2IT   C15  403   1.023   1.484   4.342
   13X2IT   H18  404   0.209   4.492   4.272
   13X2IT    N4  405   0.278   4.488   4.200
   13X2IT   H17  406   0.369   4.452   4.226
   13X2IT   C14  407   0.233   4.467   4.072
   13X2IT    O5  408   0.117   4.482   4.036
   13X2IT    O4  409   0.337   4.433   3.991
   13X2IT   C13  410   0.305   4.415   3.851
   13X2IT   C10  411   0.302   4.549   3.776
   13X2IT    C9  412   0.276   4.534   3.628
   13X2IT    C4  413   0.379   4.589   3.555
   13X2IT    C5  414   0.385   4.590   3.405
   13X2IT    O1  415   0.480   4.644   3.348
   13X2IT    C6  416   0.276   4.526   3.336
   13X2IT   C12  417   0.275   4.523   3.185
   13X2IT    C7  418   0.171   4.472   3.409
   13X2IT    C8  419   0.166   4.472   3.562
   13X2IT    O2  420   0.070   4.417   3.617
   13X2IT    N3  421   0.064   4.412   3.354
   13X2IT   H15  422   0.053   4.401   3.255
   13X2IT   H16  423  -0.006   4.374   3.418
   13X2IT    N2  424   0.472   4.649   3.635
   13X2IT    C3  425   0.617   4.659   3.613
   13X2IT    C2  426   0.673   4.588   3.736
   13X2IT    H2  427   0.776   4.606   3.767
   13X2IT    N1  428   0.613   4.454   3.755
   13X2IT   H14  429   0.675   4.397   3.814
   13X2IT    C1  430   0.564   4.568   3.835
   13X2IT    H1  431   0.580   4.571   3.942
   13X2IT   C11  432   0.437   4.630   3.778
   13X2IT    O3  433   0.427   4.754   3.847
   13X2IT   C15  434   0.340   4.853   3.789
   14X2IT   H18  435   1.635   0.882   2.622
   14X2IT    N4  436   1.730   0.871   2.591
   14X2IT   H17  437   1.748   0.886   2.493
   14X2IT   C14  438   1.828   0.899   2.682
   14X2IT    O5  439   1.811   0.910   2.803
   14X2IT    O4  440   1.948   0.910   2.619
   14X2IT   C13  441   2.063   0.933   2.704
   14X2IT   C10  442   2.116   0.802   2.764
   14X2IT    C9  443   2.240   0.821   2.848
   14X2IT    C4  444   2.344   0.744   2.798
   14X2IT    C5  445   2.482   0.741   2.858
   14X2IT    O1  446   2.568   0.666   2.808
   14X2IT    C6  447   2.504   0.826   2.972
   14X2IT   C12  448   2.641   0.828   3.037
   14X2IT    C7  449   2.400   0.902   3.022
   14X2IT    C8  450   2.260   0.904   2.961
   14X2IT    O2  451   2.176   0.979   3.012
   14X2IT    N3  452   2.412   0.982   3.129
   14X2IT   H15  453   2.497   0.995   3.180
   14X2IT   H16  454   2.328   1.035   3.157
   14X2IT    N2  455   2.305   0.667   2.694
   14X2IT    C3  456   2.384   0.626   2.577
   14X2IT    C2  457   2.303   0.684   2.461
   14X2IT    H2  458   2.316   0.644   2.361
   14X2IT    N1  459   2.275   0.828   2.480
   14X2IT   H14  460   2.253   0.871   2.389
   14X2IT    C1  461   2.171   0.728   2.511
   14X2IT    H1  462   2.080   0.722   2.452
   14X2IT   C11  463   2.162   0.694   2.659
   14X2IT    O3  464   2.084   0.576   2.662
   14X2IT   C15  465   2.089   0.497   2.782
   15X2IT   H18  466   0.662   3.383   4.409
   15X2IT    N4  467   0.616   3.301   4.376
   15X2IT   H17  468   0.637   3.214   4.423
   15X2IT   C14  469   0.493   3.319   4.319
   15X2IT    O5  470   0.447   3.425   4.282
   15X2IT    O4  471   0.430   3.198   4.307
   15X2IT   C13  472   0.301   3.200   4.242
   15X2IT   C10  473   0.314   3.199   4.089
   15X2IT    C9  474   0.181   3.194   4.018
   15X2IT    C4  475   0.174   3.083   3.936
   15X2IT    C5  476   0.055   3.048   3.852
   15X2IT    O1  477   0.060   2.948   3.778
   15X2IT    C6  478  -0.059   3.136   3.861
   15X2IT   C12  479  -0.182   3.106   3.779
   15X2IT    C7  480  -0.051   3.248   3.942
   15X2IT    C8  481   0.071   3.283   4.027
   15X2IT    O2  482   0.065   3.384   4.099
   15X2IT    N3  483  -0.151   3.337   3.956
   15X2IT   H15  484  -0.240   3.328   3.909
   15X2IT   H16  485  -0.136   3.415   4.020
   15X2IT    N2  486   0.291   3.014   3.935
   15X2IT    C3  487   0.310   2.868   3.921
   15X2IT    C2  488   0.381   2.832   4.051
   15X2IT    H2  489   0.438   2.739   4.057
   15X2IT    N1  490   0.309   2.883   4.170
   15X2IT   H14  491   0.338   2.829   4.252
   15X2IT    C1  492   0.426   2.956   4.118
   15X2IT    H1  493   0.518   2.962   4.175
   15X2IT   C11  494   0.389   3.074   4.029
   15X2IT    O3  495   0.511   3.108   3.965
   15X2IT   C15  496   0.501   3.189   3.847
   16X2IT   H18  497   0.917   4.351   0.751
   16X2IT    N4  498   0.967   4.395   0.826
   16X2IT   H17  499   0.941   4.367   0.920
   16X2IT   C14  500   1.095   4.432   0.801
   16X2IT    O5  501   1.145   4.443   0.690
   16X2IT    O4  502   1.159   4.461   0.918
   16X2IT   C13  503   1.295   4.509   0.906
   16X2IT   C10  504   1.299   4.661   0.877
   16X2IT    C9  505   1.439   4.716   0.871
   16X2IT    C4  506   1.455   4.817   0.964
   16X2IT    C5  507   1.583   4.893   0.985
   16X2IT    O1  508   1.587   4.984   1.069
   16X2IT    C6  509   1.695   4.854   0.903
   16X2IT   C12  510   1.827   4.926   0.919
   16X2IT    C7  511   1.679   4.754   0.809
   16X2IT    C8  512   1.548   4.678   0.789
   16X2IT    O2  513   1.546   4.586   0.704
   16X2IT    N3  514   1.777   4.712   0.727
   16X2IT   H15  515   1.870   4.749   0.729
   16X2IT   H16  516   1.754   4.636   0.663
   16X2IT    N2  517   1.339   4.845   1.030
   16X2IT    C3  518   1.322   4.889   1.169
   16X2IT    C2  519   1.237   4.777   1.228
   16X2IT    H2  520   1.180   4.796   1.319
   16X2IT    N1  521   1.295   4.643   1.203
   16X2IT   H14  522   1.256   4.577   1.271
   16X2IT    C1  523   1.184   4.692   1.118
   16X2IT    H1  524   1.087   4.645   1.122
   16X2IT   C11  525   1.231   4.752   0.987
   16X2IT    O3  526   1.118   4.821   0.938
   16X2IT   C15  527   1.140   4.919   0.835
   17X2IT   H18  528   0.622   2.371   1.012
   17X2IT    N4  529   0.578   2.453   0.973
   17X2IT   H17  530   0.634   2.537   0.970
   17X2IT   C14  531   0.484   2.431   0.876
   17X2IT    O5  532   0.430   2.325   0.853
   17X2IT    O4  533   0.457   2.548   0.811
   17X2IT   C13  534   0.354   2.542   0.710
   17X2IT   C10  535   0.214   2.554   0.772
   17X2IT    C9  536   0.103   2.555   0.668
   17X2IT    C4  537   0.029   2.671   0.679
   17X2IT    C5  538  -0.088   2.704   0.591
   17X2IT    O1  539  -0.152   2.808   0.611
   17X2IT    C6  540  -0.120   2.608   0.488
   17X2IT   C12  541  -0.237   2.635   0.395
   17X2IT    C7  542  -0.046   2.492   0.477
   17X2IT    C8  543   0.073   2.459   0.568
   17X2IT    O2  544   0.135   2.354   0.547
   17X2IT    N3  545  -0.069   2.397   0.386
   17X2IT   H15  546  -0.142   2.403   0.317
   17X2IT   H16  547  -0.007   2.315   0.386
   17X2IT    N2  548   0.068   2.747   0.784
   17X2IT    C3  549   0.067   2.894   0.795
   17X2IT    C2  550   0.214   2.926   0.817
   17X2IT    H2  551   0.242   3.022   0.861
   17X2IT    N1  552   0.301   2.863   0.716
   17X2IT   H14  553   0.391   2.913   0.712
   17X2IT    C1  554   0.287   2.801   0.849
   17X2IT    H1  555   0.371   2.797   0.917
   17X2IT   C11  556   0.187   2.687   0.852
   17X2IT    O3  557   0.164   2.665   0.989
   17X2IT   C15  558   0.046   2.591   1.025
   18X2IT   H18  559   0.875   1.649   3.612
   18X2IT    N4  560   0.947   1.697   3.561
   18X2IT   H17  561   1.014   1.640   3.512
   18X2IT   C14  562   0.914   1.820   3.510
   18X2IT    O5  563   0.817   1.886   3.544
   18X2IT    O4  564   1.007   1.859   3.419
   18X2IT   C13  565   0.989   1.990   3.361
   18X2IT   C10  566   1.046   2.100   3.453
   18X2IT    C9  567   1.035   2.239   3.393
   18X2IT    C4  568   1.160   2.296   3.384
   18X2IT    C5  569   1.185   2.434   3.328
   18X2IT    O1  570   1.300   2.479   3.327
   18X2IT    C6  571   1.070   2.505   3.279
   18X2IT   C12  572   1.088   2.644   3.221
   18X2IT    C7  573   0.944   2.448   3.290
   18X2IT    C8  574   0.920   2.308   3.348
   18X2IT    O2  575   0.804   2.265   3.348
   18X2IT    N3  576   0.831   2.507   3.249
   18X2IT   H15  577   0.829   2.599   3.207
   18X2IT   H16  578   0.744   2.455   3.260
   18X2IT    N2  579   1.257   2.218   3.438
   18X2IT    C3  580   1.397   2.205   3.395
   18X2IT    C2  581   1.407   2.057   3.361
   18X2IT    H2  582   1.504   2.008   3.358
   18X2IT    N1  583   1.300   2.014   3.267
   18X2IT   H14  584   1.329   1.928   3.221
   18X2IT    C1  585   1.286   1.987   3.412
   18X2IT    H1  586   1.289   1.885   3.449
   18X2IT   C11  587   1.200   2.089   3.484
   18X2IT    O3  588   1.227   2.065   3.621
   18X2IT   C15  589   1.191   2.169   3.714
   19X2IT   H18  590   0.388   1.929   2.059
   19X2IT    N4  591   0.311   1.912   1.997
   19X2IT   H17  592   0.218   1.928   2.032
   19X2IT   C14  593   0.337   1.930   1.864
   19X2IT    O5  594   0.448   1.939   1.814
   19X2IT    O4  595   0.219   1.933   1.794
   19X2IT   C13  596   0.231   1.945   1.650
   19X2IT   C10  597   0.256   1.809   1.584
   19X2IT    C9  598   0.262   1.816   1.433
   19X2IT    C4  599   0.166   1.733   1.378
   19X2IT    C5  600   0.144   1.718   1.230
   19X2IT    O1  601   0.059   1.638   1.189
   19X2IT    C6  602   0.228   1.798   1.144
   19X2IT   C12  603   0.211   1.787   0.994
   19X2IT    C7  604   0.324   1.880   1.199
   19X2IT    C8  605   0.346   1.894   1.350
   19X2IT    O2  606   0.432   1.974   1.389
   19X2IT    N3  607   0.408   1.957   1.127
   19X2IT   H15  608   0.406   1.961   1.027
   19X2IT   H16  609   0.474   2.015   1.179
   19X2IT    N2  610   0.100   1.662   1.472
   19X2IT    C3  611  -0.041   1.618   1.470
   19X2IT    C2  612  -0.098   1.685   1.594
   19X2IT    H2  613  -0.189   1.647   1.639
   19X2IT    N1  614  -0.069   1.831   1.597
   19X2IT   H14  615  -0.136   1.877   1.659
   19X2IT    C1  616   0.014   1.738   1.677
   19X2IT    H1  617   0.011   1.740   1.785
   19X2IT   C11  618   0.144   1.700   1.609
   19X2IT    O3  619   0.191   1.589   1.683
   19X2IT   C15  620   0.291   1.507   1.621
   20X2IT   H18  621  -0.161   2.874   3.250
   20X2IT    N4  622  -0.141   2.795   3.191
   20X2IT   H17  623  -0.212   2.771   3.122
   20X2IT   C14  624  -0.010   2.771   3.163
   20X2IT    O5  625   0.085   2.817   3.224
   20X2IT    O4  626   0.000   2.683   3.059
   20X2IT   C13  627   0.134   2.643   3.022
   20X2IT   C10  628   0.184   2.528   3.112
   20X2IT    C9  629   0.321   2.478   3.072
   20X2IT    C4  630   0.316   2.343   3.043
   20X2IT    C5  631   0.435   2.262   3.000
   20X2IT    O1  632   0.422   2.141   2.979
   20X2IT    C6  633   0.560   2.334   2.985
   20X2IT   C12  634   0.684   2.258   2.941
   20X2IT    C7  635   0.565   2.468   3.016
   20X2IT    C8  636   0.443   2.549   3.061
   20X2IT    O2  637   0.458   2.671   3.081
   20X2IT    N3  638   0.677   2.543   3.007
   20X2IT   H15  639   0.765   2.506   2.977
   20X2IT   H16  640   0.668   2.642   3.030
   20X2IT    N2  641   0.193   2.290   3.066
   20X2IT    C3  642   0.127   2.181   2.993
   20X2IT    C2  643   0.001   2.249   2.941
   20X2IT    H2  644  -0.085   2.189   2.912
   20X2IT    N1  645   0.031   2.374   2.868
   20X2IT   H14  646  -0.047   2.398   2.806
   20X2IT    C1  647  -0.015   2.381   3.008
   20X2IT    H1  648  -0.112   2.423   3.032
   20X2IT   C11  649   0.098   2.396   3.108
   20X2IT    O3  650   0.037   2.367   3.233
   20X2IT   C15  651   0.125   2.335   3.342
   21X2IT   H18  652   0.722   3.549   1.429
   21X2IT    N4  653   0.663   3.490   1.372
   21X2IT   H17  654   0.628   3.405   1.414
   21X2IT   C14  655   0.588   3.554   1.278
   21X2IT    O5  656   0.606   3.669   1.239
   21X2IT    O4  657   0.492   3.470   1.229
   21X2IT   C13  658   0.409   3.522   1.124
   21X2IT   C10  659   0.477   3.508   0.986
   21X2IT    C9  660   0.390   3.555   0.872
   21X2IT    C4  661   0.371   3.453   0.781
   21X2IT    C5  662   0.289   3.466   0.656
   21X2IT    O1  663   0.281   3.370   0.578
   21X2IT    C6  664   0.225   3.593   0.634
   21X2IT   C12  665   0.140   3.613   0.510
   21X2IT    C7  666   0.244   3.696   0.725
   21X2IT    C8  667   0.329   3.681   0.851
   21X2IT    O2  668   0.336   3.779   0.928
   21X2IT    N3  669   0.190   3.818   0.712
   21X2IT   H15  670   0.130   3.844   0.636
   21X2IT   H16  671   0.210   3.886   0.786
   21X2IT    N2  672   0.442   3.342   0.814
   21X2IT    C3  673   0.405   3.201   0.791
   21X2IT    C2  674   0.402   3.145   0.932
   21X2IT    H2  675   0.411   3.037   0.948
   21X2IT    N1  676   0.318   3.226   1.023
   21X2IT   H14  677   0.290   3.169   1.103
   21X2IT    C1  678   0.464   3.242   1.026
   21X2IT    H1  679   0.522   3.213   1.112
   21X2IT   C11  680   0.513   3.361   0.944
   21X2IT    O3  681   0.652   3.340   0.931
   21X2IT   C15  682   0.721   3.412   0.828
   22X2IT   H18  683   4.161   3.646   4.054
   22X2IT    N4  684   4.255   3.666   4.083
   22X2IT   H17  685   4.281   3.639   4.177
   22X2IT   C14  686   4.351   3.665   3.985
   22X2IT    O5  687   4.328   3.669   3.865
   22X2IT    O4  688   4.475   3.662   4.041
   22X2IT   C13  689   4.586   3.667   3.949
   22X2IT   C10  690   4.618   3.812   3.908
   22X2IT    C9  691   4.738   3.823   3.816
   22X2IT    C4  692   4.834   3.905   3.873
   22X2IT    C5  693   4.966   3.936   3.809
   22X2IT    O1  694   5.044   4.014   3.866
   22X2IT    C6  695   4.993   3.873   3.683
   22X2IT   C12  696   5.125   3.899   3.613
   22X2IT    C7  697   4.897   3.791   3.625
   22X2IT    C8  698   4.762   3.761   3.691
   22X2IT    O2  699   4.685   3.683   3.633
   22X2IT    N3  700   4.912   3.729   3.507
   22X2IT   H15  701   4.995   3.737   3.452
   22X2IT   H16  702   4.835   3.670   3.476
   22X2IT    N2  703   4.791   3.960   3.990
   22X2IT    C3  704   4.871   3.995   4.108
   22X2IT    C2  705   4.806   3.910   4.217
   22X2IT    H2  706   4.820   3.936   4.321
   22X2IT    N1  707   4.796   3.767   4.177
   22X2IT   H14  708   4.786   3.710   4.261
   22X2IT    C1  709   4.678   3.855   4.166
   22X2IT    H1  710   4.591   3.840   4.229
   22X2IT   C11  711   4.656   3.909   4.026
   22X2IT    O3  712   4.562   4.014   4.043
   22X2IT   C15  713   4.550   4.109   3.937
   23X2IT   H18  714   1.053   0.464  -0.417
   23X2IT    N4  715   1.122   0.514  -0.365
   23X2IT   H17  716   1.169   0.590  -0.411
   23X2IT   C14  717   1.103   0.521  -0.230
   23X2IT    O5  718   1.027   0.450  -0.166
   23X2IT    O4  719   1.185   0.616  -0.175
   23X2IT   C13  720   1.180   0.629  -0.032
   23X2IT   C10  721   1.270   0.526   0.038
   23X2IT    C9  722   1.273   0.541   0.188
   23X2IT    C4  723   1.403   0.561   0.231
   23X2IT    C5  724   1.441   0.581   0.375
   23X2IT    O1  725   1.561   0.595   0.405
   23X2IT    C6  726   1.334   0.582   0.471
   23X2IT   C12  727   1.365   0.602   0.618
   23X2IT    C7  728   1.204   0.561   0.428
   23X2IT    C8  729   1.166   0.540   0.281
   23X2IT    O2  730   1.046   0.526   0.253
   23X2IT    N3  731   1.098   0.558   0.510
   23X2IT   H15  732   1.104   0.572   0.609
   23X2IT   H16  733   1.006   0.543   0.466
   23X2IT    N2  734   1.493   0.553   0.129
   23X2IT    C3  735   1.619   0.627   0.114
   23X2IT    C2  736   1.596   0.702  -0.017
   23X2IT    H2  737   1.682   0.739  -0.073
   23X2IT    N1  738   1.469   0.778  -0.017
   23X2IT   H14  739   1.474   0.852  -0.088
   23X2IT    C1  740   1.476   0.647  -0.085
   23X2IT    H1  741   1.467   0.641  -0.193
   23X2IT   C11  742   1.423   0.533  -0.001
   23X2IT    O3  743   1.468   0.417  -0.068
   23X2IT   C15  744   1.468   0.294   0.006
   24X2IT   H18  745   2.172   2.773   4.391
   24X2IT    N4  746   2.099   2.713   4.358
   24X2IT   H17  747   2.053   2.739   4.272
   24X2IT   C14  748   2.109   2.581   4.391
   24X2IT    O5  749   2.182   2.535   4.477
   24X2IT    O4  750   2.022   2.507   4.316
   24X2IT   C13  751   2.018   2.366   4.344
   24X2IT   C10  752   1.925   2.335   4.464
   24X2IT    C9  753   1.912   2.188   4.493
   24X2IT    C4  754   1.780   2.149   4.486
   24X2IT    C5  755   1.732   2.009   4.508
   24X2IT    O1  756   1.610   1.984   4.504
   24X2IT    C6  757   1.833   1.910   4.536
   24X2IT   C12  758   1.792   1.766   4.559
   24X2IT    C7  759   1.966   1.948   4.543
   24X2IT    C8  760   2.013   2.092   4.521
   24X2IT    O2  761   2.135   2.115   4.526
   24X2IT    N3  762   2.066   1.864   4.570
   24X2IT   H15  763   2.053   1.766   4.585
   24X2IT   H16  764   2.161   1.903   4.572
   24X2IT    N2  765   1.697   2.255   4.464
   24X2IT    C3  766   1.571   2.257   4.389
   24X2IT    C2  767   1.600   2.358   4.279
   24X2IT    H2  768   1.518   2.407   4.227
   24X2IT    N1  769   1.725   2.328   4.206
   24X2IT   H14  770   1.724   2.374   4.115
   24X2IT    C1  771   1.725   2.431   4.311
   24X2IT    H1  772   1.741   2.535   4.287
   24X2IT   C11  773   1.775   2.380   4.446
   24X2IT    O3  774   1.736   2.481   4.537
   24X2IT   C15  775   1.734   2.446   4.676
   25X2IT   H18  776   3.583   0.773   3.765
   25X2IT    N4  777   3.509   0.750   3.701
   25X2IT   H17  778   3.415   0.745   3.739
   25X2IT   C14  779   3.526   0.788   3.571
   25X2IT    O5  780   3.631   0.822   3.521
   25X2IT    O4  781   3.407   0.778   3.504
   25X2IT   C13  782   3.411   0.809   3.363
   25X2IT   C10  783   3.457   0.688   3.280
   25X2IT    C9  784   3.456   0.714   3.131
   25X2IT    C4  785   3.375   0.622   3.067
   25X2IT    C5  786   3.351   0.621   2.919
   25X2IT    O1  787   3.279   0.532   2.870
   25X2IT    C6  788   3.416   0.724   2.842
   25X2IT   C12  789   3.395   0.728   2.692
   25X2IT    C7  790   3.498   0.815   2.906
   25X2IT    C8  791   3.522   0.815   3.057
   25X2IT    O2  792   3.595   0.904   3.104
   25X2IT    N3  793   3.564   0.913   2.843
   25X2IT   H15  794   3.558   0.929   2.744
   25X2IT   H16  795   3.621   0.976   2.900
   25X2IT    N2  796   3.325   0.529   3.153
   25X2IT    C3  797   3.195   0.462   3.148
   25X2IT    C2  798   3.132   0.503   3.280
   25X2IT    H2  799   3.050   0.444   3.321
   25X2IT    N1  800   3.134   0.649   3.300
   25X2IT   H14  801   3.063   0.675   3.369
   25X2IT    C1  802   3.235   0.564   3.367
   25X2IT    H1  803   3.236   0.554   3.475
   25X2IT   C11  804   3.368   0.559   3.293
   25X2IT    O3  805   3.436   0.450   3.352
   25X2IT   C15  806   3.546   0.395   3.279
   26X2IT   H18  807   5.500   2.165   3.833
   26X2IT    N4  808   5.429   2.102   3.800
   26X2IT   H17  809   5.458   2.008   3.777
   26X2IT   C14  810   5.303   2.122   3.848
   26X2IT    O5  811   5.264   2.224   3.903
   26X2IT    O4  812   5.225   2.014   3.822
   26X2IT   C13  813   5.086   2.024   3.861
   26X2IT   C10  814   5.003   2.098   3.755
   26X2IT    C9  815   4.856   2.105   3.789
   26X2IT    C4  816   4.781   2.046   3.689
   26X2IT    C5  817   4.631   2.035   3.691
   26X2IT    O1  818   4.572   1.985   3.595
   26X2IT    C6  819   4.565   2.087   3.809
   26X2IT   C12  820   4.414   2.079   3.818
   26X2IT    C7  821   4.640   2.146   3.909
   26X2IT    C8  822   4.793   2.157   3.904
   26X2IT    O2  823   4.850   2.209   4.002
   26X2IT    N3  824   4.587   2.199   4.020
   26X2IT   H15  825   4.489   2.198   4.040
   26X2IT   H16  826   4.653   2.239   4.088
   26X2IT    N2  827   4.858   2.007   3.584
   26X2IT    C3  828   4.837   1.892   3.495
   26X2IT    C2  829   4.965   1.811   3.516
   26X2IT    H2  830   4.996   1.738   3.442
   26X2IT    N1  831   4.992   1.786   3.660
   26X2IT   H14  832   5.054   1.706   3.669
   26X2IT    C1  833   5.064   1.894   3.590
   26X2IT    H1  834   5.170   1.888   3.573
   26X2IT   C11  835   5.002   2.032   3.612
   26X2IT    O3  836   5.063   2.113   3.513
   26X2IT   C15  837   4.998   2.237   3.482
   27X2IT   H18  838   2.292   4.927   4.299
   27X2IT    N4  839   2.315   4.858   4.368
   27X2IT   H17  840   2.285   4.876   4.463
   27X2IT   C14  841   2.325   4.729   4.324
   27X2IT    O5  842   2.335   4.696   4.207
   27X2IT    O4  843   2.326   4.644   4.430
   27X2IT   C13  844   2.342   4.504   4.398
   27X2IT   C10  845   2.490   4.467   4.379
   27X2IT    C9  846   2.512   4.320   4.353
   27X2IT    C4  847   2.596   4.266   4.449
   27X2IT    C5  848   2.638   4.122   4.453
   27X2IT    O1  849   2.717   4.084   4.540
   27X2IT    C6  850   2.582   4.036   4.351
   27X2IT   C12  851   2.620   3.889   4.349
   27X2IT    C7  852   2.499   4.090   4.254
   27X2IT    C8  853   2.458   4.237   4.251
   27X2IT    O2  854   2.379   4.274   4.163
   27X2IT    N3  855   2.444   4.019   4.155
   27X2IT   H15  856   2.459   3.920   4.143
   27X2IT   H16  857   2.383   4.069   4.090
   27X2IT    N2  858   2.643   4.361   4.534
   27X2IT    C3  859   2.675   4.346   4.677
   27X2IT    C2  860   2.581   4.446   4.742
   27X2IT    H2  861   2.603   4.483   4.843
   27X2IT    N1  862   2.441   4.427   4.700
   27X2IT   H14  863   2.378   4.470   4.768
   27X2IT    C1  864   2.523   4.534   4.638
   27X2IT    H1  865   2.499   4.638   4.654
   27X2IT   C11  866   2.583   4.494   4.504
   27X2IT    O3  867   2.681   4.592   4.480
   27X2IT   C15  868   2.781   4.562   4.382
   28X2IT   H18  869   0.705   0.694   2.938
   28X2IT    N4  870   0.683   0.637   3.019
   28X2IT   H17  871   0.713   0.541   3.017
   28X2IT   C14  872   0.678   0.703   3.139
   28X2IT    O5  873   0.668   0.823   3.153
   28X2IT    O4  874   0.679   0.612   3.241
   28X2IT   C13  875   0.667   0.666   3.374
   28X2IT   C10  876   0.519   0.691   3.411
   28X2IT    C9  877   0.502   0.742   3.553
   28X2IT    C4  878   0.419   0.656   3.624
   28X2IT    C5  879   0.382   0.677   3.768
   28X2IT    O1  880   0.304   0.597   3.822
   28X2IT    C6  881   0.439   0.791   3.834
   28X2IT   C12  882   0.406   0.818   3.979
   28X2IT    C7  883   0.521   0.877   3.762
   28X2IT    C8  884   0.558   0.856   3.615
   28X2IT    O2  885   0.635   0.937   3.562
   28X2IT    N3  886   0.577   0.987   3.814
   28X2IT   H15  887   0.565   1.015   3.910
   28X2IT   H16  888   0.637   1.043   3.753
   28X2IT    N2  889   0.370   0.556   3.546
   28X2IT    C3  890   0.339   0.418   3.586
   28X2IT    C2  891   0.430   0.337   3.495
   28X2IT    H2  892   0.408   0.232   3.475
   28X2IT    N1  893   0.571   0.382   3.502
   28X2IT   H14  894   0.632   0.307   3.469
   28X2IT    C1  895   0.486   0.426   3.389
   28X2IT    H1  896   0.506   0.392   3.288
   28X2IT   C11  897   0.427   0.564   3.408
   28X2IT    O3  898   0.325   0.572   3.310
   28X2IT   C15  899   0.226   0.674   3.326
   29X2IT   H18  900   3.297   1.743   1.690
   29X2IT    N4  901   3.377   1.789   1.653
   29X2IT   H17  902   3.367   1.838   1.565
   29X2IT   C14  903   3.467   1.837   1.745
   29X2IT    O5  904   3.472   1.804   1.862
   29X2IT    O4  905   3.554   1.924   1.685
   29X2IT   C13  906   3.658   1.977   1.768
   29X2IT   C10  907   3.777   1.880   1.779
   29X2IT    C9  908   3.892   1.935   1.860
   29X2IT    C4  909   4.007   1.938   1.784
   29X2IT    C5  910   4.140   1.988   1.834
   29X2IT    O1  911   4.239   1.984   1.759
   29X2IT    C6  912   4.143   2.038   1.969
   29X2IT   C12  913   4.273   2.091   2.026
   29X2IT    C7  914   4.028   2.034   2.046
   29X2IT    C8  915   3.894   1.982   1.994
   29X2IT    O2  916   3.796   1.987   2.070
   29X2IT    N3  917   4.021   2.077   2.173
   29X2IT   H15  918   4.100   2.116   2.222
   29X2IT   H16  919   3.930   2.070   2.220
   29X2IT    N2  920   3.989   1.884   1.661
   29X2IT    C3  921   4.053   1.922   1.534
   29X2IT    C2  922   3.934   1.961   1.448
   29X2IT    H2  923   3.943   1.962   1.339
   29X2IT    N1  924   3.846   2.059   1.515
   29X2IT   H14  925   3.790   2.108   1.445
   29X2IT    C1  926   3.808   1.917   1.514
   29X2IT    H1  927   3.721   1.882   1.459
   29X2IT   C11  928   3.847   1.844   1.642
   29X2IT    O3  929   3.834   1.707   1.608
   29X2IT   C15  930   3.899   1.612   1.694
   30X2IT   H18  931   5.364   4.759   1.187
   30X2IT    N4  932   5.269   4.784   1.209
   30X2IT   H17  933   5.201   4.774   1.135
   30X2IT   C14  934   5.230   4.768   1.339
   30X2IT    O5  935   5.305   4.753   1.434
   30X2IT    O4  936   5.094   4.777   1.348
   30X2IT   C13  937   5.038   4.768   1.481
   30X2IT   C10  938   5.042   4.905   1.552
   30X2IT    C9  939   4.979   4.902   1.689
   30X2IT    C4  940   4.876   4.994   1.696
   30X2IT    C5  941   4.791   5.016   1.818
   30X2IT    O1  942   4.703   5.103   1.816
   30X2IT    C6  943   4.819   4.932   1.932
   30X2IT   C12  944   4.737   4.949   2.059
   30X2IT    C7  945   4.923   4.841   1.926
   30X2IT    C8  946   5.009   4.820   1.801
   30X2IT    O2  947   5.097   4.732   1.805
   30X2IT    N3  948   4.958   4.760   2.027
   30X2IT   H15  949   4.911   4.760   2.116
   30X2IT   H16  950   5.036   4.696   2.011
   30X2IT    N2  951   4.865   5.067   1.582
   30X2IT    C3  952   4.743   5.122   1.521
   30X2IT    C2  953   4.743   5.055   1.384
   30X2IT    H2  954   4.685   5.099   1.303
   30X2IT    N1  955   4.757   4.908   1.393
   30X2IT   H14  956   4.723   4.865   1.307
   30X2IT    C1  957   4.875   4.991   1.360
   30X2IT    H1  958   4.921   4.985   1.263
   30X2IT   C11  959   4.963   5.021   1.481
   30X2IT    O3  960   5.047   5.126   1.436
   30X2IT   C15  961   5.115   5.202   1.537
   31X2IT   H18  962   0.982   3.980   1.112
   31X2IT    N4  963   0.943   3.996   1.021
   31X2IT   H17  964   0.918   4.091   0.997
   31X2IT   C14  965   0.983   3.910   0.923
   31X2IT    O5  966   1.039   3.803   0.941
   31X2IT    O4  967   0.949   3.960   0.800
   31X2IT   C13  968   0.980   3.877   0.686
   31X2IT   C10  969   0.871   3.770   0.664
   31X2IT    C9  970   0.896   3.685   0.541
   31X2IT    C4  971   0.789   3.695   0.454
   31X2IT    C5  972   0.783   3.624   0.322
   31X2IT    O1  973   0.681   3.635   0.252
   31X2IT    C6  974   0.897   3.544   0.285
   31X2IT   C12  975   0.897   3.470   0.153
   31X2IT    C7  976   1.004   3.534   0.373
   31X2IT    C8  977   1.009   3.606   0.508
   31X2IT    O2  978   1.111   3.594   0.577
   31X2IT    N3  979   1.114   3.461   0.349
   31X2IT   H15  980   1.128   3.409   0.265
   31X2IT   H16  981   1.187   3.462   0.421
   31X2IT    N2  982   0.688   3.769   0.505
   31X2IT    C3  983   0.594   3.856   0.432
   31X2IT    C2  984   0.621   3.992   0.495
   31X2IT    H2  985   0.546   4.071   0.487
   31X2IT    N1  986   0.765   4.028   0.493
   31X2IT   H14  987   0.775   4.129   0.503
   31X2IT    C1  988   0.703   3.975   0.617
   31X2IT    H1  989   0.693   4.038   0.704
   31X2IT   C11  990   0.726   3.826   0.637
   31X2IT    O3  991   0.634   3.791   0.738
   31X2IT   C15  992   0.604   3.651   0.753
   32X2IT   H18  993   1.553   1.003   1.577
   32X2IT    N4  994   1.499   1.011   1.493
   32X2IT   H17  995   1.532   1.075   1.422
   32X2IT   C14  996   1.430   0.900   1.454
   32X2IT    O5  997   1.406   0.803   1.525
   32X2IT    O4  998   1.386   0.914   1.325
   32X2IT   C13  999   1.306   0.807   1.273
   32X2IT   C10 1000   1.158   0.822   1.314
   32X2IT    C9 1001   1.069   0.715   1.255
   32X2IT    C4 1002   0.969   0.772   1.180
   32X2IT    C5 1003   0.863   0.694   1.107
   32X2IT    O1 1004   0.774   0.755   1.045
   32X2IT    C6 1005   0.872   0.551   1.115
   32X2IT   C12 1006   0.769   0.466   1.044
   32X2IT    C7 1007   0.972   0.493   1.192
   32X2IT    C8 1008   1.078   0.574   1.266
   32X2IT    O2 1009   1.166   0.511   1.328
   32X2IT    N3 1010   0.987   0.360   1.207
   32X2IT   H15 1011   0.927   0.293   1.163
   32X2IT   H16 1012   1.066   0.329   1.264
   32X2IT    N2 1013   0.972   0.908   1.186
   32X2IT    C3 1014   0.934   1.004   1.081
   32X2IT    C2 1015   1.064   1.081   1.060
   32X2IT    H2 1016   1.062   1.179   1.014
   32X2IT    N1 1017   1.179   0.991   1.036
   32X2IT   H14 1018   1.254   1.043   0.989
   32X2IT    C1 1019   1.159   1.049   1.170
   32X2IT    H1 1020   1.229   1.121   1.210
   32X2IT   C11 1021   1.088   0.954   1.266
   32X2IT    O3 1022   1.049   1.038   1.374
   32X2IT   C15 1023   0.948   0.988   1.462
   33X2IT   H18 1024   2.649   1.145   4.056
   33X2IT    N4 1025   2.709   1.095   3.992
   33X2IT   H17 1026   2.747   1.007   4.025
   33X2IT   C14 1027   2.683   1.111   3.859
   33X2IT    O5 1028   2.614   1.200   3.811
   33X2IT    O4 1029   2.748   1.015   3.787
   33X2IT   C13 1030   2.735   1.024   3.643
   33X2IT   C10 1031   2.836   1.125   3.584
   33X2IT    C9 1032   2.830   1.131   3.433
   33X2IT    C4 1033   2.954   1.101   3.379
   33X2IT    C5 1034   2.983   1.098   3.232
   33X2IT    O1 1035   3.098   1.074   3.193
   33X2IT    C6 1036   2.872   1.126   3.144
   33X2IT   C12 1037   2.894   1.124   2.994
   33X2IT    C7 1038   2.748   1.156   3.198
   33X2IT    C8 1039   2.720   1.160   3.348
   33X2IT    O2 1040   2.604   1.184   3.385
   33X2IT    N3 1041   2.640   1.185   3.124
   33X2IT   H15 1042   2.640   1.185   3.023
   33X2IT   H16 1043   2.553   1.204   3.174
   33X2IT    N2 1044   3.048   1.083   3.475
   33X2IT    C3 1045   3.164   0.992   3.472
   33X2IT    C2 1046   3.137   0.902   3.592
   33X2IT    H2 1047   3.219   0.846   3.637
   33X2IT    N1 1048   3.001   0.843   3.589
   33X2IT   H14 1049   2.999   0.760   3.648
   33X2IT    C1 1050   3.029   0.961   3.675
   33X2IT    H1 1051   3.025   0.953   3.783
   33X2IT   C11 1052   2.987   1.093   3.611
   33X2IT    O3 1053   3.051   1.191   3.691
   33X2IT   C15 1054   3.064   1.322   3.635
   34X2IT   H18 1055   4.707   1.946   1.185
   34X2IT    N4 1056   4.724   1.925   1.281
   34X2IT   H17 1057   4.749   1.830   1.305
   34X2IT   C14 1058   4.773   2.027   1.358
   34X2IT    O5 1059   4.772   2.145   1.327
   34X2IT    O4 1060   4.820   1.979   1.477
   34X2IT   C13 1061   4.869   2.076   1.571
   34X2IT   C10 1062   4.754   2.139   1.652
   34X2IT    C9 1063   4.802   2.237   1.756
   34X2IT    C4 1064   4.759   2.197   1.882
   34X2IT    C5 1065   4.790   2.272   2.008
   34X2IT    O1 1066   4.745   2.231   2.116
   34X2IT    C6 1067   4.872   2.390   1.995
   34X2IT   C12 1068   4.908   2.470   2.119
   34X2IT    C7 1069   4.914   2.430   1.869
   34X2IT    C8 1070   4.881   2.354   1.741
   34X2IT    O2 1071   4.927   2.396   1.634
   34X2IT    N3 1072   4.988   2.539   1.847
   34X2IT   H15 1073   5.021   2.600   1.920
   34X2IT   H16 1074   5.015   2.559   1.750
   34X2IT    N2 1075   4.680   2.087   1.877
   34X2IT    C3 1076   4.668   1.979   1.976
   34X2IT    C2 1077   4.709   1.857   1.895
   34X2IT    H2 1078   4.679   1.758   1.929
   34X2IT    N1 1079   4.838   1.876   1.825
   34X2IT   H14 1080   4.878   1.784   1.802
   34X2IT    C1 1081   4.712   1.892   1.750
   34X2IT    H1 1082   4.685   1.823   1.672
   34X2IT   C11 1083   4.668   2.037   1.737
   34X2IT    O3 1084   4.534   2.029   1.694
   34X2IT   C15 1085   4.453   2.147   1.709
   35X2IT   H18 1086   1.364   0.185   2.396
   35X2IT    N4 1087   1.337   0.246   2.471
   35X2IT   H17 1088   1.326   0.344   2.449
   35X2IT   C14 1089   1.261   0.191   2.570
   35X2IT    O5 1090   1.246   0.071   2.589
   35X2IT    O4 1091   1.206   0.289   2.647
   35X2IT   C13 1092   1.128   0.245   2.760
   35X2IT   C10 1093   1.217   0.212   2.881
   35X2IT    C9 1094   1.138   0.172   3.003
   35X2IT    C4 1095   1.167   0.257   3.109
   35X2IT    C5 1096   1.105   0.245   3.245
   35X2IT    O1 1097   1.140   0.324   3.335
   35X2IT    C6 1098   1.007   0.141   3.263
   35X2IT   C12 1099   0.941   0.124   3.398
   35X2IT    C7 1100   0.979   0.056   3.158
   35X2IT    C8 1101   1.043   0.068   3.020
   35X2IT    O2 1102   1.007  -0.011   2.931
   35X2IT    N3 1103   0.891  -0.045   3.165
   35X2IT   H15 1104   0.838  -0.066   3.248
   35X2IT   H16 1105   0.876  -0.101   3.081
   35X2IT    N2 1106   1.264   0.346   3.077
   35X2IT    C3 1107   1.279   0.485   3.125
   35X2IT    C2 1108   1.272   0.565   2.996
   35X2IT    H2 1109   1.313   0.666   2.993
   35X2IT    N1 1110   1.153   0.531   2.914
   35X2IT   H14 1111   1.134   0.607   2.849
   35X2IT    C1 1112   1.285   0.472   2.880
   35X2IT    H1 1113   1.335   0.499   2.788
   35X2IT   C11 1114   1.304   0.332   2.934
   35X2IT    O3 1115   1.443   0.309   2.921
   35X2IT   C15 1116   1.500   0.201   2.997
   36X2IT   H18 1117   3.423   0.412  -0.378
   36X2IT    N4 1118   3.387   0.428  -0.286
   36X2IT   H17 1119   3.324   0.506  -0.274
   36X2IT   C14 1120   3.373   0.318  -0.206
   36X2IT    O5 1121   3.424   0.209  -0.226
   36X2IT    O4 1122   3.296   0.349  -0.098
   36X2IT   C13 1123   3.278   0.243  -0.001
   36X2IT   C10 1124   3.396   0.236   0.097
   36X2IT    C9 1125   3.378   0.131   0.205
   36X2IT    C4 1126   3.385   0.190   0.330
   36X2IT    C5 1127   3.370   0.114   0.459
   36X2IT    O1 1128   3.381   0.174   0.566
   36X2IT    C6 1129   3.343  -0.028   0.447
   36X2IT   C12 1130   3.327  -0.110   0.573
   36X2IT    C7 1131   3.338  -0.086   0.322
   36X2IT    C8 1132   3.354  -0.008   0.192
   36X2IT    O2 1133   3.342  -0.070   0.085
   36X2IT    N3 1134   3.315  -0.217   0.302
   36X2IT   H15 1135   3.300  -0.283   0.377
   36X2IT   H16 1136   3.312  -0.249   0.205
   36X2IT    N2 1137   3.415   0.322   0.323
   36X2IT    C3 1138   3.370   0.429   0.413
   36X2IT    C2 1139   3.295   0.522   0.317
   36X2IT    H2 1140   3.279   0.626   0.345
   36X2IT    N1 1141   3.194   0.450   0.237
   36X2IT   H14 1142   3.125   0.517   0.202
   36X2IT    C1 1143   3.325   0.482   0.177
   36X2IT    H1 1144   3.332   0.554   0.096
   36X2IT   C11 1145   3.423   0.366   0.181
   36X2IT    O3 1146   3.548   0.426   0.152
   36X2IT   C15 1147   3.666   0.352   0.185
   37X2IT   H18 1148   1.159   3.214   3.194
   37X2IT    N4 1149   1.182   3.168   3.107
   37X2IT   H17 1150   1.150   3.073   3.095
   37X2IT   C14 1151   1.194   3.249   2.998
   37X2IT    O5 1152   1.206   3.370   3.001
   37X2IT    O4 1153   1.194   3.173   2.884
   37X2IT   C13 1154   1.212   3.245   2.760
   37X2IT   C10 1155   1.361   3.271   2.732
   37X2IT    C9 1156   1.385   3.340   2.599
   37X2IT    C4 1157   1.468   3.262   2.520
   37X2IT    C5 1158   1.512   3.301   2.382
   37X2IT    O1 1159   1.589   3.228   2.319
   37X2IT    C6 1160   1.459   3.425   2.330
   37X2IT   C12 1161   1.498   3.470   2.191
   37X2IT    C7 1162   1.377   3.503   2.410
   37X2IT    C8 1163   1.334   3.462   2.551
   37X2IT    O2 1164   1.256   3.538   2.612
   37X2IT    N3 1165   1.325   3.620   2.371
   37X2IT   H15 1166   1.341   3.661   2.281
   37X2IT   H16 1167   1.264   3.668   2.438
   37X2IT    N2 1168   1.513   3.152   2.585
   37X2IT    C3 1169   1.542   3.019   2.528
   37X2IT    C2 1170   1.446   2.929   2.604
   37X2IT    H2 1171   1.465   2.822   2.609
   37X2IT    N1 1172   1.307   2.978   2.598
   37X2IT   H14 1173   1.242   2.901   2.618
   37X2IT    C1 1174   1.388   3.004   2.718
   37X2IT    H1 1175   1.364   2.957   2.813
   37X2IT   C11 1176   1.451   3.142   2.720
   37X2IT    O3 1177   1.549   3.134   2.822
   37X2IT   C15 1178   1.651   3.234   2.823
   38X2IT   H18 1179   0.633   2.236   5.162
   38X2IT    N4 1180   0.533   2.234   5.171
   38X2IT   H17 1181   0.489   2.315   5.210
   38X2IT   C14 1182   0.465   2.159   5.079
   38X2IT    O5 1183   0.515   2.075   5.006
   38X2IT    O4 1184   0.332   2.189   5.083
   38X2IT   C13 1185   0.247   2.113   4.995
   38X2IT   C10 1186   0.208   1.978   5.058
   38X2IT    C9 1187   0.113   1.898   4.972
   38X2IT    C4 1188  -0.003   1.870   5.043
   38X2IT    C5 1189  -0.119   1.793   4.986
   38X2IT    O1 1190  -0.217   1.770   5.058
   38X2IT    C6 1191  -0.106   1.749   4.849
   38X2IT   C12 1192  -0.220   1.671   4.786
   38X2IT    C7 1193   0.010   1.776   4.779
   38X2IT    C8 1194   0.127   1.854   4.838
   38X2IT    O2 1195   0.225   1.876   4.765
   38X2IT    N3 1196   0.031   1.738   4.653
   38X2IT   H15 1197  -0.037   1.688   4.598
   38X2IT   H16 1198   0.120   1.765   4.610
   38X2IT    N2 1199   0.004   1.914   5.171
   38X2IT    C3 1200  -0.106   1.965   5.255
   38X2IT    C2 1201  -0.059   2.106   5.287
   38X2IT    H2 1202  -0.101   2.158   5.374
   38X2IT    N1 1203  -0.022   2.182   5.166
   38X2IT   H14 1204  -0.025   2.282   5.187
   38X2IT    C1 1205   0.084   2.121   5.249
   38X2IT    H1 1206   0.154   2.182   5.304
   38X2IT   C11 1207   0.132   1.987   5.195
   38X2IT    O3 1208   0.205   1.931   5.303
   38X2IT   C15 1209   0.230   1.790   5.299
   39X2IT   H18 1210   2.631   2.851   4.866
   39X2IT    N4 1211   2.532   2.834   4.859
   39X2IT   H17 1212   2.500   2.741   4.883
   39X2IT   C14 1213   2.450   2.941   4.880
   39X2IT    O5 1214   2.485   3.058   4.880
   39X2IT    O4 1215   2.322   2.898   4.898
   39X2IT   C13 1216   2.222   3.001   4.915
   39X2IT   C10 1217   2.175   3.057   4.780
   39X2IT    C9 1218   2.066   3.161   4.793
   39X2IT    C4 1219   1.953   3.121   4.722
   39X2IT    C5 1220   1.826   3.200   4.715
   39X2IT    O1 1221   1.732   3.159   4.647
   39X2IT    C6 1222   1.823   3.323   4.790
   39X2IT   C12 1223   1.698   3.408   4.788
   39X2IT    C7 1224   1.936   3.364   4.860
   39X2IT    C8 1225   2.065   3.282   4.866
   39X2IT    O2 1226   2.158   3.326   4.935
   39X2IT    N3 1227   1.943   3.477   4.931
   39X2IT   H15 1228   1.866   3.542   4.940
   39X2IT   H16 1229   2.031   3.496   4.980
   39X2IT    N2 1230   1.974   3.005   4.654
   39X2IT    C3 1231   1.877   2.899   4.624
   39X2IT    C2 1232   1.941   2.778   4.692
   39X2IT    H2 1233   1.912   2.677   4.661
   39X2IT    N1 1234   1.976   2.804   4.833
   39X2IT   H14 1235   1.985   2.715   4.883
   39X2IT    C1 1236   2.081   2.810   4.729
   39X2IT    H1 1237   2.161   2.737   4.728
   39X2IT   C11 1238   2.111   2.952   4.682
   39X2IT    O3 1239   2.186   2.933   4.563
   39X2IT   C15 1240   2.196   3.045   4.474
   40X2IT   H18 1241   3.056   4.746   4.898
   40X2IT    N4 1242   3.120   4.793   4.837
   40X2IT   H17 1243   3.208   4.823   4.877
   40X2IT   C14 1244   3.116   4.758   4.705
   40X2IT    O5 1245   3.024   4.697   4.652
   40X2IT    O4 1246   3.226   4.804   4.641
   40X2IT   C13 1247   3.232   4.780   4.498
   40X2IT   C10 1248   3.153   4.886   4.420
   40X2IT    C9 1249   3.162   4.869   4.270
   40X2IT    C4 1250   3.214   4.983   4.212
   40X2IT    C5 1251   3.237   4.998   4.064
   40X2IT    O1 1252   3.280   5.105   4.020
   40X2IT    C6 1253   3.205   4.884   3.982
   40X2IT   C12 1254   3.227   4.893   3.832
   40X2IT    C7 1255   3.153   4.770   4.040
   40X2IT    C8 1256   3.129   4.756   4.191
   40X2IT    O2 1257   3.085   4.648   4.233
   40X2IT    N3 1258   3.118   4.660   3.972
   40X2IT   H15 1259   3.129   4.651   3.872
   40X2IT   H16 1260   3.082   4.581   4.025
   40X2IT    N2 1261   3.234   5.082   4.302
   40X2IT    C3 1262   3.339   5.185   4.302
   40X2IT    C2 1263   3.411   5.158   4.433
   40X2IT    H2 1264   3.472   5.236   4.479
   40X2IT    N1 1265   3.451   5.016   4.447
   40X2IT   H14 1266   3.527   5.009   4.516
   40X2IT    C1 1267   3.330   5.065   4.516
   40X2IT    H1 1268   3.326   5.070   4.624
   40X2IT   C11 1269   3.202   5.035   4.440
   40X2IT    O3 1270   3.105   5.117   4.502
   40X2IT   C15 1271   2.983   5.141   4.430
   41X2IT   H18 1272   4.596   1.873   0.471
   41X2IT    N4 1273   4.540   1.895   0.550
   41X2IT   H17 1274   4.574   1.966   0.613
   41X2IT   C14 1275   4.404   1.881   0.535
   41X2IT    O5 1276   4.350   1.818   0.445
   41X2IT    O4 1277   4.339   1.943   0.637
   41X2IT   C13 1278   4.195   1.930   0.637
   41X2IT   C10 1279   4.150   1.797   0.701
   41X2IT    C9 1280   4.000   1.783   0.710
   41X2IT    C4 1281   3.961   1.765   0.841
   41X2IT    C5 1282   3.819   1.748   0.885
   41X2IT    O1 1283   3.793   1.728   1.004
   41X2IT    C6 1284   3.718   1.755   0.781
   41X2IT   C12 1285   3.572   1.740   0.818
   41X2IT    C7 1286   3.757   1.773   0.650
   41X2IT    C8 1287   3.903   1.789   0.607
   41X2IT    O2 1288   3.926   1.808   0.486
   41X2IT    N3 1289   3.672   1.779   0.547
   41X2IT   H15 1290   3.572   1.772   0.558
   41X2IT   H16 1291   3.712   1.794   0.454
   41X2IT    N2 1292   4.068   1.756   0.925
   41X2IT    C3 1293   4.077   1.800   1.065
   41X2IT    C2 1294   4.190   1.902   1.059
   41X2IT    H2 1295   4.244   1.929   1.150
   41X2IT    N1 1296   4.169   2.003   0.954
   41X2IT   H14 1297   4.226   2.086   0.975
   41X2IT    C1 1298   4.260   1.890   0.929
   41X2IT    H1 1299   4.367   1.905   0.917
   41X2IT   C11 1300   4.195   1.776   0.851
   41X2IT    O3 1301   4.284   1.668   0.867
   41X2IT   C15 1302   4.234   1.537   0.839
   42X2IT   H18 1303   2.695   1.555   4.394
   42X2IT    N4 1304   2.757   1.620   4.349
   42X2IT   H17 1305   2.787   1.700   4.403
   42X2IT   C14 1306   2.841   1.569   4.254
   42X2IT    O5 1307   2.828   1.460   4.201
   42X2IT    O4 1308   2.938   1.660   4.224
   42X2IT   C13 1309   3.031   1.622   4.120
   42X2IT   C10 1310   2.974   1.651   3.981
   42X2IT    C9 1311   3.070   1.620   3.869
   42X2IT    C4 1312   3.095   1.733   3.793
   42X2IT    C5 1313   3.187   1.736   3.675
   42X2IT    O1 1314   3.200   1.841   3.610
   42X2IT    C6 1315   3.255   1.613   3.643
   42X2IT   C12 1316   3.350   1.609   3.525
   42X2IT    C7 1317   3.230   1.500   3.718
   42X2IT    C8 1318   3.135   1.497   3.838
   42X2IT    O2 1319   3.124   1.391   3.901
   42X2IT    N3 1320   3.288   1.380   3.695
   42X2IT   H15 1321   3.354   1.365   3.621
   42X2IT   H16 1322   3.263   1.304   3.758
   42X2IT    N2 1323   3.019   1.838   3.833
   42X2IT    C3 1324   3.055   1.981   3.830
   42X2IT    C2 1325   3.045   2.019   3.977
   42X2IT    H2 1326   3.033   2.124   4.005
   42X2IT    N1 1327   3.124   1.929   4.064
   42X2IT   H14 1328   3.144   1.976   4.153
   42X2IT    C1 1329   2.978   1.911   4.053
   42X2IT    H1 1330   2.913   1.929   4.137
   42X2IT   C11 1331   2.938   1.802   3.953
   42X2IT    O3 1332   2.800   1.824   3.932
   42X2IT   C15 1333   2.742   1.764   3.816
   43X2IT   H18 1334   1.502   1.607   2.791
   43X2IT    N4 1335   1.564   1.589   2.868
   43X2IT   H17 1336   1.663   1.603   2.851
   43X2IT   C14 1337   1.514   1.610   2.993
   43X2IT    O5 1338   1.396   1.621   3.020
   43X2IT    O4 1339   1.616   1.612   3.084
   43X2IT   C13 1340   1.578   1.627   3.222
   43X2IT   C10 1341   1.537   1.491   3.284
   43X2IT    C9 1342   1.503   1.501   3.431
   43X2IT    C4 1343   1.584   1.418   3.505
   43X2IT    C5 1344   1.576   1.404   3.654
   43X2IT    O1 1345   1.651   1.324   3.712
   43X2IT    C6 1346   1.480   1.487   3.722
   43X2IT   C12 1347   1.467   1.479   3.873
   43X2IT    C7 1348   1.398   1.570   3.648
   43X2IT    C8 1349   1.406   1.582   3.495
   43X2IT    O2 1350   1.330   1.663   3.439
   43X2IT    N3 1351   1.304   1.649   3.701
   43X2IT   H15 1352   1.286   1.655   3.800
   43X2IT   H16 1353   1.250   1.708   3.637
   43X2IT    N2 1354   1.666   1.344   3.426
   43X2IT    C3 1355   1.802   1.297   3.456
   43X2IT    C2 1356   1.884   1.361   3.344
   43X2IT    H2 1357   1.981   1.321   3.318
   43X2IT    N1 1358   1.859   1.507   3.334
   43X2IT   H14 1359   1.938   1.551   3.285
   43X2IT    C1 1360   1.791   1.415   3.241
   43X2IT    H1 1361   1.815   1.416   3.135
   43X2IT   C11 1362   1.649   1.381   3.283
   43X2IT    O3 1363   1.616   1.269   3.203
   43X2IT   C15 1364   1.504   1.190   3.245
   44X2IT   H18 1365   4.359   4.491   4.052
   44X2IT    N4 1366   4.377   4.449   4.141
   44X2IT   H17 1367   4.459   4.391   4.149
   44X2IT   C14 1368   4.333   4.517   4.251
   44X2IT    O5 1369   4.252   4.609   4.249
   44X2IT    O4 1370   4.390   4.465   4.364
   44X2IT   C13 1371   4.347   4.524   4.489
   44X2IT   C10 1372   4.215   4.462   4.538
   44X2IT    C9 1373   4.171   4.516   4.672
   44X2IT    C4 1374   4.158   4.412   4.763
   44X2IT    C5 1375   4.116   4.431   4.906
   44X2IT    O1 1376   4.103   4.332   4.979
   44X2IT    C6 1377   4.092   4.567   4.949
   44X2IT   C12 1378   4.050   4.593   5.092
   44X2IT    C7 1379   4.104   4.670   4.858
   44X2IT    C8 1380   4.146   4.649   4.712
   44X2IT    O2 1381   4.159   4.750   4.640
   44X2IT    N3 1382   4.083   4.799   4.888
   44X2IT   H15 1383   4.056   4.830   4.979
   44X2IT   H16 1384   4.096   4.867   4.813
   44X2IT    N2 1385   4.179   4.291   4.705
   44X2IT    C3 1386   4.238   4.171   4.767
   44X2IT    C2 1387   4.360   4.146   4.679
   44X2IT    H2 1388   4.406   4.048   4.677
   44X2IT    N1 1389   4.444   4.267   4.664
   44X2IT   H14 1390   4.539   4.239   4.636
   44X2IT    C1 1391   4.350   4.230   4.556
   44X2IT    H1 1392   4.387   4.198   4.460
   44X2IT   C11 1393   4.219   4.307   4.563
   44X2IT    O3 1394   4.133   4.235   4.476
   44X2IT   C15 1395   3.992   4.258   4.489
   45X2IT   H18 1396   5.423   0.209   3.071
   45X2IT    N4 1397   5.331   0.200   3.031
   45X2IT   H17 1398   5.276   0.120   3.059
   45X2IT   C14 1399   5.267   0.317   3.000
   45X2IT    O5 1400   5.321   0.426   2.990
   45X2IT    O4 1401   5.135   0.293   2.977
   45X2IT   C13 1402   5.056   0.407   2.936
   45X2IT   C10 1403   5.069   0.432   2.784
   45X2IT    C9 1404   4.982   0.547   2.736
   45X2IT    C4 1405   4.895   0.502   2.638
   45X2IT    C5 1406   4.795   0.590   2.569
   45X2IT    O1 1407   4.723   0.543   2.480
   45X2IT    C6 1408   4.789   0.728   2.613
   45X2IT   C12 1409   4.689   0.822   2.548
   45X2IT    C7 1410   4.876   0.772   2.710
   45X2IT    C8 1411   4.979   0.682   2.779
   45X2IT    O2 1412   5.050   0.731   2.868
   45X2IT    N3 1413   4.880   0.898   2.756
   45X2IT   H15 1414   4.818   0.970   2.723
   45X2IT   H16 1415   4.948   0.920   2.829
   45X2IT    N2 1416   4.917   0.372   2.606
   45X2IT    C3 1417   4.818   0.272   2.563
   45X2IT    C2 1418   4.831   0.165   2.671
   45X2IT    H2 1419   4.796   0.064   2.651
   45X2IT    N1 1420   4.820   0.222   2.807
   45X2IT   H14 1421   4.795   0.147   2.873
   45X2IT    C1 1422   4.954   0.192   2.751
   45X2IT    H1 1423   5.015   0.113   2.793
   45X2IT   C11 1424   5.023   0.313   2.692
   45X2IT    O3 1425   5.129   0.259   2.615
   45X2IT   C15 1426   5.189   0.344   2.517
   46X2IT   H18 1427   1.550   4.456   4.008
   46X2IT    N4 1428   1.473   4.417   4.059
   46X2IT   H17 1429   1.391   4.476   4.070
   46X2IT   C14 1430   1.457   4.281   4.051
   46X2IT    O5 1431   1.542   4.203   4.013
   46X2IT    O4 1432   1.333   4.246   4.098
   46X2IT   C13 1433   1.305   4.105   4.102
   46X2IT   C10 1434   1.361   4.040   4.230
   46X2IT    C9 1435   1.327   3.893   4.242
   46X2IT    C4 1436   1.257   3.870   4.359
   46X2IT    C5 1437   1.208   3.734   4.401
   46X2IT    O1 1438   1.149   3.722   4.509
   46X2IT    C6 1439   1.233   3.625   4.310
   46X2IT   C12 1440   1.186   3.486   4.346
   46X2IT    C7 1441   1.304   3.649   4.194
   46X2IT    C8 1442   1.355   3.787   4.152
   46X2IT    O2 1443   1.413   3.798   4.043
   46X2IT    N3 1444   1.334   3.554   4.104
   46X2IT   H15 1445   1.307   3.457   4.114
   46X2IT   H16 1446   1.386   3.583   4.020
   46X2IT    N2 1447   1.246   3.982   4.435
   46X2IT    C3 1448   1.134   4.020   4.523
   46X2IT    C2 1449   1.088   4.152   4.462
   46X2IT    H2 1450   1.030   4.221   4.522
   46X2IT    N1 1451   1.063   4.140   4.317
   46X2IT   H14 1452   1.001   4.217   4.288
   46X2IT    C1 1453   1.190   4.198   4.365
   46X2IT    H1 1454   1.212   4.303   4.348
   46X2IT   C11 1455   1.305   4.099   4.365
   46X2IT    O3 1456   1.405   4.162   4.443
   46X2IT   C15 1457   1.510   4.079   4.495
   47X2IT   H18 1458   5.117   1.803   0.569
   47X2IT    N4 1459   5.148   1.714   0.604
   47X2IT   H17 1460   5.247   1.695   0.603
   47X2IT   C14 1461   5.071   1.658   0.703
   47X2IT    O5 1462   4.957   1.692   0.731
   47X2IT    O4 1463   5.139   1.556   0.762
   47X2IT   C13 1464   5.068   1.483   0.864
   47X2IT   C10 1465   4.977   1.374   0.802
   47X2IT    C9 1466   4.905   1.291   0.906
   47X2IT    C4 1467   4.937   1.157   0.890
   47X2IT    C5 1468   4.883   1.047   0.977
   47X2IT    O1 1469   4.914   0.930   0.953
   47X2IT    C6 1470   4.797   1.087   1.085
   47X2IT   C12 1471   4.739   0.981   1.177
   47X2IT    C7 1472   4.764   1.221   1.101
   47X2IT    C8 1473   4.819   1.332   1.011
   47X2IT    O2 1474   4.787   1.449   1.037
   47X2IT    N3 1475   4.683   1.267   1.197
   47X2IT   H15 1476   4.640   1.208   1.266
   47X2IT   H16 1477   4.668   1.368   1.200
   47X2IT    N2 1478   5.016   1.136   0.781
   47X2IT    C3 1479   5.120   1.034   0.764
   47X2IT    C2 1480   5.244   1.119   0.738
   47X2IT    H2 1481   5.331   1.075   0.690
   47X2IT    N1 1482   5.263   1.223   0.843
   47X2IT   H14 1483   5.361   1.253   0.843
   47X2IT    C1 1484   5.203   1.260   0.713
   47X2IT    H1 1485   5.256   1.325   0.644
   47X2IT   C11 1486   5.051   1.265   0.716
   47X2IT    O3 1487   5.014   1.268   0.580
   47X2IT   C15 1488   4.878   1.235   0.548
   48X2IT   H18 1489   4.702   1.015   3.675
   48X2IT    N4 1490   4.699   1.055   3.583
   48X2IT   H17 1491   4.683   0.992   3.505
   48X2IT   C14 1492   4.654   1.184   3.574
   48X2IT    O5 1493   4.644   1.261   3.668
   48X2IT    O4 1494   4.626   1.215   3.444
   48X2IT   C13 1495   4.583   1.350   3.418
   48X2IT   C10 1496   4.704   1.445   3.405
   48X2IT    C9 1497   4.664   1.587   3.372
   48X2IT    C4 1498   4.724   1.627   3.254
   48X2IT    C5 1499   4.705   1.762   3.191
   48X2IT    O1 1500   4.766   1.791   3.087
   48X2IT    C6 1501   4.615   1.852   3.259
   48X2IT   C12 1502   4.591   1.990   3.202
   48X2IT    C7 1503   4.555   1.813   3.378
   48X2IT    C8 1504   4.576   1.675   3.441
   48X2IT    O2 1505   4.514   1.648   3.545
   48X2IT    N3 1506   4.472   1.890   3.449
   48X2IT   H15 1507   4.446   1.983   3.421
   48X2IT   H16 1508   4.432   1.850   3.534
   48X2IT    N2 1509   4.809   1.533   3.205
   48X2IT    C3 1510   4.839   1.502   3.065
   48X2IT    C2 1511   4.796   1.356   3.053
   48X2IT    H2 1512   4.835   1.295   2.972
   48X2IT    N1 1513   4.658   1.335   3.102
   48X2IT   H14 1514   4.621   1.248   3.062
   48X2IT    C1 1515   4.772   1.301   3.189
   48X2IT    H1 1516   4.794   1.198   3.215
   48X2IT   C11 1517   4.805   1.410   3.290
   48X2IT    O3 1518   4.933   1.375   3.338
   48X2IT   C15 1519   5.008   1.477   3.405
   49X2IT   H18 1520   4.809   2.345   3.812
   49X2IT    N4 1521   4.777   2.440   3.813
   49X2IT   H17 1522   4.756   2.483   3.724
   49X2IT   C14 1523   4.707   2.480   3.924
   49X2IT    O5 1524   4.705   2.420   4.030
   49X2IT    O4 1525   4.645   2.599   3.899
   49X2IT   C13 1526   4.572   2.656   4.010
   49X2IT   C10 1527   4.666   2.735   4.103
   49X2IT    C9 1528   4.592   2.803   4.217
   49X2IT    C4 1529   4.615   2.939   4.214
   49X2IT    C5 1530   4.556   3.036   4.312
   49X2IT    O1 1531   4.585   3.157   4.304
   49X2IT    C6 1532   4.469   2.981   4.413
   49X2IT   C12 1533   4.406   3.073   4.515
   49X2IT    C7 1534   4.447   2.845   4.417
   49X2IT    C8 1535   4.508   2.747   4.316
   49X2IT    O2 1536   4.478   2.627   4.326
   49X2IT    N3 1537   4.369   2.784   4.507
   49X2IT   H15 1538   4.320   2.833   4.579
   49X2IT   H16 1539   4.359   2.682   4.500
   49X2IT    N2 1540   4.703   2.974   4.116
   49X2IT    C3 1541   4.705   3.098   4.037
   49X2IT    C2 1542   4.689   3.046   3.895
   49X2IT    H2 1543   4.720   3.108   3.810
   49X2IT    N1 1544   4.573   2.955   3.881
   49X2IT   H14 1545   4.546   2.950   3.782
   49X2IT    C1 1546   4.709   2.898   3.894
   49X2IT    H1 1547   4.755   2.845   3.812
   49X2IT   C11 1548   4.742   2.855   4.036
   49X2IT    O3 1549   4.883   2.837   4.034
   49X2IT   C15 1550   4.950   2.833   4.161
   50X2IT   H18 1551   2.509   1.253   0.685
   50X2IT    N4 1552   2.485   1.349   0.668
   50X2IT   H17 1553   2.445   1.372   0.578
   50X2IT   C14 1554   2.448   1.422   0.778
   50X2IT    O5 1555   2.468   1.390   0.894
   50X2IT    O4 1556   2.389   1.539   0.738
   50X2IT   C13 1557   2.351   1.629   0.844
   50X2IT   C10 1558   2.469   1.716   0.890
   50X2IT    C9 1559   2.432   1.817   0.996
   50X2IT    C4 1560   2.462   1.945   0.952
   50X2IT    C5 1561   2.436   2.069   1.033
   50X2IT    O1 1562   2.470   2.179   0.987
   50X2IT    C6 1563   2.373   2.050   1.161
   50X2IT   C12 1564   2.344   2.172   1.248
   50X2IT    C7 1565   2.344   1.923   1.205
   50X2IT    C8 1566   2.372   1.797   1.122
   50X2IT    O2 1567   2.337   1.687   1.170
   50X2IT    N3 1568   2.288   1.895   1.324
   50X2IT   H15 1569   2.261   1.966   1.390
   50X2IT   H16 1570   2.269   1.797   1.345
   50X2IT    N2 1571   2.524   1.944   0.832
   50X2IT    C3 1572   2.515   2.045   0.724
   50X2IT    C2 1573   2.461   1.963   0.608
   50X2IT    H2 1574   2.473   1.999   0.506
   50X2IT    N1 1575   2.339   1.887   0.645
   50X2IT   H14 1576   2.287   1.863   0.560
   50X2IT    C1 1577   2.470   1.818   0.641
   50X2IT    H1 1578   2.490   1.742   0.567
   50X2IT   C11 1579   2.535   1.806   0.778
   50X2IT    O3 1580   2.668   1.770   0.749
   50X2IT   C15 1581   2.765   1.788   0.854
   51X2IT   H18 1582   3.609   1.085  -0.289
   51X2IT    N4 1583   3.556   1.067  -0.206
   51X2IT   H17 1584   3.573   0.979  -0.159
   51X2IT   C14 1585   3.520   1.177  -0.132
   51X2IT    O5 1586   3.522   1.292  -0.171
   51X2IT    O4 1587   3.477   1.137  -0.008
   51X2IT   C13 1588   3.430   1.242   0.079
   51X2IT   C10 1589   3.283   1.277   0.049
   51X2IT    C9 1590   3.227   1.381   0.143
   51X2IT    C4 1591   3.116   1.332   0.209
   51X2IT    C5 1592   3.037   1.410   0.311
   51X2IT    O1 1593   2.937   1.358   0.362
   51X2IT    C6 1594   3.084   1.543   0.341
   51X2IT   C12 1595   3.010   1.626   0.442
   51X2IT    C7 1596   3.195   1.592   0.274
   51X2IT    C8 1597   3.274   1.512   0.171
   51X2IT    O2 1598   3.374   1.565   0.120
   51X2IT    N3 1599   3.245   1.715   0.294
   51X2IT   H15 1600   3.206   1.780   0.360
   51X2IT   H16 1601   3.328   1.741   0.240
   51X2IT    N2 1602   3.082   1.208   0.166
   51X2IT    C3 1603   3.023   1.098   0.244
   51X2IT    C2 1604   3.127   0.988   0.231
   51X2IT    H2 1605   3.099   0.884   0.249
   51X2IT    N1 1606   3.263   1.035   0.268
   51X2IT   H14 1607   3.321   0.954   0.291
   51X2IT    C1 1608   3.225   1.026   0.125
   51X2IT    H1 1609   3.272   0.953   0.060
   51X2IT   C11 1610   3.181   1.158   0.066
   51X2IT    O3 1611   3.118   1.122  -0.056
   51X2IT   C15 1612   3.032   1.220  -0.117
   52X2IT   H18 1613   3.565   3.898   0.594
   52X2IT    N4 1614   3.640   3.910   0.529
   52X2IT   H17 1615   3.734   3.895   0.563
   52X2IT   C14 1616   3.612   3.882   0.398
   52X2IT    O5 1617   3.501   3.871   0.351
   52X2IT    O4 1618   3.729   3.872   0.327
   52X2IT   C13 1619   3.714   3.849   0.185
   52X2IT   C10 1620   3.690   3.981   0.109
   52X2IT    C9 1621   3.681   3.962  -0.041
   52X2IT    C4 1622   3.777   4.039  -0.104
   52X2IT    C5 1623   3.796   4.042  -0.253
   52X2IT    O1 1624   3.882   4.117  -0.302
   52X2IT    C6 1625   3.710   3.957  -0.332
   52X2IT   C12 1626   3.724   3.956  -0.482
   52X2IT    C7 1627   3.614   3.881  -0.268
   52X2IT    C8 1628   3.594   3.878  -0.116
   52X2IT    O2 1629   3.508   3.803  -0.070
   52X2IT    N3 1630   3.528   3.800  -0.333
   52X2IT   H15 1631   3.528   3.788  -0.432
   52X2IT   H16 1632   3.462   3.747  -0.275
   52X2IT    N2 1633   3.846   4.116  -0.017
   52X2IT    C3 1634   3.987   4.158  -0.025
   52X2IT    C2 1635   4.045   4.100   0.103
   52X2IT    H2 1636   4.138   4.140   0.143
   52X2IT    N1 1637   4.015   3.955   0.118
   52X2IT   H14 1638   4.082   3.913   0.182
   52X2IT    C1 1639   3.934   4.055   0.191
   52X2IT    H1 1640   3.939   4.061   0.299
   52X2IT   C11 1641   3.803   4.089   0.123
   52X2IT    O3 1642   3.759   4.206   0.189
   52X2IT   C15 1643   3.659   4.285   0.123
   53X2IT   H18 1644   3.182   2.151   2.604
   53X2IT    N4 1645   3.130   2.108   2.529
   53X2IT   H17 1646   3.043   2.062   2.553
   53X2IT   C14 1647   3.144   2.165   2.406
   53X2IT    O5 1648   3.231   2.244   2.374
   53X2IT    O4 1649   3.046   2.118   2.322
   53X2IT   C13 1650   3.052   2.166   2.186
   53X2IT   C10 1651   3.151   2.083   2.102
   53X2IT    C9 1652   3.155   2.125   1.957
   53X2IT    C4 1653   3.124   2.018   1.875
   53X2IT    C5 1654   3.118   2.025   1.725
   53X2IT    O1 1655   3.093   1.923   1.660
   53X2IT    C6 1656   3.143   2.154   1.666
   53X2IT   C12 1657   3.138   2.169   1.515
   53X2IT    C7 1658   3.175   2.261   1.747
   53X2IT    C8 1659   3.182   2.252   1.900
   53X2IT    O2 1660   3.207   2.356   1.963
   53X2IT    N3 1661   3.202   2.385   1.701
   53X2IT   H15 1662   3.200   2.409   1.604
   53X2IT   H16 1663   3.223   2.457   1.771
   53X2IT    N2 1664   3.108   1.903   1.946
   53X2IT    C3 1665   3.017   1.791   1.917
   53X2IT    C2 1666   2.929   1.788   2.042
   53X2IT    H2 1667   2.874   1.697   2.067
   53X2IT    N1 1668   2.870   1.920   2.073
   53X2IT   H14 1669   2.788   1.907   2.132
   53X2IT    C1 1670   2.989   1.873   2.147
   53X2IT    H1 1671   2.983   1.850   2.252
   53X2IT   C11 1672   3.120   1.929   2.092
   53X2IT    O3 1673   3.220   1.849   2.152
   53X2IT   C15 1674   3.350   1.850   2.092
   54X2IT   H18 1675   5.406   4.333   2.090
   54X2IT    N4 1676   5.320   4.366   2.050
   54X2IT   H17 1677   5.319   4.461   2.015
   54X2IT   C14 1678   5.240   4.272   1.991
   54X2IT    O5 1679   5.250   4.152   2.006
   54X2IT    O4 1680   5.145   4.334   1.915
   54X2IT   C13 1681   5.049   4.247   1.851
   54X2IT   C10 1682   4.935   4.209   1.947
   54X2IT    C9 1683   4.828   4.124   1.882
   54X2IT    C4 1684   4.705   4.186   1.891
   54X2IT    C5 1685   4.578   4.128   1.836
   54X2IT    O1 1686   4.471   4.189   1.852
   54X2IT    C6 1687   4.589   4.002   1.767
   54X2IT   C12 1688   4.464   3.939   1.709
   54X2IT    C7 1689   4.712   3.940   1.759
   54X2IT    C8 1690   4.841   3.999   1.816
   54X2IT    O2 1691   4.946   3.936   1.799
   54X2IT    N3 1692   4.731   3.821   1.699
   54X2IT   H15 1693   4.658   3.769   1.654
   54X2IT   H16 1694   4.827   3.785   1.697
   54X2IT    N2 1695   4.711   4.301   1.963
   54X2IT    C3 1696   4.632   4.424   1.944
   54X2IT    C2 1697   4.740   4.528   1.917
   54X2IT    H2 1698   4.718   4.634   1.931
   54X2IT    N1 1699   4.832   4.486   1.808
   54X2IT   H14 1700   4.878   4.568   1.770
   54X2IT    C1 1701   4.873   4.471   1.949
   54X2IT    H1 1702   4.954   4.530   1.990
   54X2IT   C11 1703   4.851   4.330   2.004
   54X2IT    O3 1704   4.864   4.345   2.144
   54X2IT   C15 1705   4.811   4.240   2.226
   55X2IT   H18 1706   3.165   3.504   4.638
   55X2IT    N4 1707   3.220   3.426   4.606
   55X2IT   H17 1708   3.187   3.377   4.524
   55X2IT   C14 1709   3.354   3.431   4.631
   55X2IT    O5 1710   3.408   3.506   4.711
   55X2IT    O4 1711   3.419   3.336   4.557
   55X2IT   C13 1712   3.562   3.326   4.578
   55X2IT   C10 1713   3.594   3.239   4.701
   55X2IT    C9 1714   3.742   3.219   4.723
   55X2IT    C4 1715   3.774   3.085   4.721
   55X2IT    C5 1716   3.913   3.031   4.739
   55X2IT    O1 1717   3.931   2.908   4.740
   55X2IT    C6 1718   4.018   3.128   4.755
   55X2IT   C12 1719   4.161   3.081   4.773
   55X2IT    C7 1720   3.986   3.263   4.758
   55X2IT    C8 1721   3.844   3.316   4.740
   55X2IT    O2 1722   3.828   3.439   4.740
   55X2IT    N3 1723   4.077   3.361   4.774
   55X2IT   H15 1724   4.175   3.343   4.785
   55X2IT   H16 1725   4.042   3.457   4.772
   55X2IT    N2 1726   3.663   3.007   4.710
   55X2IT    C3 1727   3.651   2.877   4.642
   55X2IT    C2 1728   3.545   2.906   4.536
   55X2IT    H2 1729   3.490   2.823   4.491
   55X2IT    N1 1730   3.578   3.025   4.455
   55X2IT   H14 1731   3.526   3.021   4.367
   55X2IT    C1 1732   3.480   3.036   4.565
   55X2IT    H1 1733   3.376   3.056   4.545
   55X2IT   C11 1734   3.541   3.090   4.694
   55X2IT    O3 1735   3.444   3.062   4.793
   55X2IT   C15 1736   3.487   3.065   4.930
   56X2IT   H18 1737   4.435   3.478   1.012
   56X2IT    N4 1738   4.423   3.470   0.913
   56X2IT   H17 1739   4.331   3.442   0.880
   56X2IT   C14 1740   4.499   3.553   0.836
   56X2IT    O5 1741   4.598   3.613   0.874
   56X2IT    O4 1742   4.452   3.554   0.708
   56X2IT   C13 1743   4.528   3.633   0.613
   56X2IT   C10 1744   4.647   3.553   0.558
   56X2IT    C9 1745   4.725   3.630   0.453
   56X2IT    C4 1746   4.728   3.558   0.335
   56X2IT    C5 1747   4.797   3.606   0.210
   56X2IT    O1 1748   4.798   3.533   0.109
   56X2IT    C6 1749   4.860   3.735   0.216
   56X2IT   C12 1750   4.930   3.790   0.094
   56X2IT    C7 1751   4.857   3.806   0.335
   56X2IT    C8 1752   4.788   3.756   0.462
   56X2IT    O2 1753   4.788   3.831   0.561
   56X2IT    N3 1754   4.914   3.927   0.351
   56X2IT   H15 1755   4.962   3.975   0.277
   56X2IT   H16 1756   4.905   3.971   0.443
   56X2IT    N2 1757   4.669   3.436   0.347
   56X2IT    C3 1758   4.594   3.362   0.245
   56X2IT    C2 1759   4.457   3.347   0.309
   56X2IT    H2 1760   4.389   3.269   0.275
   56X2IT    N1 1761   4.403   3.477   0.356
   56X2IT   H14 1762   4.301   3.470   0.365
   56X2IT    C1 1763   4.466   3.385   0.453
   56X2IT    H1 1764   4.407   3.338   0.530
   56X2IT   C11 1765   4.611   3.420   0.483
   56X2IT    O3 1766   4.661   3.304   0.548
   56X2IT   C15 1767   4.803   3.290   0.555
   57X2IT   H18 1768   3.726   4.559   3.366
   57X2IT    N4 1769   3.803   4.514   3.412
   57X2IT   H17 1770   3.841   4.560   3.494
   57X2IT   C14 1771   3.807   4.378   3.404
   57X2IT    O5 1772   3.743   4.310   3.325
   57X2IT    O4 1773   3.896   4.328   3.495
   57X2IT   C13 1774   3.916   4.185   3.493
   57X2IT   C10 1775   4.017   4.144   3.385
   57X2IT    C9 1776   4.046   3.995   3.385
   57X2IT    C4 1777   4.181   3.973   3.403
   57X2IT    C5 1778   4.243   3.836   3.409
   57X2IT    O1 1779   4.366   3.826   3.422
   57X2IT    C6 1780   4.153   3.724   3.397
   57X2IT   C12 1781   4.210   3.584   3.403
   57X2IT    C7 1782   4.018   3.747   3.378
   57X2IT    C8 1783   3.956   3.886   3.371
   57X2IT    O2 1784   3.833   3.895   3.358
   57X2IT    N3 1785   3.928   3.649   3.364
   57X2IT   H15 1786   3.951   3.551   3.368
   57X2IT   H16 1787   3.830   3.677   3.351
   57X2IT    N2 1788   4.252   4.089   3.408
   57X2IT    C3 1789   4.373   4.118   3.486
   57X2IT    C2 1790   4.328   4.234   3.574
   57X2IT    H2 1791   4.402   4.299   3.619
   57X2IT    N1 1792   4.203   4.204   3.646
   57X2IT   H14 1793   4.195   4.266   3.727
   57X2IT    C1 1794   4.198   4.286   3.524
   57X2IT    H1 1795   4.171   4.390   3.528
   57X2IT   C11 1796   4.161   4.206   3.400
   57X2IT    O3 1797   4.195   4.292   3.292
   57X2IT   C15 1798   4.208   4.232   3.162
   58X2IT   H18 1799   4.960   0.536   2.312
   58X2IT    N4 1800   5.008   0.604   2.256
   58X2IT   H17 1801   5.093   0.643   2.294
   58X2IT   C14 1802   4.997   0.591   2.120
   58X2IT    O5 1803   4.913   0.523   2.063
   58X2IT    O4 1804   5.090   0.668   2.058
   58X2IT   C13 1805   5.085   0.670   1.914
   58X2IT   C10 1806   4.981   0.770   1.862
   58X2IT    C9 1807   4.978   0.780   1.711
   58X2IT    C4 1808   5.003   0.910   1.671
   58X2IT    C5 1809   5.007   0.954   1.527
   58X2IT    O1 1810   5.026   1.073   1.501
   58X2IT    C6 1811   4.988   0.851   1.428
   58X2IT   C12 1812   4.992   0.889   1.281
   58X2IT    C7 1813   4.962   0.721   1.468
   58X2IT    C8 1814   4.957   0.678   1.615
   58X2IT    O2 1815   4.938   0.558   1.639
   58X2IT    N3 1816   4.941   0.620   1.383
   58X2IT   H15 1817   4.943   0.630   1.283
   58X2IT   H16 1818   4.925   0.527   1.424
   58X2IT    N2 1819   5.014   0.994   1.776
   58X2IT    C3 1820   5.099   1.114   1.788
   58X2IT    C2 1821   5.187   1.080   1.907
   58X2IT    H2 1822   5.238   1.160   1.961
   58X2IT    N1 1823   5.253   0.948   1.892
   58X2IT   H14 1824   5.335   0.944   1.952
   58X2IT    C1 1825   5.133   0.961   1.976
   58X2IT    H1 1826   5.139   0.947   2.083
   58X2IT   C11 1827   5.005   0.920   1.905
   58X2IT    O3 1828   4.902   0.970   1.988
   58X2IT   C15 1829   4.771   0.982   1.930
   59X2IT   H18 1830   3.159   4.450   2.973
   59X2IT    N4 1831   3.085   4.416   3.032
   59X2IT   H17 1832   3.017   4.484   3.065
   59X2IT   C14 1833   3.045   4.287   3.011
   59X2IT    O5 1834   3.107   4.203   2.949
   59X2IT    O4 1835   2.925   4.265   3.074
   59X2IT   C13 1836   2.874   4.131   3.066
   59X2IT   C10 1837   2.936   4.040   3.173
   59X2IT    C9 1838   2.880   3.900   3.172
   59X2IT    C4 1839   2.826   3.869   3.296
   59X2IT    C5 1840   2.760   3.738   3.329
   59X2IT    O1 1841   2.718   3.719   3.444
   59X2IT    C6 1842   2.752   3.642   3.222
   59X2IT   C12 1843   2.687   3.507   3.249
   59X2IT    C7 1844   2.807   3.671   3.099
   59X2IT    C8 1845   2.874   3.805   3.067
   59X2IT    O2 1846   2.916   3.823   2.951
   59X2IT    N3 1847   2.806   3.587   2.995
   59X2IT   H15 1848   2.764   3.496   2.998
   59X2IT   H16 1849   2.848   3.620   2.907
   59X2IT    N2 1850   2.846   3.969   3.386
   59X2IT    C3 1851   2.758   4.010   3.497
   59X2IT    C2 1852   2.727   4.155   3.461
   59X2IT    H2 1853   2.692   4.223   3.539
   59X2IT    N1 1854   2.677   4.170   3.323
   59X2IT   H14 1855   2.626   4.258   3.314
   59X2IT    C1 1856   2.819   4.200   3.354
   59X2IT    H1 1857   2.856   4.301   3.347
   59X2IT   C11 1858   2.913   4.085   3.322
   59X2IT    O3 1859   3.033   4.120   3.388
   59X2IT   C15 1860   3.129   4.015   3.410
   60X2IT   H18 1861   1.774   2.004   2.308
   60X2IT    N4 1862   1.806   2.097   2.288
   60X2IT   H17 1863   1.905   2.111   2.277
   60X2IT   C14 1864   1.719   2.177   2.219
   60X2IT    O5 1865   1.600   2.156   2.204
   60X2IT    O4 1866   1.785   2.288   2.174
   60X2IT   C13 1867   1.704   2.386   2.104
   60X2IT   C10 1868   1.633   2.480   2.203
   60X2IT    C9 1869   1.553   2.588   2.134
   60X2IT    C4 1870   1.598   2.713   2.174
   60X2IT    C5 1871   1.540   2.842   2.124
   60X2IT    O1 1872   1.583   2.950   2.168
   60X2IT    C6 1873   1.434   2.832   2.026
   60X2IT   C12 1874   1.372   2.959   1.971
   60X2IT    C7 1875   1.390   2.708   1.987
   60X2IT    C8 1876   1.449   2.577   2.040
   60X2IT    O2 1877   1.404   2.470   1.994
   60X2IT    N3 1878   1.291   2.688   1.898
   60X2IT   H15 1879   1.242   2.764   1.852
   60X2IT   H16 1880   1.267   2.591   1.875
   60X2IT    N2 1881   1.694   2.705   2.270
   60X2IT    C3 1882   1.808   2.796   2.291
   60X2IT    C2 1883   1.927   2.702   2.275
   60X2IT    H2 1884   2.023   2.730   2.317
   60X2IT    N1 1885   1.921   2.625   2.149
   60X2IT   H14 1886   2.015   2.592   2.125
   60X2IT    C1 1887   1.879   2.561   2.276
   60X2IT    H1 1888   1.936   2.480   2.318
   60X2IT   C11 1889   1.729   2.563   2.297
   60X2IT    O3 1890   1.713   2.530   2.434
   60X2IT   C15 1891   1.587   2.561   2.495
   61X2IT   H18 1892   0.643   5.157   0.827
   61X2IT    N4 1893   0.706   5.132   0.753
   61X2IT   H17 1894   0.797   5.098   0.779
   61X2IT   C14 1895   0.648   5.084   0.639
   61X2IT    O5 1896   0.530   5.096   0.609
   61X2IT    O4 1897   0.743   5.025   0.560
   61X2IT   C13 1898   0.697   4.976   0.432
   61X2IT   C10 1899   0.693   5.088   0.327
   61X2IT    C9 1900   0.652   5.039   0.190
   61X2IT    C4 1901   0.751   5.068   0.097
   61X2IT    C5 1902   0.743   5.033  -0.048
   61X2IT    O1 1903   0.835   5.067  -0.124
   61X2IT    C6 1904   0.625   4.961  -0.091
   61X2IT   C12 1905   0.611   4.922  -0.236
   61X2IT    C7 1906   0.526   4.933   0.001
   61X2IT    C8 1907   0.535   4.970   0.150
   61X2IT    O2 1908   0.442   4.936   0.224
   61X2IT    N3 1909   0.413   4.868  -0.029
   61X2IT   H15 1910   0.391   4.834  -0.121
   61X2IT   H16 1911   0.347   4.851   0.048
   61X2IT    N2 1912   0.853   5.140   0.152
   61X2IT    C3 1913   0.996   5.136   0.117
   61X2IT    C2 1914   1.060   5.093   0.249
   61X2IT    H2 1915   1.165   5.113   0.266
   61X2IT    N1 1916   0.997   4.971   0.305
   61X2IT   H14 1917   1.062   4.927   0.371
   61X2IT    C1 1918   0.960   5.104   0.358
   61X2IT    H1 1919   0.985   5.132   0.459
   61X2IT   C11 1920   0.831   5.159   0.299
   61X2IT    O3 1921   0.831   5.295   0.335
   61X2IT   C15 1922   0.744   5.383   0.262
   62X2IT   H18 1923   1.396   4.699   2.526
   62X2IT    N4 1924   1.454   4.622   2.498
   62X2IT   H17 1925   1.409   4.532   2.490
   62X2IT   C14 1926   1.560   4.651   2.417
   62X2IT    O5 1927   1.606   4.762   2.399
   62X2IT    O4 1928   1.610   4.536   2.363
   62X2IT   C13 1929   1.728   4.550   2.281
   62X2IT   C10 1930   1.856   4.555   2.366
   62X2IT    C9 1931   1.982   4.563   2.282
   62X2IT    C4 1932   2.065   4.456   2.311
   62X2IT    C5 1933   2.198   4.434   2.245
   62X2IT    O1 1934   2.268   4.338   2.280
   62X2IT    C6 1935   2.237   4.529   2.144
   62X2IT   C12 1936   2.370   4.512   2.073
   62X2IT    C7 1937   2.154   4.636   2.116
   62X2IT    C8 1938   2.019   4.658   2.184
   62X2IT    O2 1939   1.951   4.756   2.148
   62X2IT    N3 1940   2.182   4.731   2.025
   62X2IT   H15 1941   2.266   4.730   1.969
   62X2IT   H16 1942   2.113   4.805   2.011
   62X2IT    N2 1943   2.016   4.379   2.411
   62X2IT    C3 1944   2.031   4.234   2.429
   62X2IT    C2 1945   1.886   4.187   2.428
   62X2IT    H2 1946   1.860   4.090   2.472
   62X2IT    N1 1947   1.811   4.236   2.311
   62X2IT   H14 1948   1.729   4.177   2.295
   62X2IT    C1 1949   1.796   4.304   2.441
   62X2IT    H1 1950   1.701   4.301   2.494
   62X2IT   C11 1951   1.882   4.428   2.455
   62X2IT    O3 1952   1.879   4.457   2.594
   62X2IT   C15 1953   1.981   4.544   2.645
   63X2IT   H18 1954   1.462   4.599   1.904
   63X2IT    N4 1955   1.426   4.507   1.884
   63X2IT   H17 1956   1.363   4.466   1.952
   63X2IT   C14 1957   1.412   4.474   1.753
   63X2IT    O5 1958   1.463   4.533   1.659
   63X2IT    O4 1959   1.335   4.361   1.741
   63X2IT   C13 1960   1.317   4.310   1.607
   63X2IT   C10 1961   1.436   4.223   1.564
   63X2IT    C9 1962   1.417   4.162   1.427
   63X2IT    C4 1963   1.424   4.024   1.434
   63X2IT    C5 1964   1.409   3.932   1.316
   63X2IT    O1 1965   1.421   3.810   1.332
   63X2IT    C6 1966   1.383   3.995   1.189
   63X2IT   C12 1967   1.366   3.909   1.066
   63X2IT    C7 1968   1.377   4.133   1.181
   63X2IT    C8 1969   1.393   4.225   1.302
   63X2IT    O2 1970   1.381   4.347   1.284
   63X2IT    N3 1971   1.354   4.200   1.067
   63X2IT   H15 1972   1.340   4.155   0.979
   63X2IT   H16 1973   1.350   4.303   1.073
   63X2IT    N2 1974   1.454   3.981   1.560
   63X2IT    C3 1975   1.410   3.858   1.626
   63X2IT    C2 1976   1.335   3.912   1.748
   63X2IT    H2 1977   1.319   3.847   1.834
   63X2IT    N1 1978   1.234   4.013   1.711
   63X2IT   H14 1979   1.164   4.020   1.786
   63X2IT    C1 1980   1.365   4.057   1.763
   63X2IT    H1 1981   1.372   4.106   1.859
   63X2IT   C11 1982   1.463   4.096   1.654
   63X2IT    O3 1983   1.588   4.101   1.720
   63X2IT   C15 1984   1.705   4.098   1.638
   64X2IT   H18 1985   0.635   3.635   5.172
   64X2IT    N4 1986   0.572   3.683   5.110
   64X2IT   H17 1987   0.512   3.753   5.151
   64X2IT   C14 1988   0.614   3.698   4.981
   64X2IT    O5 1989   0.705   3.636   4.929
   64X2IT    O4 1990   0.536   3.790   4.917
   64X2IT   C13 1991   0.564   3.811   4.777
   64X2IT   C10 1992   0.495   3.705   4.689
   64X2IT    C9 1993   0.517   3.728   4.541
   64X2IT    C4 1994   0.395   3.742   4.477
   64X2IT    C5 1995   0.381   3.766   4.329
   64X2IT    O1 1996   0.268   3.773   4.279
   64X2IT    C6 1997   0.503   3.780   4.254
   64X2IT   C12 1998   0.496   3.805   4.105
   64X2IT    C7 1999   0.625   3.765   4.318
   64X2IT    C8 2000   0.638   3.739   4.469
   64X2IT    O2 2001   0.752   3.732   4.517
   64X2IT    N3 2002   0.744   3.774   4.256
   64X2IT   H15 2003   0.753   3.792   4.158
   64X2IT   H16 2004   0.827   3.763   4.314
   64X2IT    N2 2005   0.291   3.722   4.561
   64X2IT    C3 2006   0.158   3.787   4.557
   64X2IT    C2 2007   0.152   3.856   4.692
   64X2IT    H2 2008   0.056   3.884   4.734
   64X2IT    N1 2009   0.271   3.941   4.717
   64X2IT   H14 2010   0.249   4.010   4.789
   64X2IT    C1 2011   0.263   3.806   4.778
   64X2IT    H1 2012   0.253   3.794   4.885
   64X2IT   C11 2013   0.338   3.700   4.700
   64X2IT    O3 2014   0.291   3.578   4.754
   64X2IT   C15 2015   0.314   3.459   4.676
   65X2IT   H18 2016   4.121   4.201   0.852
   65X2IT    N4 2017   4.060   4.134   0.893
   65X2IT   H17 2018   4.092   4.038   0.896
   65X2IT   C14 2019   3.977   4.179   0.992
   65X2IT    O5 2020   3.952   4.296   1.016
   65X2IT    O4 2021   3.923   4.073   1.059
   65X2IT   C13 2022   3.828   4.105   1.163
   65X2IT   C10 2023   3.687   4.129   1.105
   65X2IT    C9 2024   3.583   4.157   1.211
   65X2IT    C4 2025   3.481   4.064   1.203
   65X2IT    C5 2026   3.362   4.062   1.295
   65X2IT    O1 2027   3.273   3.977   1.278
   65X2IT    C6 2028   3.359   4.162   1.398
   65X2IT   C12 2029   3.242   4.166   1.495
   65X2IT    C7 2030   3.460   4.256   1.406
   65X2IT    C8 2031   3.581   4.257   1.311
   65X2IT    O2 2032   3.668   4.343   1.330
   65X2IT    N3 2033   3.465   4.354   1.497
   65X2IT   H15 2034   3.395   4.367   1.568
   65X2IT   H16 2035   3.546   4.417   1.494
   65X2IT    N2 2036   3.497   3.979   1.098
   65X2IT    C3 2037   3.458   3.838   1.089
   65X2IT    C2 2038   3.591   3.769   1.063
   65X2IT    H2 2039   3.593   3.669   1.019
   65X2IT    N1 2040   3.695   3.808   1.161
   65X2IT   H14 2041   3.769   3.737   1.163
   65X2IT    C1 2042   3.693   3.871   1.028
   65X2IT    H1 2043   3.773   3.854   0.958
   65X2IT   C11 2044   3.625   4.007   1.027
   65X2IT    O3 2045   3.604   4.034   0.890
   65X2IT   C15 2046   3.508   4.135   0.857
   66X2IT   H18 2047   2.918   4.487   1.792
   66X2IT    N4 2048   2.908   4.554   1.866
   66X2IT   H17 2049   2.917   4.651   1.842
   66X2IT   C14 2050   2.826   4.518   1.969
   66X2IT    O5 2051   2.787   4.405   1.992
   66X2IT    O4 2052   2.797   4.628   2.046
   66X2IT   C13 2053   2.716   4.604   2.163
   66X2IT   C10 2054   2.801   4.555   2.281
   66X2IT    C9 2055   2.721   4.535   2.408
   66X2IT    C4 2056   2.773   4.614   2.510
   66X2IT    C5 2057   2.716   4.619   2.649
   66X2IT    O1 2058   2.771   4.689   2.735
   66X2IT    C6 2059   2.599   4.538   2.673
   66X2IT   C12 2060   2.536   4.539   2.811
   66X2IT    C7 2061   2.548   4.459   2.572
   66X2IT    C8 2062   2.607   4.454   2.431
   66X2IT    O2 2063   2.551   4.383   2.347
   66X2IT    N3 2064   2.441   4.380   2.586
   66X2IT   H15 2065   2.388   4.372   2.672
   66X2IT   H16 2066   2.411   4.327   2.504
   66X2IT    N2 2067   2.885   4.679   2.472
   66X2IT    C3 2068   2.932   4.812   2.515
   66X2IT    C2 2069   2.937   4.889   2.384
   66X2IT    H2 2070   2.998   4.979   2.376
   66X2IT    N1 2071   2.810   4.880   2.308
   66X2IT   H14 2072   2.804   4.958   2.242
   66X2IT    C1 2073   2.924   4.794   2.270
   66X2IT    H1 2074   2.974   4.808   2.176
   66X2IT   C11 2075   2.915   4.654   2.328
   66X2IT    O3 2076   3.045   4.601   2.309
   66X2IT   C15 2077   3.080   4.485   2.387
   67X2IT   H18 2078   0.752   1.803   1.014
   67X2IT    N4 2079   0.704   1.742   0.951
   67X2IT   H17 2080   0.621   1.778   0.906
   67X2IT   C14 2081   0.779   1.649   0.885
   67X2IT    O5 2082   0.893   1.616   0.916
   67X2IT    O4 2083   0.708   1.595   0.782
   67X2IT   C13 2084   0.773   1.490   0.707
   67X2IT   C10 2085   0.758   1.354   0.777
   67X2IT    C9 2086   0.819   1.240   0.698
   67X2IT    C4 2087   0.724   1.144   0.670
   67X2IT    C5 2088   0.751   1.019   0.593
   67X2IT    O1 2089   0.660   0.936   0.576
   67X2IT    C6 2090   0.885   1.001   0.543
   67X2IT   C12 2091   0.920   0.877   0.464
   67X2IT    C7 2092   0.981   1.097   0.572
   67X2IT    C8 2093   0.952   1.224   0.652
   67X2IT    O2 2094   1.045   1.305   0.668
   67X2IT    N3 2095   1.109   1.088   0.532
   67X2IT   H15 2096   1.145   1.012   0.477
   67X2IT   H16 2097   1.171   1.166   0.557
   67X2IT    N2 2098   0.604   1.173   0.728
   67X2IT    C3 2099   0.470   1.143   0.677
   67X2IT    C2 2100   0.408   1.282   0.665
   67X2IT    H2 2101   0.300   1.293   0.661
   67X2IT    N1 2102   0.493   1.375   0.587
   67X2IT   H14 2103   0.436   1.452   0.552
   67X2IT    C1 2104   0.494   1.380   0.735
   67X2IT    H1 2105   0.455   1.467   0.787
   67X2IT   C11 2106   0.610   1.305   0.798
   67X2IT    O3 2107   0.574   1.294   0.934
   67X2IT   C15 2108   0.643   1.196   1.012
   68X2IT   H18 2109   1.741   4.125   0.751
   68X2IT    N4 2110   1.804   4.174   0.812
   68X2IT   H17 2111   1.772   4.194   0.905
   68X2IT   C14 2112   1.938   4.152   0.791
   68X2IT    O5 2113   1.986   4.102   0.691
   68X2IT    O4 2114   2.010   4.198   0.897
   68X2IT   C13 2115   2.153   4.188   0.886
   68X2IT   C10 2116   2.212   4.306   0.807
   68X2IT    C9 2117   2.363   4.302   0.799
   68X2IT    C4 2118   2.416   4.418   0.852
   68X2IT    C5 2119   2.564   4.447   0.860
   68X2IT    O1 2120   2.602   4.555   0.906
   68X2IT    C6 2121   2.652   4.343   0.812
   68X2IT   C12 2122   2.802   4.366   0.818
   68X2IT    C7 2123   2.599   4.228   0.758
   68X2IT    C8 2124   2.448   4.200   0.750
   68X2IT    O2 2125   2.412   4.091   0.704
   68X2IT    N3 2126   2.673   4.127   0.710
   68X2IT   H15 2127   2.773   4.128   0.710
   68X2IT   H16 2128   2.623   4.045   0.674
   68X2IT    N2 2129   2.320   4.507   0.888
   68X2IT    C3 2130   2.323   4.603   0.999
   68X2IT    C2 2131   2.203   4.559   1.083
   68X2IT    H2 2132   2.158   4.629   1.153
   68X2IT    N1 2133   2.207   4.415   1.114
   68X2IT   H14 2134   2.148   4.396   1.196
   68X2IT    C1 2135   2.121   4.463   1.005
   68X2IT    H1 2136   2.013   4.458   1.012
   68X2IT   C11 2137   2.185   4.448   0.867
   68X2IT    O3 2138   2.104   4.529   0.783
   68X2IT   C15 2139   2.160   4.567   0.657
   69X2IT   H18 2140   4.114   3.862   2.461
   69X2IT    N4 2141   4.180   3.788   2.472
   69X2IT   H17 2142   4.206   3.764   2.567
   69X2IT   C14 2143   4.179   3.690   2.377
   69X2IT    O5 2144   4.127   3.699   2.267
   69X2IT    O4 2145   4.250   3.582   2.420
   69X2IT   C13 2146   4.263   3.472   2.327
   69X2IT   C10 2147   4.379   3.497   2.228
   69X2IT    C9 2148   4.401   3.382   2.133
   69X2IT    C4 2149   4.530   3.333   2.145
   69X2IT    C5 2150   4.584   3.218   2.065
   69X2IT    O1 2151   4.702   3.185   2.079
   69X2IT    C6 2152   4.492   3.155   1.973
   69X2IT   C12 2153   4.540   3.038   1.890
   69X2IT    C7 2154   4.364   3.203   1.961
   69X2IT    C8 2155   4.310   3.321   2.042
   69X2IT    O2 2156   4.191   3.354   2.026
   69X2IT    N3 2157   4.272   3.152   1.877
   69X2IT   H15 2158   4.290   3.073   1.818
   69X2IT   H16 2159   4.179   3.195   1.878
   69X2IT    N2 2160   4.604   3.407   2.231
   69X2IT    C3 2161   4.712   3.361   2.320
   69X2IT    C2 2162   4.659   3.398   2.457
   69X2IT    H2 2163   4.728   3.407   2.541
   69X2IT    N1 2164   4.522   3.346   2.480
   69X2IT   H14 2165   4.504   3.342   2.581
   69X2IT    C1 2166   4.541   3.488   2.442
   69X2IT    H1 2167   4.519   3.567   2.512
   69X2IT   C11 2168   4.521   3.514   2.294
   69X2IT    O3 2169   4.576   3.643   2.274
   69X2IT   C15 2170   4.607   3.680   2.139
   70X2IT   H18 2171   2.565  -0.159   3.780
   70X2IT    N4 2172   2.616  -0.091   3.728
   70X2IT   H17 2173   2.698  -0.051   3.771
   70X2IT   C14 2174   2.612  -0.104   3.592
   70X2IT    O5 2175   2.532  -0.172   3.530
   70X2IT    O4 2176   2.708  -0.025   3.535
   70X2IT   C13 2177   2.712  -0.024   3.390
   70X2IT   C10 2178   2.610   0.075   3.332
   70X2IT    C9 2179   2.615   0.085   3.182
   70X2IT    C4 2180   2.640   0.215   3.143
   70X2IT    C5 2181   2.653   0.260   3.000
   70X2IT    O1 2182   2.672   0.379   2.975
   70X2IT    C6 2183   2.640   0.157   2.900
   70X2IT   C12 2184   2.652   0.194   2.753
   70X2IT    C7 2185   2.614   0.027   2.938
   70X2IT    C8 2186   2.601  -0.017   3.084
   70X2IT    O2 2187   2.581  -0.137   3.108
   70X2IT    N3 2188   2.599  -0.075   2.852
   70X2IT   H15 2189   2.606  -0.065   2.753
   70X2IT   H16 2190   2.581  -0.168   2.892
   70X2IT    N2 2191   2.645   0.300   3.249
   70X2IT    C3 2192   2.727   0.421   3.265
   70X2IT    C2 2193   2.809   0.387   3.389
   70X2IT    H2 2194   2.856   0.468   3.446
   70X2IT    N1 2195   2.877   0.256   3.378
   70X2IT   H14 2196   2.956   0.253   3.443
   70X2IT    C1 2197   2.752   0.268   3.455
   70X2IT    H1 2198   2.752   0.254   3.563
   70X2IT   C11 2199   2.629   0.225   3.377
   70X2IT    O3 2200   2.521   0.274   3.454
   70X2IT   C15 2201   2.393   0.285   3.389
   71X2IT   H18 2202   1.544   3.980   3.696
   71X2IT    N4 2203   1.530   3.998   3.598
   71X2IT   H17 2204   1.454   4.059   3.573
   71X2IT   C14 2205   1.642   3.995   3.519
   71X2IT    O5 2206   1.749   3.946   3.550
   71X2IT    O4 2207   1.614   4.051   3.397
   71X2IT   C13 2208   1.721   4.048   3.301
   71X2IT   C10 2209   1.727   3.914   3.227
   71X2IT    C9 2210   1.834   3.910   3.119
   71X2IT    C4 2211   1.777   3.881   2.997
   71X2IT    C5 2212   1.855   3.870   2.869
   71X2IT    O1 2213   1.796   3.840   2.764
   71X2IT    C6 2214   1.997   3.895   2.877
   71X2IT   C12 2215   2.081   3.886   2.752
   71X2IT    C7 2216   2.054   3.923   3.000
   71X2IT    C8 2217   1.973   3.933   3.130
   71X2IT    O2 2218   2.034   3.963   3.234
   71X2IT    N3 2219   2.185   3.946   3.018
   71X2IT   H15 2220   2.252   3.945   2.943
   71X2IT   H16 2221   2.216   3.967   3.114
   71X2IT    N2 2222   1.644   3.856   3.007
   71X2IT    C3 2223   1.539   3.885   2.908
   71X2IT    C2 2224   1.447   3.978   2.987
   71X2IT    H2 2225   1.343   3.992   2.955
   71X2IT    N1 2226   1.520   4.091   3.048
   71X2IT   H14 2227   1.454   4.167   3.068
   71X2IT    C1 2228   1.484   3.974   3.131
   71X2IT    H1 2229   1.411   3.983   3.210
   71X2IT   C11 2230   1.597   3.875   3.147
   71X2IT    O3 2231   1.534   3.759   3.198
   71X2IT   C15 2232   1.606   3.635   3.188
   72X2IT   H18 2233   2.340   3.232   2.415
   72X2IT    N4 2234   2.319   3.295   2.340
   72X2IT   H17 2235   2.243   3.359   2.355
   72X2IT   C14 2236   2.424   3.333   2.261
   72X2IT    O5 2237   2.532   3.276   2.256
   72X2IT    O4 2238   2.389   3.441   2.185
   72X2IT   C13 2239   2.488   3.488   2.092
   72X2IT   C10 2240   2.485   3.406   1.961
   72X2IT    C9 2241   2.583   3.457   1.857
   72X2IT    C4 2242   2.516   3.491   1.741
   72X2IT    C5 2243   2.583   3.545   1.619
   72X2IT    O1 2244   2.516   3.570   1.518
   72X2IT    C6 2245   2.726   3.565   1.627
   72X2IT   C12 2246   2.800   3.620   1.507
   72X2IT    C7 2247   2.793   3.530   1.743
   72X2IT    C8 2248   2.723   3.474   1.867
   72X2IT    O2 2249   2.792   3.450   1.967
   72X2IT    N3 2250   2.925   3.543   1.759
   72X2IT   H15 2251   2.986   3.581   1.689
   72X2IT   H16 2252   2.964   3.516   1.850
   72X2IT    N2 2253   2.383   3.462   1.748
   72X2IT    C3 2254   2.272   3.534   1.685
   72X2IT    C2 2255   2.188   3.575   1.806
   72X2IT    H2 2256   2.083   3.601   1.793
   72X2IT    N1 2257   2.269   3.645   1.909
   72X2IT   H14 2258   2.207   3.700   1.969
   72X2IT    C1 2259   2.236   3.502   1.926
   72X2IT    H1 2260   2.170   3.470   2.006
   72X2IT   C11 2261   2.348   3.409   1.883
   72X2IT    O3 2262   2.286   3.282   1.875
   72X2IT   C15 2263   2.354   3.180   1.801
   73X2IT   H18 2264   3.946   1.040   1.019
   73X2IT    N4 2265   3.987   1.097   0.947
   73X2IT   H17 2266   3.973   1.196   0.953
   73X2IT   C14 2267   4.103   1.049   0.891
   73X2IT    O5 2268   4.143   0.935   0.901
   73X2IT    O4 2269   4.164   1.148   0.820
   73X2IT   C13 2270   4.284   1.111   0.749
   73X2IT   C10 2271   4.252   1.045   0.614
   73X2IT    C9 2272   4.375   1.010   0.534
   73X2IT    C4 2273   4.372   1.074   0.411
   73X2IT    C5 2274   4.480   1.062   0.307
   73X2IT    O1 2275   4.466   1.119   0.198
   73X2IT    C6 2276   4.594   0.981   0.342
   73X2IT   C12 2277   4.707   0.964   0.243
   73X2IT    C7 2278   4.597   0.917   0.465
   73X2IT    C8 2279   4.486   0.929   0.569
   73X2IT    O2 2280   4.501   0.871   0.678
   73X2IT    N3 2281   4.698   0.838   0.506
   73X2IT   H15 2282   4.780   0.821   0.450
   73X2IT   H16 2283   4.690   0.797   0.599
   73X2IT    N2 2284   4.256   1.142   0.392
   73X2IT    C3 2285   4.236   1.267   0.317
   73X2IT    C2 2286   4.181   1.360   0.424
   73X2IT    H2 2287   4.125   1.449   0.394
   73X2IT    N1 2288   4.266   1.364   0.544
   73X2IT   H14 2289   4.248   1.449   0.597
   73X2IT    C1 2290   4.144   1.281   0.544
   73X2IT    H1 2291   4.060   1.306   0.608
   73X2IT   C11 2292   4.170   1.135   0.513
   73X2IT    O3 2293   4.042   1.082   0.484
   73X2IT   C15 2294   4.036   0.957   0.415
   74X2IT   H18 2295   1.105   4.381   1.309
   74X2IT    N4 2296   1.020   4.350   1.351
   74X2IT   H17 2297   0.951   4.307   1.291
   74X2IT   C14 2298   1.028   4.310   1.482
   74X2IT    O5 2299   1.120   4.334   1.557
   74X2IT    O4 2300   0.914   4.242   1.517
   74X2IT   C13 2301   0.906   4.199   1.654
   74X2IT   C10 2302   0.855   4.312   1.745
   74X2IT    C9 2303   0.838   4.269   1.889
   74X2IT    C4 2304   0.707   4.289   1.930
   74X2IT    C5 2305   0.656   4.256   2.067
   74X2IT    O1 2306   0.539   4.281   2.096
   74X2IT    C6 2307   0.751   4.197   2.159
   74X2IT   C12 2308   0.706   4.161   2.299
   74X2IT    C7 2309   0.882   4.178   2.118
   74X2IT    C8 2310   0.933   4.213   1.978
   74X2IT    O2 2311   1.051   4.187   1.951
   74X2IT    N3 2312   0.978   4.126   2.197
   74X2IT   H15 2313   0.961   4.095   2.291
   74X2IT   H16 2314   1.071   4.115   2.156
   74X2IT    N2 2315   0.633   4.349   1.834
   74X2IT    C3 2316   0.489   4.331   1.806
   74X2IT    C2 2317   0.491   4.280   1.662
   74X2IT    H2 2318   0.401   4.289   1.601
   74X2IT    N1 2319   0.582   4.165   1.644
   74X2IT   H14 2320   0.555   4.114   1.560
   74X2IT    C1 2321   0.626   4.300   1.604
   74X2IT    H1 2322   0.643   4.325   1.500
   74X2IT   C11 2323   0.712   4.368   1.710
   74X2IT    O3 2324   0.715   4.504   1.669
   74X2IT   C15 2325   0.756   4.601   1.767
   75X2IT   H18 2326   3.882   1.817   4.320
   75X2IT    N4 2327   3.973   1.820   4.361
   75X2IT   H17 2328   3.984   1.874   4.445
   75X2IT   C14 2329   4.053   1.711   4.341
   75X2IT    O5 2330   4.033   1.624   4.257
   75X2IT    O4 2331   4.160   1.715   4.425
   75X2IT   C13 2332   4.256   1.609   4.411
   75X2IT   C10 2333   4.356   1.638   4.297
   75X2IT    C9 2334   4.463   1.532   4.283
   75X2IT    C4 2335   4.589   1.589   4.298
   75X2IT    C5 2336   4.717   1.512   4.290
   75X2IT    O1 2337   4.825   1.571   4.300
   75X2IT    C6 2338   4.705   1.369   4.270
   75X2IT   C12 2339   4.831   1.285   4.262
   75X2IT    C7 2340   4.580   1.313   4.255
   75X2IT    C8 2341   4.450   1.393   4.262
   75X2IT    O2 2342   4.343   1.331   4.251
   75X2IT    N3 2343   4.559   1.182   4.234
   75X2IT   H15 2344   4.633   1.114   4.229
   75X2IT   H16 2345   4.462   1.151   4.226
   75X2IT    N2 2346   4.582   1.724   4.311
   75X2IT    C3 2347   4.671   1.811   4.389
   75X2IT    C2 2348   4.575   1.876   4.488
   75X2IT    H2 2349   4.602   1.969   4.537
   75X2IT    N1 2350   4.493   1.776   4.560
   75X2IT   H14 2351   4.456   1.818   4.646
   75X2IT    C1 2352   4.435   1.849   4.445
   75X2IT    H1 2353   4.354   1.919   4.459
   75X2IT   C11 2354   4.441   1.770   4.315
   75X2IT    O3 2355   4.414   1.867   4.215
   75X2IT   C15 2356   4.449   1.833   4.080
   76X2IT   H18 2357   3.711   3.160   1.933
   76X2IT    N4 2358   3.638   3.125   1.992
   76X2IT   H17 2359   3.619   3.026   1.988
   76X2IT   C14 2360   3.618   3.192   2.110
   76X2IT    O5 2361   3.661   3.303   2.135
   76X2IT    O4 2362   3.540   3.117   2.193
   76X2IT   C13 2363   3.505   3.178   2.319
   76X2IT   C10 2364   3.384   3.272   2.305
   76X2IT    C9 2365   3.340   3.333   2.436
   76X2IT    C4 2366   3.208   3.301   2.462
   76X2IT    C5 2367   3.134   3.344   2.585
   76X2IT    O1 2368   3.014   3.314   2.598
   76X2IT    C6 2369   3.208   3.422   2.681
   76X2IT   C12 2370   3.139   3.469   2.807
   76X2IT    C7 2371   3.340   3.455   2.655
   76X2IT    C8 2372   3.414   3.410   2.529
   76X2IT    O2 2373   3.534   3.442   2.518
   76X2IT    N3 2374   3.416   3.528   2.737
   76X2IT   H15 2375   3.384   3.564   2.825
   76X2IT   H16 2376   3.513   3.545   2.709
   76X2IT    N2 2377   3.152   3.232   2.360
   76X2IT    C3 2378   3.048   3.127   2.367
   76X2IT    C2 2379   3.119   3.007   2.305
   76X2IT    H2 2380   3.060   2.924   2.265
   76X2IT    N1 2381   3.250   2.981   2.367
   76X2IT   H14 2382   3.278   2.884   2.349
   76X2IT    C1 2383   3.243   3.053   2.238
   76X2IT    H1 2384   3.282   3.008   2.148
   76X2IT   C11 2385   3.252   3.204   2.253
   76X2IT    O3 2386   3.210   3.253   2.127
   76X2IT   C15 2387   3.171   3.391   2.120
   77X2IT   H18 2388   2.382   2.555   3.752
   77X2IT    N4 2389   2.353   2.643   3.716
   77X2IT   H17 2390   2.283   2.694   3.769
   77X2IT   C14 2391   2.445   2.713   3.644
   77X2IT    O5 2392   2.548   2.667   3.598
   77X2IT    O4 2393   2.404   2.842   3.628
   77X2IT   C13 2394   2.489   2.927   3.548
   77X2IT   C10 2395   2.461   2.909   3.397
   77X2IT    C9 2396   2.543   3.001   3.310
   77X2IT    C4 2397   2.460   3.080   3.232
   77X2IT    C5 2398   2.510   3.183   3.135
   77X2IT    O1 2399   2.429   3.246   3.066
   77X2IT    C6 2400   2.653   3.200   3.127
   77X2IT   C12 2401   2.710   3.303   3.031
   77X2IT    C7 2402   2.736   3.121   3.204
   77X2IT    C8 2403   2.684   3.016   3.303
   77X2IT    O2 2404   2.767   2.953   3.370
   77X2IT    N3 2405   2.870   3.129   3.203
   77X2IT   H15 2406   2.920   3.194   3.145
   77X2IT   H16 2407   2.921   3.066   3.265
   77X2IT    N2 2408   2.329   3.047   3.248
   77X2IT    C3 2409   2.213   3.137   3.241
   77X2IT    C2 2410   2.152   3.121   3.380
   77X2IT    H2 2411   2.048   3.147   3.397
   77X2IT    N1 2412   2.251   3.142   3.488
   77X2IT   H14 2413   2.203   3.165   3.575
   77X2IT    C1 2414   2.215   3.005   3.448
   77X2IT    H1 2415   2.161   2.940   3.517
   77X2IT   C11 2416   2.314   2.942   3.352
   77X2IT    O3 2417   2.245   2.828   3.302
   77X2IT   C15 2418   2.295   2.770   3.181
   78X2IT   H18 2419   4.699   0.661   3.896
   78X2IT    N4 2420   4.680   0.614   3.983
   78X2IT   H17 2421   4.622   0.663   4.049
   78X2IT   C14 2422   4.679   0.478   3.979
   78X2IT    O5 2423   4.723   0.409   3.889
   78X2IT    O4 2424   4.623   0.429   4.094
   78X2IT   C13 2425   4.620   0.285   4.107
   78X2IT   C10 2426   4.754   0.231   4.160
   78X2IT    C9 2427   4.754   0.082   4.182
   78X2IT    C4 2428   4.784   0.053   4.314
   78X2IT    C5 2429   4.790  -0.087   4.369
   78X2IT    O1 2430   4.822  -0.104   4.488
   78X2IT    C6 2431   4.760  -0.194   4.278
   78X2IT   C12 2432   4.764  -0.337   4.328
   78X2IT    C7 2433   4.731  -0.165   4.146
   78X2IT    C8 2434   4.725  -0.023   4.091
   78X2IT    O2 2435   4.693  -0.008   3.971
   78X2IT    N3 2436   4.703  -0.258   4.054
   78X2IT   H15 2437   4.700  -0.357   4.074
   78X2IT   H16 2438   4.681  -0.225   3.959
   78X2IT    N2 2439   4.814   0.164   4.385
   78X2IT    C3 2440   4.788   0.190   4.527
   78X2IT    C2 2441   4.700   0.314   4.522
   78X2IT    H2 2442   4.690   0.378   4.609
   78X2IT    N1 2443   4.584   0.296   4.431
   78X2IT   H14 2444   4.511   0.364   4.455
   78X2IT    C1 2445   4.703   0.371   4.384
   78X2IT    H1 2446   4.697   0.477   4.364
   78X2IT   C11 2447   4.798   0.286   4.301
   78X2IT    O3 2448   4.917   0.363   4.296
   78X2IT   C15 2449   5.037   0.295   4.259
   79X2IT   H18 2450   1.601   4.020   1.240
   79X2IT    N4 2451   1.631   3.927   1.219
   79X2IT   H17 2452   1.563   3.853   1.229
   79X2IT   C14 2453   1.729   3.914   1.125
   79X2IT    O5 2454   1.801   4.004   1.085
   79X2IT    O4 2455   1.738   3.783   1.085
   79X2IT   C13 2456   1.842   3.753   0.990
   79X2IT   C10 2457   1.978   3.731   1.060
   79X2IT    C9 2458   2.088   3.692   0.964
   79X2IT    C4 2459   2.142   3.570   1.001
   79X2IT    C5 2460   2.254   3.502   0.927
   79X2IT    O1 2461   2.299   3.395   0.969
   79X2IT    C6 2462   2.303   3.569   0.809
   79X2IT   C12 2463   2.415   3.506   0.729
   79X2IT    C7 2464   2.249   3.692   0.773
   79X2IT    C8 2465   2.136   3.760   0.850
   79X2IT    O2 2466   2.093   3.868   0.806
   79X2IT    N3 2467   2.290   3.762   0.666
   79X2IT   H15 2468   2.362   3.731   0.603
   79X2IT   H16 2469   2.242   3.851   0.648
   79X2IT    N2 2470   2.089   3.523   1.116
   79X2IT    C3 2471   2.065   3.383   1.155
   79X2IT    C2 2472   1.914   3.380   1.176
   79X2IT    H2 2473   1.870   3.301   1.236
   79X2IT    N1 2474   1.841   3.435   1.059
   79X2IT   H14 2475   1.744   3.400   1.061
   79X2IT    C1 2476   1.862   3.519   1.179
   79X2IT    H1 2477   1.779   3.550   1.241
   79X2IT   C11 2478   1.981   3.614   1.165
   79X2IT    O3 2479   2.005   3.659   1.297
   79X2IT   C15 2480   2.132   3.718   1.324
   80X2IT   H18 2481   1.410   1.295   2.242
   80X2IT    N4 2482   1.476   1.288   2.167
   80X2IT   H17 2483   1.505   1.195   2.138
   80X2IT   C14 2484   1.470   1.387   2.073
   80X2IT    O5 2485   1.414   1.495   2.087
   80X2IT    O4 2486   1.541   1.351   1.962
   80X2IT   C13 2487   1.549   1.449   1.857
   80X2IT   C10 2488   1.662   1.551   1.883
   80X2IT    C9 2489   1.678   1.652   1.772
   80X2IT    C4 2490   1.807   1.646   1.722
   80X2IT    C5 2491   1.857   1.733   1.609
   80X2IT    O1 2492   1.975   1.724   1.573
   80X2IT    C6 2493   1.761   1.823   1.551
   80X2IT   C12 2494   1.804   1.913   1.437
   80X2IT    C7 2495   1.633   1.829   1.602
   80X2IT    C8 2496   1.584   1.741   1.717
   80X2IT    O2 2497   1.465   1.752   1.751
   80X2IT    N3 2498   1.538   1.912   1.555
   80X2IT   H15 2499   1.552   1.975   1.478
   80X2IT   H16 2500   1.445   1.907   1.599
   80X2IT    N2 2501   1.885   1.559   1.791
   80X2IT    C3 2502   1.995   1.477   1.739
   80X2IT    C2 2503   1.947   1.336   1.771
   80X2IT    H2 2504   2.019   1.254   1.776
   80X2IT    N1 2505   1.811   1.310   1.721
   80X2IT   H14 2506   1.796   1.209   1.712
   80X2IT    C1 2507   1.831   1.343   1.863
   80X2IT    H1 2508   1.812   1.269   1.940
   80X2IT   C11 2509   1.806   1.489   1.896
   80X2IT    O3 2510   1.862   1.506   2.024
   80X2IT   C15 2511   1.890   1.640   2.067
   81X2IT   H18 2512   1.675   3.317   0.038
   81X2IT    N4 2513   1.646   3.254   0.110
   81X2IT   H17 2514   1.614   3.163   0.082
   81X2IT   C14 2515   1.708   3.268   0.231
   81X2IT    O5 2516   1.773   3.365   0.266
   81X2IT    O4 2517   1.683   3.159   0.309
   81X2IT   C13 2518   1.737   3.163   0.443
   81X2IT   C10 2519   1.645   3.241   0.539
   81X2IT    C9 2520   1.695   3.241   0.681
   81X2IT    C4 2521   1.599   3.187   0.765
   81X2IT    C5 2522   1.617   3.172   0.914
   81X2IT    O1 2523   1.524   3.126   0.982
   81X2IT    C6 2524   1.744   3.214   0.968
   81X2IT   C12 2525   1.769   3.201   1.117
   81X2IT    C7 2526   1.839   3.269   0.884
   81X2IT    C8 2527   1.819   3.285   0.733
   81X2IT    O2 2528   1.913   3.332   0.667
   81X2IT    N3 2529   1.959   3.313   0.926
   81X2IT   H15 2530   1.989   3.308   1.022
   81X2IT   H16 2531   2.022   3.350   0.855
   81X2IT    N2 2532   1.485   3.157   0.699
   81X2IT    C3 2533   1.391   3.047   0.727
   81X2IT    C2 2534   1.394   2.969   0.596
   81X2IT    H2 2535   1.312   2.901   0.571
   81X2IT    N1 2536   1.532   2.935   0.553
   81X2IT   H14 2537   1.529   2.856   0.488
   81X2IT    C1 2538   1.462   3.050   0.492
   81X2IT    H1 2539   1.434   3.048   0.387
   81X2IT   C11 2540   1.499   3.184   0.553
   81X2IT    O3 2541   1.400   3.273   0.506
   81X2IT   C15 2542   1.384   3.397   0.576
   82X2IT   H18 2543   3.781  -0.279   1.640
   82X2IT    N4 2544   3.744  -0.198   1.595
   82X2IT   H17 2545   3.799  -0.157   1.521
   82X2IT   C14 2546   3.608  -0.188   1.589
   82X2IT    O5 2547   3.530  -0.253   1.657
   82X2IT    O4 2548   3.571  -0.091   1.500
   82X2IT   C13 2549   3.430  -0.065   1.489
   82X2IT   C10 2550   3.381   0.031   1.599
   82X2IT    C9 2551   3.235   0.066   1.586
   82X2IT    C4 2552   3.219   0.203   1.574
   82X2IT    C5 2553   3.086   0.271   1.559
   82X2IT    O1 2554   3.082   0.395   1.553
   82X2IT    C6 2555   2.970   0.186   1.554
   82X2IT   C12 2556   2.833   0.248   1.538
   82X2IT    C7 2557   2.985   0.049   1.567
   82X2IT    C8 2558   3.121  -0.019   1.583
   82X2IT    O2 2559   3.124  -0.143   1.589
   82X2IT    N3 2560   2.883  -0.038   1.565
   82X2IT   H15 2561   2.788  -0.010   1.553
   82X2IT   H16 2562   2.907  -0.137   1.573
   82X2IT    N2 2563   3.337   0.269   1.586
   82X2IT    C3 2564   3.379   0.393   1.519
   82X2IT    C2 2565   3.501   0.349   1.441
   82X2IT    H2 2566   3.574   0.423   1.408
   82X2IT    N1 2567   3.475   0.230   1.358
   82X2IT   H14 2568   3.544   0.224   1.283
   82X2IT    C1 2569   3.543   0.214   1.487
   82X2IT    H1 2570   3.647   0.182   1.492
   82X2IT   C11 2571   3.450   0.172   1.600
   82X2IT    O3 2572   3.526   0.196   1.718
   82X2IT   C15 2573   3.454   0.203   1.841
   83X2IT   H18 2574   4.039   1.479   2.142
   83X2IT    N4 2575   4.036   1.391   2.192
   83X2IT   H17 2576   4.120   1.364   2.242
   83X2IT   C14 2577   3.914   1.353   2.240
   83X2IT    O5 2578   3.807   1.399   2.204
   83X2IT    O4 2579   3.929   1.252   2.330
   83X2IT   C13 2580   3.808   1.196   2.384
   83X2IT   C10 2581   3.747   1.090   2.290
   83X2IT    C9 2582   3.623   1.024   2.346
   83X2IT    C4 2583   3.642   0.888   2.354
   83X2IT    C5 2584   3.538   0.792   2.406
   83X2IT    O1 2585   3.561   0.671   2.406
   83X2IT    C6 2586   3.415   0.851   2.453
   83X2IT   C12 2587   3.306   0.760   2.507
   83X2IT    C7 2588   3.396   0.987   2.444
   83X2IT    C8 2589   3.502   1.083   2.390
   83X2IT    O2 2590   3.477   1.205   2.390
   83X2IT    N3 2591   3.284   1.050   2.483
   83X2IT   H15 2592   3.205   1.003   2.523
   83X2IT   H16 2593   3.282   1.152   2.473
   83X2IT    N2 2594   3.761   0.849   2.301
   83X2IT    C3 2595   3.846   0.737   2.344
   83X2IT    C2 2596   3.975   0.808   2.382
   83X2IT    H2 2597   4.069   0.751   2.387
   83X2IT    N1 2598   3.953   0.919   2.477
   83X2IT   H14 2599   4.040   0.941   2.526
   83X2IT    C1 2600   3.971   0.948   2.333
   83X2IT    H1 2601   4.059   1.001   2.298
   83X2IT   C11 2602   3.840   0.967   2.258
   83X2IT    O3 2603   3.877   0.959   2.122
   83X2IT   C15 2604   3.773   0.935   2.027
   84SOL     OW 2605   0.230   0.628   0.113
   84SOL    HW1 2606   0.137   0.626   0.150
   84SOL    HW2 2607   0.231   0.589   0.021
   85SOL     OW 2608   0.225   0.275   0.996
   85SOL    HW1 2609   0.260   0.258   1.088
   85SOL    HW2 2610   0.137   0.230   0.984
   86SOL     OW 2611   0.019   0.368   0.647
   86SOL    HW1 2612  -0.063   0.411   0.686
   86SOL    HW2 2613  -0.009   0.295   0.584
   87SOL     OW 2614   0.569   1.275   1.165
   87SOL    HW1 2615   0.476   1.268   1.128
   87SOL    HW2 2616   0.580   1.364   1.209
   88SOL     OW 2617   1.555   1.511   0.703
   88SOL    HW1 2618   1.498   1.495   0.784
   88SOL    HW2 2619   1.496   1.521   0.623
   89SOL     OW 2620   1.135   0.703   0.717
   89SOL    HW1 2621   1.192   0.781   0.692
   89SOL    HW2 2622   1.075   0.729   0.793
   90SOL     OW 2623   0.850   0.798   1.823
   90SOL    HW1 2624   0.846   0.874   1.888
   90SOL    HW2 2625   0.872   0.834   1.732
   91SOL     OW 2626   0.686   1.161   1.803
   91SOL    HW1 2627   0.746   1.240   1.817
   91SOL    HW2 2628   0.600   1.192   1.762
   92SOL     OW 2629   0.335   1.435   1.061
   92SOL    HW1 2630   0.257   1.404   1.008
   92SOL    HW2 2631   0.393   1.493   1.004
   93SOL     OW 2632   1.460   1.505   1.339
   93SOL    HW1 2633   1.484   1.599   1.365
   93SOL    HW2 2634   1.444   1.451   1.421
   94SOL     OW 2635   0.438   0.392   1.499
   94SOL    HW1 2636   0.520   0.336   1.508
   94SOL    HW2 2637   0.357   0.334   1.503
   95SOL     OW 2638   1.603   0.447   0.737
   95SOL    HW1 2639   1.529   0.493   0.687
   95SOL    HW2 2640   1.654   0.515   0.790
   96SOL     OW 2641   1.127   1.341   1.690
   96SOL    HW1 2642   1.174   1.341   1.778
   96SOL    HW2 2643   1.079   1.254   1.679
   97SOL     OW 2644   0.620   1.786   1.439
   97SOL    HW1 2645   0.528   1.769   1.474
   97SOL    HW2 2646   0.648   1.878   1.465
   98SOL     OW 2647   0.606   0.964   0.123
   98SOL    HW1 2648   0.613   1.048   0.069
   98SOL    HW2 2649   0.652   0.977   0.211
   99SOL     OW 2650   1.594   0.114   1.480
   99SOL    HW1 2651   1.576   0.181   1.408
   99SOL    HW2 2652   1.591   0.160   1.569
  100SOL     OW 2653   0.122   0.643   0.563
  100SOL    HW1 2654   0.077   0.555   0.580
  100SOL    HW2 2655   0.121   0.697   0.647
  101SOL     OW 2656   1.842   1.767   0.359
  101SOL    HW1 2657   1.896   1.738   0.439
  101SOL    HW2 2658   1.872   1.857   0.330
  102SOL     OW 2659   0.027   1.596   0.117
  102SOL    HW1 2660   0.008   1.500   0.138
  102SOL    HW2 2661  -0.006   1.654   0.192
  103SOL     OW 2662   1.689   0.922   0.612
  103SOL    HW1 2663   1.784   0.893   0.620
  103SOL    HW2 2664   1.681   0.987   0.537
  104SOL     OW 2665   1.641   1.108   0.432
  104SOL    HW1 2666   1.727   1.110   0.380
  104SOL    HW2 2667   1.655   1.155   0.520
  105SOL     OW 2668   0.113   0.737   1.597
  105SOL    HW1 2669   0.201   0.724   1.642
  105SOL    HW2 2670   0.100   0.834   1.575
  106SOL     OW 2671   1.293   1.228   1.423
  106SOL    HW1 2672   1.330   1.155   1.365
  106SOL    HW2 2673   1.345   1.233   1.508
  107SOL     OW 2674   0.197   0.976   1.264
  107SOL    HW1 2675   0.286   0.931   1.250
  107SOL    HW2 2676   0.124   0.911   1.245
  108SOL     OW 2677   1.525   0.999   0.190
  108SOL    HW1 2678   1.462   0.923   0.203
  108SOL    HW2 2679   1.573   1.017   0.276
  109SOL     OW 2680   1.187   1.792   1.616
  109SOL    HW1 2681   1.211   1.852   1.540
  109SOL    HW2 2682   1.194   1.697   1.586
  110SOL     OW 2683   0.317   0.251   1.801
  110SOL    HW1 2684   0.388   0.322   1.807
  110SOL    HW2 2685   0.229   0.290   1.829
  111SOL     OW 2686   1.466   1.417   0.953
  111SOL    HW1 2687   1.407   1.423   1.033
  111SOL    HW2 2688   1.451   1.329   0.907
  112SOL     OW 2689   1.667   1.714   0.572
  112SOL    HW1 2690   1.626   1.691   0.484
  112SOL    HW2 2691   1.649   1.640   0.637
  113SOL     OW 2692   0.598   0.729   0.270
  113SOL    HW1 2693   0.622   0.798   0.202
  113SOL    HW2 2694   0.520   0.762   0.324
  114SOL     OW 2695   1.281   0.345   0.944
  114SOL    HW1 2696   1.195   0.295   0.931
  114SOL    HW2 2697   1.343   0.291   1.000
  115SOL     OW 2698   1.576   1.662   0.307
  115SOL    HW1 2699   1.665   1.708   0.310
  115SOL    HW2 2700   1.555   1.638   0.212
  116SOL     OW 2701   0.807   0.605   1.465
  116SOL    HW1 2702   0.760   0.602   1.554
  116SOL    HW2 2703   0.756   0.550   1.399
  117SOL     OW 2704   1.394   0.469   1.674
  117SOL    HW1 2705   1.374   0.512   1.762
  117SOL    HW2 2706   1.472   0.407   1.683
  118SOL     OW 2707   1.719   0.585   1.831
  118SOL    HW1 2708   1.693   0.674   1.795
  118SOL    HW2 2709   1.717   0.517   1.758
  119SOL     OW 2710   1.362   1.144   0.545
  119SOL    HW1 2711   1.445   1.115   0.497
  119SOL    HW2 2712   1.313   1.211   0.489
  120SOL     OW 2713   0.550   0.196   0.885
  120SOL    HW1 2714   0.545   0.191   0.985
  120SOL    HW2 2715   0.552   0.292   0.856
  121SOL     OW 2716   1.008   1.456   0.477
  121SOL    HW1 2717   0.962   1.528   0.425
  121SOL    HW2 2718   1.004   1.476   0.575
  122SOL     OW 2719   0.351   1.801   0.853
  122SOL    HW1 2720   0.401   1.715   0.859
  122SOL    HW2 2721   0.416   1.878   0.850
  123SOL     OW 2722   1.795   1.066   0.873
  123SOL    HW1 2723   1.733   1.051   0.797
  123SOL    HW2 2724   1.743   1.077   0.958
  124SOL     OW 2725   1.227   1.550   1.506
  124SOL    HW1 2726   1.233   1.473   1.570
  124SOL    HW2 2727   1.175   1.524   1.426
  125SOL     OW 2728   0.321   0.943   0.242
  125SOL    HW1 2729   0.403   0.982   0.200
  125SOL    HW2 2730   0.294   0.861   0.193
  126SOL     OW 2731   1.458   0.735   0.728
  126SOL    HW1 2732   1.453   0.670   0.803
  126SOL    HW2 2733   1.538   0.794   0.741
  127SOL     OW 2734   0.461   1.266   1.727
  127SOL    HW1 2735   0.411   1.267   1.641
  127SOL    HW2 2736   0.398   1.248   1.803
  128SOL     OW 2737   1.111   1.776   0.237
  128SOL    HW1 2738   1.051   1.714   0.287
  128SOL    HW2 2739   1.142   1.732   0.152
  129SOL     OW 2740   0.202   0.285   1.498
  129SOL    HW1 2741   0.122   0.345   1.485
  129SOL    HW2 2742   0.192   0.236   1.584
  130SOL     OW 2743   1.632   1.377   0.081
  130SOL    HW1 2744   1.600   1.471   0.071
  130SOL    HW2 2745   1.556   1.314   0.069
  131SOL     OW 2746   0.464   1.743   0.323
  131SOL    HW1 2747   0.497   1.782   0.409
  131SOL    HW2 2748   0.540   1.736   0.258
  132SOL     OW 2749   1.400   0.107   0.426
  132SOL    HW1 2750   1.376   0.070   0.336
  132SOL    HW2 2751   1.499   0.123   0.430
  133SOL     OW 2752   0.382   0.700   0.480
  133SOL    HW1 2753   0.427   0.610   0.477
  133SOL    HW2 2754   0.288   0.689   0.513
  134SOL     OW 2755   1.547   0.222   1.729
  134SOL    HW1 2756   1.542   0.259   1.821
  134SOL    HW2 2757   1.475   0.153   1.717
  135SOL     OW 2758   0.781   0.264   1.749
  135SOL    HW1 2759   0.848   0.203   1.792
  135SOL    HW2 2760   0.708   0.283   1.814
  136SOL     OW 2761   0.888   1.514   1.195
  136SOL    HW1 2762   0.865   1.489   1.101
  136SOL    HW2 2763   0.949   1.445   1.234
  137SOL     OW 2764   0.922   0.503   0.899
  137SOL    HW1 2765   0.897   0.494   0.803
  137SOL    HW2 2766   0.970   0.421   0.930
  138SOL     OW 2767   1.434   1.188   0.041
  138SOL    HW1 2768   1.466   1.112   0.098
  138SOL    HW2 2769   1.342   1.215   0.071
  139SOL     OW 2770   1.076   0.683   1.464
  139SOL    HW1 2771   0.996   0.622   1.467
  139SOL    HW2 2772   1.157   0.630   1.440
  140SOL     OW 2773   1.227   1.570   0.793
  140SOL    HW1 2774   1.248   1.644   0.728
  140SOL    HW2 2775   1.295   1.570   0.866
  141SOL     OW 2776   1.271   1.797   0.591
  141SOL    HW1 2777   1.315   1.861   0.527
  141SOL    HW2 2778   1.221   1.849   0.661
  142SOL     OW 2779   0.078   0.556   1.386
  142SOL    HW1 2780   0.170   0.555   1.345
  142SOL    HW2 2781   0.072   0.630   1.453
  143SOL     OW 2782   0.561   0.222   1.147
  143SOL    HW1 2783   0.599   0.138   1.184
  143SOL    HW2 2784   0.473   0.241   1.191
  144SOL     OW 2785   0.866   0.454   0.642
  144SOL    HW1 2786   0.834   0.526   0.580
  144SOL    HW2 2787   0.890   0.373   0.589
  145SOL     OW 2788   1.017   0.039   0.753
  145SOL    HW1 2789   0.945   0.044   0.684
  145SOL    HW2 2790   0.993  -0.030   0.822
  146SOL     OW 2791   1.429   1.173   0.867
  146SOL    HW1 2792   1.374   1.089   0.860
  146SOL    HW2 2793   1.455   1.202   0.775
  147SOL     OW 2794   1.466   0.590   0.992
  147SOL    HW1 2795   1.436   0.495   0.999
  147SOL    HW2 2796   1.539   0.606   1.058
  148SOL     OW 2797   1.857   0.833   0.377
  148SOL    HW1 2798   1.899   0.769   0.441
  148SOL    HW2 2799   1.819   0.782   0.299
  149SOL     OW 2800   0.488   1.385   0.174
  149SOL    HW1 2801   0.401   1.370   0.221
  149SOL    HW2 2802   0.471   1.411   0.079
  150SOL     OW 2803   1.664   1.280   0.657
  150SOL    HW1 2804   1.763   1.288   0.671
  150SOL    HW2 2805   1.619   1.364   0.688
  151SOL     OW 2806   0.527   0.256   0.328
  151SOL    HW1 2807   0.554   0.197   0.253
  151SOL    HW2 2808   0.527   0.351   0.297
  152SOL     OW 2809   1.064   1.347   1.340
  152SOL    HW1 2810   0.984   1.324   1.395
  152SOL    HW2 2811   1.147   1.321   1.389
  153SOL     OW 2812   1.638   1.099   1.079
  153SOL    HW1 2813   1.643   1.180   1.138
  153SOL    HW2 2814   1.552   1.101   1.028
  154SOL     OW 2815   0.915   0.089   1.402
  154SOL    HW1 2816   0.940   0.069   1.307
  154SOL    HW2 2817   0.987   0.145   1.444
  155SOL     OW 2818   0.980   1.116   1.719
  155SOL    HW1 2819   0.881   1.122   1.729
  155SOL    HW2 2820   1.003   1.036   1.663
  156SOL     OW 2821   0.410   0.813   1.251
  156SOL    HW1 2822   0.496   0.825   1.301
  156SOL    HW2 2823   0.368   0.726   1.278
  157SOL     OW 2824   0.367   1.100   0.501
  157SOL    HW1 2825   0.360   1.183   0.445
  157SOL    HW2 2826   0.371   1.020   0.441
  158SOL     OW 2827   0.566   0.537   0.865
  158SOL    HW1 2828   0.578   0.603   0.791
  158SOL    HW2 2829   0.612   0.571   0.948
  159SOL     OW 2830   1.252   1.348   0.388
  159SOL    HW1 2831   1.302   1.425   0.428
  159SOL    HW2 2832   1.157   1.350   0.420
  160SOL     OW 2833   1.272   1.445   1.142
  160SOL    HW1 2834   1.319   1.458   1.229
  160SOL    HW2 2835   1.206   1.371   1.151
  161SOL     OW 2836   0.354   1.510   1.329
  161SOL    HW1 2837   0.333   1.466   1.242
  161SOL    HW2 2838   0.451   1.536   1.332
  162SOL     OW 2839   0.402   0.751   1.598
  162SOL    HW1 2840   0.470   0.806   1.551
  162SOL    HW2 2841   0.442   0.663   1.625
  163SOL     OW 2842   1.587   0.779   1.670
  163SOL    HW1 2843   1.495   0.817   1.665
  163SOL    HW2 2844   1.647   0.826   1.605
  164SOL     OW 2845   1.013   0.105   1.770
  164SOL    HW1 2846   1.019   0.190   1.718
  164SOL    HW2 2847   1.045   0.029   1.713
  165SOL     OW 2848   0.504   0.050   1.740
  165SOL    HW1 2849   0.462  -0.007   1.670
  165SOL    HW2 2850   0.438   0.119   1.772
  166SOL     OW 2851   0.573   0.870   1.029
  166SOL    HW1 2852   0.617   0.959   1.020
  166SOL    HW2 2853   0.510   0.870   1.106
  167SOL     OW 2854   1.360   0.862   1.045
  167SOL    HW1 2855   1.285   0.862   0.979
  167SOL    HW2 2856   1.397   0.770   1.054
  168SOL     OW 2857   0.307   0.213   1.231
  168SOL    HW1 2858   0.284   0.250   1.321
  168SOL    HW2 2859   0.277   0.118   1.225
  169SOL     OW 2860   0.037   1.310   1.282
  169SOL    HW1 2861   0.090   1.261   1.350
  169SOL    HW2 2862   0.059   1.408   1.287
  170SOL     OW 2863   1.728   0.935   1.854
  170SOL    HW1 2864   1.682   0.928   1.765
  170SOL    HW2 2865   1.666   0.979   1.920
  171SOL     OW 2866   0.307   0.063   0.618
  171SOL    HW1 2867   0.296   0.157   0.651
  171SOL    HW2 2868   0.302   0.000   0.695
  172SOL     OW 2869   0.980   1.573   1.700
  172SOL    HW1 2870   0.960   1.617   1.612
  172SOL    HW2 2871   1.019   1.482   1.684
  173SOL     OW 2872   0.350   0.898   1.804
  173SOL    HW1 2873   0.426   0.942   1.852
  173SOL    HW2 2874   0.385   0.851   1.722
  174SOL     OW 2875   0.319   0.810   0.949
  174SOL    HW1 2876   0.412   0.846   0.954
  174SOL    HW2 2877   0.313   0.725   1.001
  175SOL     OW 2878   0.339   0.509   1.006
  175SOL    HW1 2879   0.287   0.426   0.989
  175SOL    HW2 2880   0.416   0.514   0.942
  176SOL     OW 2881   1.138   0.380   1.678
  176SOL    HW1 2882   1.093   0.443   1.742
  176SOL    HW2 2883   1.231   0.411   1.661
  177SOL     OW 2884   1.160   0.207   1.477
  177SOL    HW1 2885   1.160   0.271   1.554
  177SOL    HW2 2886   1.188   0.255   1.394
  178SOL     OW 2887   0.008   1.326   0.200
  178SOL    HW1 2888  -0.085   1.347   0.169
  178SOL    HW2 2889   0.018   1.227   0.213
  179SOL     OW 2890   0.040   0.544   1.114
  179SOL    HW1 2891   0.125   0.511   1.073
  179SOL    HW2 2892   0.053   0.559   1.212
  180SOL     OW 2893   0.189   0.520   1.722
  180SOL    HW1 2894   0.248   0.480   1.652
  180SOL    HW2 2895   0.131   0.591   1.681
  181SOL     OW 2896   0.815   0.572   0.325
  181SOL    HW1 2897   0.822   0.483   0.279
  181SOL    HW2 2898   0.721   0.606   0.317
  182SOL     OW 2899   1.657   0.604   1.206
  182SOL    HW1 2900   1.619   0.535   1.268
  182SOL    HW2 2901   1.739   0.568   1.162
  183SOL     OW 2902   0.671   0.464   1.269
  183SOL    HW1 2903   0.637   0.375   1.239
  183SOL    HW2 2904   0.697   0.518   1.189
  184SOL     OW 2905   0.930   1.678   1.465
  184SOL    HW1 2906   0.906   1.660   1.370
  184SOL    HW2 2907   0.960   1.772   1.475
  185SOL     OW 2908   0.473   0.500   0.191
  185SOL    HW1 2909   0.534   0.580   0.195
  185SOL    HW2 2910   0.378   0.531   0.198
  186SOL     OW 2911   0.159   1.137   1.466
  186SOL    HW1 2912   0.181   1.076   1.542
  186SOL    HW2 2913   0.169   1.088   1.380
  187SOL     OW 2914   1.302   0.855   0.309
  187SOL    HW1 2915   1.216   0.824   0.351
  187SOL    HW2 2916   1.298   0.841   0.210
  188SOL     OW 2917   1.759   1.747   1.154
  188SOL    HW1 2918   1.820   1.777   1.081
  188SOL    HW2 2919   1.721   1.658   1.132
  189SOL     OW 2920   1.252   1.731   1.128
  189SOL    HW1 2921   1.336   1.736   1.074
  189SOL    HW2 2922   1.229   1.635   1.146
  190SOL     OW 2923   0.083   1.258   1.022
  190SOL    HW1 2924   0.078   1.257   1.122
  190SOL    HW2 2925   0.000   1.217   0.984
  191SOL     OW 2926   0.688   1.662   1.716
  191SOL    HW1 2927   0.632   1.743   1.725
  191SOL    HW2 2928   0.740   1.666   1.630
  192SOL     OW 2929   1.726   0.135   0.523
  192SOL    HW1 2930   1.799   0.118   0.456
  192SOL    HW2 2931   1.695   0.048   0.561
  193SOL     OW 2932   1.388   1.573   0.477
  193SOL    HW1 2933   1.455   1.585   0.403
  193SOL    HW2 2934   1.348   1.662   0.500
  194SOL     OW 2935   1.280   0.927   0.672
  194SOL    HW1 2936   1.340   0.846   0.674
  194SOL    HW2 2937   1.320   0.996   0.612
  195SOL     OW 2938   0.830   1.273   1.422
  195SOL    HW1 2939   0.825   1.306   1.517
  195SOL    HW2 2940   0.744   1.292   1.376
  196SOL     OW 2941   0.672   1.616   0.154
  196SOL    HW1 2942   0.681   1.626   0.055
  196SOL    HW2 2943   0.632   1.527   0.175
  197SOL     OW 2944   1.650   1.720   1.394
  197SOL    HW1 2945   1.703   1.730   1.310
  197SOL    HW2 2946   1.623   1.810   1.428
  198SOL     OW 2947   1.841   0.175   0.963
  198SOL    HW1 2948   1.880   0.090   0.927
  198SOL    HW2 2949   1.743   0.177   0.944
  199SOL     OW 2950   0.263   0.326   0.720
  199SOL    HW1 2951   0.184   0.377   0.686
  199SOL    HW2 2952   0.254   0.311   0.818
  200SOL     OW 2953   1.194   1.612   0.031
  200SOL    HW1 2954   1.200   1.519   0.068
  200SOL    HW2 2955   1.135   1.612  -0.049
  201SOL     OW 2956   1.504   1.607   0.044
  201SOL    HW1 2957   1.412   1.644   0.051
  201SOL    HW2 2958   1.542   1.627  -0.046
  202SOL     OW 2959   0.372   1.288   1.490
  202SOL    HW1 2960   0.359   1.381   1.456
  202SOL    HW2 2961   0.288   1.236   1.477
  203SOL     OW 2962   1.614   1.292   1.289
  203SOL    HW1 2963   1.674   1.295   1.369
  203SOL    HW2 2964   1.539   1.356   1.302
  204SOL     OW 2965   1.014   0.236   0.971
  204SOL    HW1 2966   1.006   0.200   0.878
  204SOL    HW2 2967   1.012   0.160   1.036
  205SOL     OW 2968   0.590   1.487   0.491
  205SOL    HW1 2969   0.632   1.429   0.421
  205SOL    HW2 2970   0.546   1.566   0.447
  206SOL     OW 2971   1.709   0.385   1.381
  206SOL    HW1 2972   1.782   0.454   1.385
  206SOL    HW2 2973   1.737   0.310   1.322
  207SOL     OW 2974   0.255   1.348   0.290
  207SOL    HW1 2975   0.159   1.349   0.263
  207SOL    HW2 2976   0.267   1.401   0.374
  208SOL     OW 2977   0.672   0.203   1.489
  208SOL    HW1 2978   0.762   0.187   1.449
  208SOL    HW2 2979   0.680   0.208   1.588
  209SOL     OW 2980   0.075   0.345   0.033
  209SOL    HW1 2981  -0.017   0.317   0.004
  209SOL    HW2 2982   0.106   0.422  -0.023
  210SOL     OW 2983   0.072   0.166   0.318
  210SOL    HW1 2984   0.055   0.249   0.264
  210SOL    HW2 2985   0.162   0.129   0.296
  211SOL     OW 2986   1.183   1.335   0.119
  211SOL    HW1 2987   1.084   1.324   0.121
  211SOL    HW2 2988   1.217   1.350   0.212
  212SOL     OW 2989   0.613   0.842   1.431
  212SOL    HW1 2990   0.669   0.923   1.414
  212SOL    HW2 2991   0.672   0.762   1.434
  213SOL     OW 2992   1.493   1.767   0.959
  213SOL    HW1 2993   1.526   1.831   0.890
  213SOL    HW2 2994   1.559   1.761   1.034
  214SOL     OW 2995   0.716   0.565   1.708
  214SOL    HW1 2996   0.735   0.630   1.782
  214SOL    HW2 2997   0.776   0.485   1.717
  215SOL     OW 2998   1.450   1.220   1.633
  215SOL    HW1 2999   1.441   1.210   1.732
  215SOL    HW2 3000   1.546   1.213   1.607
  216SOL     OW 3001   1.674   0.883   1.254
  216SOL    HW1 3002   1.647   0.794   1.217
  216SOL    HW2 3003   1.675   0.951   1.181
  217SOL     OW 3004   1.225   0.325   0.449
  217SOL    HW1 3005   1.290   0.251   0.438
  217SOL    HW2 3006   1.245   0.375   0.533
  218SOL     OW 3007   1.777   0.342   1.642
  218SOL    HW1 3008   1.760   0.373   1.548
  218SOL    HW2 3009   1.693   0.305   1.680
  219SOL     OW 3010   1.730   0.934   1.517
  219SOL    HW1 3011   1.768   1.025   1.532
  219SOL    HW2 3012   1.722   0.917   1.418
  220SOL     OW 3013   0.859   1.374   0.016
  220SOL    HW1 3014   0.813   1.389   0.104
  220SOL    HW2 3015   0.903   1.459  -0.014
  221SOL     OW 3016   0.859   0.956   0.861
  221SOL    HW1 3017   0.913   0.887   0.909
  221SOL    HW2 3018   0.827   1.025   0.927
  222SOL     OW 3019   1.083   0.984   0.087
  222SOL    HW1 3020   1.060   1.037   0.005
  222SOL    HW2 3021   1.164   0.928   0.068
  223SOL     OW 3022   1.861   1.569   0.851
  223SOL    HW1 3023   1.790   1.557   0.781
  223SOL    HW2 3024   1.862   1.490   0.911
  224SOL     OW 3025   0.221   1.314   1.844
  224SOL    HW1 3026   0.156   1.241   1.823
  224SOL    HW2 3027   0.225   1.328   1.942
  225SOL     OW 3028   0.672   1.391   1.624
  225SOL    HW1 3029   0.594   1.341   1.662
  225SOL    HW2 3030   0.669   1.486   1.655
  226SOL     OW 3031   1.824   0.192   1.227
  226SOL    HW1 3032   1.820   0.102   1.271
  226SOL    HW2 3033   1.827   0.181   1.128
  227SOL     OW 3034   0.428   0.424   0.520
  227SOL    HW1 3035   0.458   0.352   0.458
  227SOL    HW2 3036   0.389   0.384   0.603
  228SOL     OW 3037   1.705   1.487   1.104
  228SOL    HW1 3038   1.612   1.462   1.077
  228SOL    HW2 3039   1.731   1.437   1.186
  229SOL     OW 3040   0.317   0.547   1.280
  229SOL    HW1 3041   0.355   0.488   1.352
  229SOL    HW2 3042   0.357   0.521   1.192
  230SOL     OW 3043   1.424   0.214   1.112
  230SOL    HW1 3044   1.476   0.149   1.167
  230SOL    HW2 3045   1.375   0.277   1.173
  231SOL     OW 3046   1.001   0.034   1.154
  231SOL    HW1 3047   0.938  -0.038   1.123
  231SOL    HW2 3048   1.094  -0.002   1.154
  232SOL     OW 3049   0.770   1.330   0.301
  232SOL    HW1 3050   0.724   1.243   0.318
  232SOL    HW2 3051   0.861   1.327   0.342
  233SOL     OW 3052   0.618   1.567   1.284
  233SOL    HW1 3053   0.613   1.649   1.341
  233SOL    HW2 3054   0.707   1.564   1.239
  234SOL     OW 3055   1.593   0.221   0.882
  234SOL    HW1 3056   1.509   0.220   0.936
  234SOL    HW2 3057   1.595   0.304   0.826
  235SOL     OW 3058   0.039   1.077   0.300
  235SOL    HW1 3059   0.138   1.066   0.291
  235SOL    HW2 3060  -0.001   0.991   0.332
  236SOL     OW 3061   0.875   1.646   0.337
  236SOL    HW1 3062   0.798   1.611   0.283
  236SOL    HW2 3063   0.843   1.717   0.399
  237SOL     OW 3064   0.569   1.275   3.027
  237SOL    HW1 3065   0.476   1.268   2.990
  237SOL    HW2 3066   0.580   1.364   3.071
  238SOL     OW 3067   1.555   1.511   2.565
  238SOL    HW1 3068   1.498   1.495   2.646
  238SOL    HW2 3069   1.496   1.521   2.485
  239SOL     OW 3070   1.135   0.703   2.579
  239SOL    HW1 3071   1.192   0.781   2.554
  239SOL    HW2 3072   1.075   0.729   2.655
  240SOL     OW 3073   1.755   0.607   2.093
  240SOL    HW1 3074   1.743   0.594   1.994
  240SOL    HW2 3075   1.725   0.526   2.142
  241SOL     OW 3076   0.768   1.144   2.885
  241SOL    HW1 3077   0.690   1.161   2.945
  241SOL    HW2 3078   0.802   1.231   2.849
  242SOL     OW 3079   0.850   0.798   3.685
  242SOL    HW1 3080   0.846   0.874   3.750
  242SOL    HW2 3081   0.872   0.834   3.594
  243SOL     OW 3082   0.685   1.012   2.527
  243SOL    HW1 3083   0.754   0.996   2.597
  243SOL    HW2 3084   0.612   1.069   2.565
  244SOL     OW 3085   0.686   1.161   3.665
  244SOL    HW1 3086   0.746   1.240   3.679
  244SOL    HW2 3087   0.600   1.192   3.624
  245SOL     OW 3088   0.335   1.435   2.923
  245SOL    HW1 3089   0.257   1.404   2.870
  245SOL    HW2 3090   0.393   1.493   2.866
  246SOL     OW 3091   1.603   0.447   2.599
  246SOL    HW1 3092   1.529   0.493   2.549
  246SOL    HW2 3093   1.654   0.515   2.652
  247SOL     OW 3094   0.231   1.713   2.345
  247SOL    HW1 3095   0.265   1.790   2.399
  247SOL    HW2 3096   0.275   1.713   2.255
  248SOL     OW 3097   1.127   1.341   3.552
  248SOL    HW1 3098   1.174   1.341   3.640
  248SOL    HW2 3099   1.079   1.254   3.541
  249SOL     OW 3100   0.230   1.434   2.400
  249SOL    HW1 3101   0.204   1.530   2.400
  249SOL    HW2 3102   0.159   1.380   2.445
  250SOL     OW 3103   0.240   1.091   2.748
  250SOL    HW1 3104   0.254   1.007   2.800
  250SOL    HW2 3105   0.185   1.155   2.803
  251SOL     OW 3106   0.620   1.786   3.301
  251SOL    HW1 3107   0.528   1.769   3.336
  251SOL    HW2 3108   0.648   1.878   3.327
  252SOL     OW 3109   0.606   0.964   1.985
  252SOL    HW1 3110   0.613   1.048   1.931
  252SOL    HW2 3111   0.652   0.977   2.073
  253SOL     OW 3112   1.594   0.114   3.342
  253SOL    HW1 3113   1.576   0.181   3.270
  253SOL    HW2 3114   1.591   0.160   3.431
  254SOL     OW 3115   0.122   0.643   2.425
  254SOL    HW1 3116   0.077   0.555   2.442
  254SOL    HW2 3117   0.121   0.697   2.509
  255SOL     OW 3118   1.842   1.767   2.221
  255SOL    HW1 3119   1.896   1.738   2.301
  255SOL    HW2 3120   1.872   1.857   2.192
  256SOL     OW 3121   0.027   1.596   1.979
  256SOL    HW1 3122   0.008   1.500   2.000
  256SOL    HW2 3123  -0.006   1.654   2.054
  257SOL     OW 3124   1.641   1.108   2.294
  257SOL    HW1 3125   1.727   1.110   2.242
  257SOL    HW2 3126   1.655   1.155   2.382
  258SOL     OW 3127   0.113   0.737   3.459
  258SOL    HW1 3128   0.201   0.724   3.504
  258SOL    HW2 3129   0.100   0.834   3.437
  259SOL     OW 3130   0.613   1.365   2.588
  259SOL    HW1 3131   0.564   1.278   2.597
  259SOL    HW2 3132   0.590   1.408   2.501
  260SOL     OW 3133   1.293   1.228   3.285
  260SOL    HW1 3134   1.330   1.155   3.227
  260SOL    HW2 3135   1.345   1.233   3.370
  261SOL     OW 3136   0.809   0.004   2.364
  261SOL    HW1 3137   0.849   0.095   2.355
  261SOL    HW2 3138   0.709   0.012   2.370
  262SOL     OW 3139   0.197   0.976   3.126
  262SOL    HW1 3140   0.286   0.931   3.112
  262SOL    HW2 3141   0.124   0.911   3.107
  263SOL     OW 3142   1.525   0.999   2.052
  263SOL    HW1 3143   1.462   0.923   2.065
  263SOL    HW2 3144   1.573   1.017   2.138
  264SOL     OW 3145   1.466   1.417   2.815
  264SOL    HW1 3146   1.407   1.423   2.895
  264SOL    HW2 3147   1.451   1.329   2.769
  265SOL     OW 3148   1.667   1.714   2.434
  265SOL    HW1 3149   1.626   1.691   2.346
  265SOL    HW2 3150   1.649   1.640   2.499
  266SOL     OW 3151   0.598   0.729   2.132
  266SOL    HW1 3152   0.622   0.798   2.064
  266SOL    HW2 3153   0.520   0.762   2.186
  267SOL     OW 3154   1.576   1.662   2.169
  267SOL    HW1 3155   1.665   1.708   2.172
  267SOL    HW2 3156   1.555   1.638   2.074
  268SOL     OW 3157   1.394   0.469   3.536
  268SOL    HW1 3158   1.374   0.512   3.624
  268SOL    HW2 3159   1.472   0.407   3.545
  269SOL     OW 3160   0.973   0.890   3.434
  269SOL    HW1 3161   1.019   0.806   3.405
  269SOL    HW2 3162   0.917   0.924   3.359
  270SOL     OW 3163   0.991   0.410   3.104
  270SOL    HW1 3164   0.914   0.444   3.158
  270SOL    HW2 3165   0.957   0.359   3.025
  271SOL     OW 3166   1.041   0.701   2.291
  271SOL    HW1 3167   1.067   0.697   2.387
  271SOL    HW2 3168   0.956   0.650   2.277
  272SOL     OW 3169   0.076   0.811   2.651
  272SOL    HW1 3170   0.175   0.799   2.660
  272SOL    HW2 3171   0.052   0.906   2.672
  273SOL     OW 3172   0.865   0.348   2.057
  273SOL    HW1 3173   0.924   0.411   2.008
  273SOL    HW2 3174   0.884   0.254   2.028
  274SOL     OW 3175   1.719   0.585   3.693
  274SOL    HW1 3176   1.693   0.674   3.657
  274SOL    HW2 3177   1.717   0.517   3.620
  275SOL     OW 3178   1.362   1.144   2.407
  275SOL    HW1 3179   1.445   1.115   2.359
  275SOL    HW2 3180   1.313   1.211   2.351
  276SOL     OW 3181   0.550   0.196   2.747
  276SOL    HW1 3182   0.545   0.191   2.847
  276SOL    HW2 3183   0.552   0.292   2.718
  277SOL     OW 3184   1.008   1.456   2.339
  277SOL    HW1 3185   0.962   1.528   2.287
  277SOL    HW2 3186   1.004   1.476   2.437
  278SOL     OW 3187   0.351   1.801   2.715
  278SOL    HW1 3188   0.401   1.715   2.721
  278SOL    HW2 3189   0.416   1.878   2.712
  279SOL     OW 3190   0.321   0.943   2.104
  279SOL    HW1 3191   0.403   0.982   2.062
  279SOL    HW2 3192   0.294   0.861   2.055
  280SOL     OW 3193   0.461   1.266   3.589
  280SOL    HW1 3194   0.411   1.267   3.503
  280SOL    HW2 3195   0.398   1.248   3.665
  281SOL     OW 3196   1.111   1.776   2.099
  281SOL    HW1 3197   1.051   1.714   2.149
  281SOL    HW2 3198   1.142   1.732   2.014
  282SOL     OW 3199   0.202   0.285   3.360
  282SOL    HW1 3200   0.122   0.345   3.347
  282SOL    HW2 3201   0.192   0.236   3.446
  283SOL     OW 3202   0.464   1.743   2.185
  283SOL    HW1 3203   0.497   1.782   2.271
  283SOL    HW2 3204   0.540   1.736   2.120
  284SOL     OW 3205   0.249   1.785   3.103
  284SOL    HW1 3206   0.306   1.720   3.153
  284SOL    HW2 3207   0.233   1.752   3.010
  285SOL     OW 3208   0.940   1.698   2.766
  285SOL    HW1 3209   1.020   1.641   2.787
  285SOL    HW2 3210   0.891   1.658   2.689
  286SOL     OW 3211   0.382   0.700   2.342
  286SOL    HW1 3212   0.427   0.610   2.339
  286SOL    HW2 3213   0.288   0.689   2.375
  287SOL     OW 3214   1.547   0.222   3.591
  287SOL    HW1 3215   1.542   0.259   3.683
  287SOL    HW2 3216   1.475   0.153   3.579
  288SOL     OW 3217   0.614   0.122   1.979
  288SOL    HW1 3218   0.712   0.100   1.986
  288SOL    HW2 3219   0.583   0.105   1.886
  289SOL     OW 3220   0.781   0.264   3.611
  289SOL    HW1 3221   0.848   0.203   3.654
  289SOL    HW2 3222   0.708   0.283   3.676
  290SOL     OW 3223   0.888   1.514   3.057
  290SOL    HW1 3224   0.865   1.489   2.963
  290SOL    HW2 3225   0.949   1.445   3.096
  291SOL     OW 3226   1.351   0.590   3.295
  291SOL    HW1 3227   1.379   0.547   3.380
  291SOL    HW2 3228   1.376   0.686   3.296
  292SOL     OW 3229   0.803   1.402   2.786
  292SOL    HW1 3230   0.893   1.416   2.744
  292SOL    HW2 3231   0.732   1.404   2.715
  293SOL     OW 3232   0.922   0.503   2.761
  293SOL    HW1 3233   0.897   0.494   2.665
  293SOL    HW2 3234   0.970   0.421   2.792
  294SOL     OW 3235   0.539   0.064   2.374
  294SOL    HW1 3236   0.458   0.065   2.432
  294SOL    HW2 3237   0.542   0.147   2.319
  295SOL     OW 3238   1.434   1.188   1.903
  295SOL    HW1 3239   1.466   1.112   1.960
  295SOL    HW2 3240   1.342   1.215   1.933
  296SOL     OW 3241   0.297   0.035   2.033
  296SOL    HW1 3242   0.346   0.119   2.012
  296SOL    HW2 3243   0.359  -0.030   2.078
  297SOL     OW 3244   0.935   0.236   2.342
  297SOL    HW1 3245   0.887   0.277   2.264
  297SOL    HW2 3246   1.034   0.234   2.323
  298SOL     OW 3247   1.076   0.683   3.326
  298SOL    HW1 3248   0.996   0.622   3.329
  298SOL    HW2 3249   1.157   0.630   3.302
  299SOL     OW 3250   1.227   1.570   2.655
  299SOL    HW1 3251   1.248   1.644   2.590
  299SOL    HW2 3252   1.295   1.570   2.728
  300SOL     OW 3253   0.459   1.152   2.603
  300SOL    HW1 3254   0.388   1.125   2.668
  300SOL    HW2 3255   0.433   1.124   2.510
  301SOL     OW 3256   1.271   1.797   2.453
  301SOL    HW1 3257   1.315   1.861   2.389
  301SOL    HW2 3258   1.221   1.849   2.523
  302SOL     OW 3259   1.032   0.549   1.878
  302SOL    HW1 3260   0.991   0.631   1.839
  302SOL    HW2 3261   1.096   0.575   1.951
  303SOL     OW 3262   0.561   0.222   3.009
  303SOL    HW1 3263   0.599   0.138   3.046
  303SOL    HW2 3264   0.473   0.241   3.053
  304SOL     OW 3265   0.866   0.454   2.504
  304SOL    HW1 3266   0.834   0.526   2.442
  304SOL    HW2 3267   0.890   0.373   2.451
  305SOL     OW 3268   1.017   0.039   2.615
  305SOL    HW1 3269   0.945   0.044   2.546
  305SOL    HW2 3270   0.993  -0.030   2.684
  306SOL     OW 3271   1.429   1.173   2.729
  306SOL    HW1 3272   1.374   1.089   2.722
  306SOL    HW2 3273   1.455   1.202   2.637
  307SOL     OW 3274   1.857   0.833   2.239
  307SOL    HW1 3275   1.899   0.769   2.303
  307SOL    HW2 3276   1.819   0.782   2.161
  308SOL     OW 3277   0.488   1.385   2.036
  308SOL    HW1 3278   0.401   1.370   2.083
  308SOL    HW2 3279   0.471   1.411   1.941
  309SOL     OW 3280   1.664   1.280   2.519
  309SOL    HW1 3281   1.763   1.288   2.533
  309SOL    HW2 3282   1.619   1.364   2.550
  310SOL     OW 3283   1.390   0.575   1.940
  310SOL    HW1 3284   1.336   0.554   2.021
  310SOL    HW2 3285   1.481   0.534   1.949
  311SOL     OW 3286   0.527   0.256   2.190
  311SOL    HW1 3287   0.554   0.197   2.115
  311SOL    HW2 3288   0.527   0.351   2.159
  312SOL     OW 3289   1.064   1.347   3.202
  312SOL    HW1 3290   0.984   1.324   3.257
  312SOL    HW2 3291   1.147   1.321   3.251
  313SOL     OW 3292   1.111   1.195   2.962
  313SOL    HW1 3293   1.071   1.239   3.043
  313SOL    HW2 3294   1.070   1.232   2.879
  314SOL     OW 3295   1.638   1.099   2.941
  314SOL    HW1 3296   1.643   1.180   3.000
  314SOL    HW2 3297   1.552   1.101   2.890
  315SOL     OW 3298   0.980   1.116   3.581
  315SOL    HW1 3299   0.881   1.122   3.591
  315SOL    HW2 3300   1.003   1.036   3.525
  316SOL     OW 3301   0.705   1.050   2.230
  316SOL    HW1 3302   0.691   1.057   2.329
  316SOL    HW2 3303   0.789   0.999   2.212
  317SOL     OW 3304   0.410   0.813   3.113
  317SOL    HW1 3305   0.496   0.825   3.163
  317SOL    HW2 3306   0.368   0.726   3.140
  318SOL     OW 3307   0.064   1.564   3.193
  318SOL    HW1 3308   0.018   1.646   3.159
  318SOL    HW2 3309   0.162   1.583   3.202
  319SOL     OW 3310   0.367   1.100   2.363
  319SOL    HW1 3311   0.360   1.183   2.307
  319SOL    HW2 3312   0.371   1.020   2.303
  320SOL     OW 3313   0.566   0.537   2.727
  320SOL    HW1 3314   0.578   0.603   2.653
  320SOL    HW2 3315   0.612   0.571   2.810
  321SOL     OW 3316   1.252   1.348   2.250
  321SOL    HW1 3317   1.302   1.425   2.290
  321SOL    HW2 3318   1.157   1.350   2.282
  322SOL     OW 3319   1.272   1.445   3.004
  322SOL    HW1 3320   1.319   1.458   3.091
  322SOL    HW2 3321   1.206   1.371   3.013
  323SOL     OW 3322   1.582   0.639   2.334
  323SOL    HW1 3323   1.551   0.700   2.407
  323SOL    HW2 3324   1.632   0.691   2.265
  324SOL     OW 3325   0.354   1.510   3.191
  324SOL    HW1 3326   0.333   1.466   3.104
  324SOL    HW2 3327   0.451   1.536   3.194
  325SOL     OW 3328   1.587   0.779   3.532
  325SOL    HW1 3329   1.495   0.817   3.527
  325SOL    HW2 3330   1.647   0.826   3.467
  326SOL     OW 3331   1.013   0.105   3.632
  326SOL    HW1 3332   1.019   0.190   3.580
  326SOL    HW2 3333   1.045   0.029   3.575
  327SOL     OW 3334   0.504   0.050   3.602
  327SOL    HW1 3335   0.462  -0.007   3.532
  327SOL    HW2 3336   0.438   0.119   3.634
  328SOL     OW 3337   0.573   0.870   2.891
  328SOL    HW1 3338   0.617   0.959   2.882
  328SOL    HW2 3339   0.510   0.870   2.968
  329SOL     OW 3340   1.360   0.862   2.907
  329SOL    HW1 3341   1.285   0.862   2.841
  329SOL    HW2 3342   1.397   0.770   2.916
  330SOL     OW 3343   1.209   0.525   2.137
  330SOL    HW1 3344   1.222   0.441   2.191
  330SOL    HW2 3345   1.180   0.599   2.197
  331SOL     OW 3346   0.037   1.310   3.144
  331SOL    HW1 3347   0.090   1.261   3.212
  331SOL    HW2 3348   0.059   1.408   3.149
  332SOL     OW 3349   1.728   0.935   3.716
  332SOL    HW1 3350   1.682   0.928   3.627
  332SOL    HW2 3351   1.666   0.979   3.782
  333SOL     OW 3352   0.307   0.063   2.480
  333SOL    HW1 3353   0.296   0.157   2.513
  333SOL    HW2 3354   0.302   0.000   2.557
  334SOL     OW 3355   1.622   0.367   2.236
  334SOL    HW1 3356   1.624   0.291   2.300
  334SOL    HW2 3357   1.574   0.444   2.276
  335SOL     OW 3358   1.023   0.766   2.828
  335SOL    HW1 3359   1.038   0.787   2.924
  335SOL    HW2 3360   0.993   0.671   2.819
  336SOL     OW 3361   1.540   0.274   1.987
  336SOL    HW1 3362   1.479   0.199   2.010
  336SOL    HW2 3363   1.562   0.326   2.070
  337SOL     OW 3364   1.303   0.838   1.904
  337SOL    HW1 3365   1.337   0.745   1.919
  337SOL    HW2 3366   1.321   0.865   1.809
  338SOL     OW 3367   1.068   1.333   2.711
  338SOL    HW1 3368   1.075   1.249   2.656
  338SOL    HW2 3369   1.130   1.402   2.675
  339SOL     OW 3370   0.319   0.810   2.811
  339SOL    HW1 3371   0.412   0.846   2.816
  339SOL    HW2 3372   0.313   0.725   2.863
  340SOL     OW 3373   1.138   0.380   3.540
  340SOL    HW1 3374   1.093   0.443   3.604
  340SOL    HW2 3375   1.231   0.411   3.523
  341SOL     OW 3376   0.008   1.326   2.062
  341SOL    HW1 3377  -0.085   1.347   2.031
  341SOL    HW2 3378   0.018   1.227   2.075
  342SOL     OW 3379   0.088   1.801   2.789
  342SOL    HW1 3380   0.046   1.715   2.762
  342SOL    HW2 3381   0.182   1.804   2.755
  343SOL     OW 3382   0.504   1.568   2.772
  343SOL    HW1 3383   0.570   1.642   2.781
  343SOL    HW2 3384   0.548   1.489   2.730
  344SOL     OW 3385   1.002   0.796   3.100
  344SOL    HW1 3386   1.043   0.764   3.186
  344SOL    HW2 3387   0.906   0.769   3.097
  345SOL     OW 3388   1.369   0.950   3.522
  345SOL    HW1 3389   1.408   1.039   3.542
  345SOL    HW2 3390   1.379   0.930   3.425
  346SOL     OW 3391   0.815   0.572   2.187
  346SOL    HW1 3392   0.822   0.483   2.141
  346SOL    HW2 3393   0.721   0.606   2.179
  347SOL     OW 3394   1.657   0.604   3.068
  347SOL    HW1 3395   1.619   0.535   3.130
  347SOL    HW2 3396   1.739   0.568   3.024
  348SOL     OW 3397   0.252   1.564   3.606
  348SOL    HW1 3398   0.222   1.621   3.682
  348SOL    HW2 3399   0.245   1.467   3.632
  349SOL     OW 3400   0.473   0.500   2.053
  349SOL    HW1 3401   0.534   0.580   2.057
  349SOL    HW2 3402   0.378   0.531   2.060
  350SOL     OW 3403   0.159   1.137   3.328
  350SOL    HW1 3404   0.181   1.076   3.404
  350SOL    HW2 3405   0.169   1.088   3.242
  351SOL     OW 3406   1.347   1.059   3.096
  351SOL    HW1 3407   1.371   0.996   3.022
  351SOL    HW2 3408   1.257   1.099   3.078
  352SOL     OW 3409   1.302   0.855   2.171
  352SOL    HW1 3410   1.216   0.824   2.213
  352SOL    HW2 3411   1.298   0.841   2.072
  353SOL     OW 3412   0.083   1.258   2.884
  353SOL    HW1 3413   0.078   1.257   2.984
  353SOL    HW2 3414   0.000   1.217   2.846
  354SOL     OW 3415   0.688   1.662   3.578
  354SOL    HW1 3416   0.632   1.743   3.587
  354SOL    HW2 3417   0.740   1.666   3.492
  355SOL     OW 3418   1.726   0.135   2.385
  355SOL    HW1 3419   1.799   0.118   2.318
  355SOL    HW2 3420   1.695   0.048   2.423
  356SOL     OW 3421   1.388   1.573   2.339
  356SOL    HW1 3422   1.455   1.585   2.265
  356SOL    HW2 3423   1.348   1.662   2.362
  357SOL     OW 3424   0.130   1.794   3.713
  357SOL    HW1 3425   0.089   1.720   3.766
  357SOL    HW2 3426   0.194   1.845   3.771
  358SOL     OW 3427   1.280   0.927   2.534
  358SOL    HW1 3428   1.340   0.846   2.536
  358SOL    HW2 3429   1.320   0.996   2.474
  359SOL     OW 3430   0.830   1.273   3.284
  359SOL    HW1 3431   0.825   1.306   3.379
  359SOL    HW2 3432   0.744   1.292   3.238
  360SOL     OW 3433   0.672   1.616   2.016
  360SOL    HW1 3434   0.681   1.626   1.917
  360SOL    HW2 3435   0.632   1.527   2.037
  361SOL     OW 3436   1.841   0.175   2.825
  361SOL    HW1 3437   1.880   0.090   2.789
  361SOL    HW2 3438   1.743   0.177   2.806
  362SOL     OW 3439   1.194   1.612   1.893
  362SOL    HW1 3440   1.200   1.519   1.930
  362SOL    HW2 3441   1.135   1.612   1.813
  363SOL     OW 3442   0.822   1.002   3.234
  363SOL    HW1 3443   0.862   1.001   3.142
  363SOL    HW2 3444   0.832   1.094   3.274
  364SOL     OW 3445   0.916   0.910   2.153
  364SOL    HW1 3446   0.979   0.948   2.085
  364SOL    HW2 3447   0.956   0.827   2.192
  365SOL     OW 3448   0.372   1.288   3.352
  365SOL    HW1 3449   0.359   1.381   3.318
  365SOL    HW2 3450   0.288   1.236   3.339
  366SOL     OW 3451   1.039   1.098   2.558
  366SOL    HW1 3452   0.969   1.051   2.612
  366SOL    HW2 3453   1.098   1.030   2.515
  367SOL     OW 3454   0.590   1.487   2.353
  367SOL    HW1 3455   0.632   1.429   2.283
  367SOL    HW2 3456   0.546   1.566   2.309
  368SOL     OW 3457   1.709   0.385   3.243
  368SOL    HW1 3458   1.782   0.454   3.247
  368SOL    HW2 3459   1.737   0.310   3.184
  369SOL     OW 3460   0.255   1.348   2.152
  369SOL    HW1 3461   0.159   1.349   2.125
  369SOL    HW2 3462   0.267   1.401   2.236
  370SOL     OW 3463   0.105   1.013   3.588
  370SOL    HW1 3464   0.028   0.980   3.642
  370SOL    HW2 3465   0.190   0.983   3.630
  371SOL     OW 3466   0.075   0.345   1.895
  371SOL    HW1 3467  -0.017   0.317   1.866
  371SOL    HW2 3468   0.106   0.422   1.839
  372SOL     OW 3469   1.440   0.856   3.260
  372SOL    HW1 3470   1.383   0.908   3.197
  372SOL    HW2 3471   1.536   0.868   3.236
  373SOL     OW 3472   0.072   0.166   2.180
  373SOL    HW1 3473   0.055   0.249   2.126
  373SOL    HW2 3474   0.162   0.129   2.158
  374SOL     OW 3475   1.183   1.335   1.981
  374SOL    HW1 3476   1.084   1.324   1.983
  374SOL    HW2 3477   1.217   1.350   2.074
  375SOL     OW 3478   1.493   1.767   2.821
  375SOL    HW1 3479   1.526   1.831   2.752
  375SOL    HW2 3480   1.559   1.761   2.896
  376SOL     OW 3481   0.716   0.565   3.570
  376SOL    HW1 3482   0.735   0.630   3.644
  376SOL    HW2 3483   0.776   0.485   3.579
  377SOL     OW 3484   1.450   1.220   3.495
  377SOL    HW1 3485   1.441   1.210   3.594
  377SOL    HW2 3486   1.546   1.213   3.469
  378SOL     OW 3487   0.390   1.741   3.422
  378SOL    HW1 3488   0.299   1.782   3.420
  378SOL    HW2 3489   0.383   1.647   3.454
  379SOL     OW 3490   1.674   0.883   3.116
  379SOL    HW1 3491   1.647   0.794   3.079
  379SOL    HW2 3492   1.675   0.951   3.043
  380SOL     OW 3493   0.594   0.745   2.514
  380SOL    HW1 3494   0.644   0.830   2.495
  380SOL    HW2 3495   0.506   0.747   2.466
  381SOL     OW 3496   1.777   0.342   3.504
  381SOL    HW1 3497   1.760   0.373   3.410
  381SOL    HW2 3498   1.693   0.305   3.542
  382SOL     OW 3499   1.730   0.934   3.379
  382SOL    HW1 3500   1.768   1.025   3.394
  382SOL    HW2 3501   1.722   0.917   3.280
  383SOL     OW 3502   0.859   1.374   1.878
  383SOL    HW1 3503   0.813   1.389   1.966
  383SOL    HW2 3504   0.903   1.459   1.848
  384SOL     OW 3505   0.661   1.790   2.815
  384SOL    HW1 3506   0.615   1.878   2.802
  384SOL    HW2 3507   0.760   1.802   2.808
  385SOL     OW 3508   0.859   0.956   2.723
  385SOL    HW1 3509   0.913   0.887   2.771
  385SOL    HW2 3510   0.827   1.025   2.789
  386SOL     OW 3511   1.083   0.984   1.949
  386SOL    HW1 3512   1.060   1.037   1.867
  386SOL    HW2 3513   1.164   0.928   1.930
  387SOL     OW 3514   1.861   1.569   2.713
  387SOL    HW1 3515   1.790   1.557   2.643
  387SOL    HW2 3516   1.862   1.490   2.773
  388SOL     OW 3517   0.221   1.314   3.706
  388SOL    HW1 3518   0.156   1.241   3.685
  388SOL    HW2 3519   0.225   1.328   3.804
  389SOL     OW 3520   0.079   1.240   2.515
  389SOL    HW1 3521   0.078   1.193   2.603
  389SOL    HW2 3522   0.161   1.212   2.464
  390SOL     OW 3523   0.672   1.391   3.486
  390SOL    HW1 3524   0.594   1.341   3.524
  390SOL    HW2 3525   0.669   1.486   3.517
  391SOL     OW 3526   1.824   0.192   3.089
  391SOL    HW1 3527   1.820   0.102   3.133
  391SOL    HW2 3528   1.827   0.181   2.990
  392SOL     OW 3529   0.428   0.424   2.382
  392SOL    HW1 3530   0.458   0.352   2.320
  392SOL    HW2 3531   0.389   0.384   2.465
  393SOL     OW 3532   0.812   1.586   2.549
  393SOL    HW1 3533   0.844   1.596   2.455
  393SOL    HW2 3534   0.733   1.524   2.551
  394SOL     OW 3535   0.770   1.330   2.163
  394SOL    HW1 3536   0.724   1.243   2.180
  394SOL    HW2 3537   0.861   1.327   2.204
  395SOL     OW 3538   0.618   1.567   3.146
  395SOL    HW1 3539   0.613   1.649   3.203
  395SOL    HW2 3540   0.707   1.564   3.101
  396SOL     OW 3541   1.352   0.052   2.030
  396SOL    HW1 3542   1.387   0.011   1.946
  396SOL    HW2 3543   1.262   0.014   2.050
  397SOL     OW 3544   1.593   0.221   2.744
  397SOL    HW1 3545   1.509   0.220   2.798
  397SOL    HW2 3546   1.595   0.304   2.688
  398SOL     OW 3547   0.875   1.646   2.199
  398SOL    HW1 3548   0.798   1.611   2.145
  398SOL    HW2 3549   0.843   1.717   2.261
  399SOL     OW 3550   0.225   0.275   4.720
  399SOL    HW1 3551   0.260   0.258   4.812
  399SOL    HW2 3552   0.137   0.230   4.708
  400SOL     OW 3553   0.569   1.275   4.889
  400SOL    HW1 3554   0.476   1.268   4.852
  400SOL    HW2 3555   0.580   1.364   4.933
  401SOL     OW 3556   1.555   1.511   4.427
  401SOL    HW1 3557   1.498   1.495   4.508
  401SOL    HW2 3558   1.496   1.521   4.347
  402SOL     OW 3559   1.135   0.703   4.441
  402SOL    HW1 3560   1.192   0.781   4.416
  402SOL    HW2 3561   1.075   0.729   4.517
  403SOL     OW 3562   1.755   0.607   3.955
  403SOL    HW1 3563   1.743   0.594   3.856
  403SOL    HW2 3564   1.725   0.526   4.004
  404SOL     OW 3565   0.768   1.144   4.747
  404SOL    HW1 3566   0.690   1.161   4.807
  404SOL    HW2 3567   0.802   1.231   4.711
  405SOL     OW 3568   0.335   1.435   4.785
  405SOL    HW1 3569   0.257   1.404   4.732
  405SOL    HW2 3570   0.393   1.493   4.728
  406SOL     OW 3571   1.603   0.447   4.461
  406SOL    HW1 3572   1.529   0.493   4.411
  406SOL    HW2 3573   1.654   0.515   4.514
  407SOL     OW 3574   0.231   1.713   4.207
  407SOL    HW1 3575   0.265   1.790   4.261
  407SOL    HW2 3576   0.275   1.713   4.117
  408SOL     OW 3577   0.230   1.434   4.262
  408SOL    HW1 3578   0.204   1.530   4.262
  408SOL    HW2 3579   0.159   1.380   4.307
  409SOL     OW 3580   0.240   1.091   4.610
  409SOL    HW1 3581   0.254   1.007   4.662
  409SOL    HW2 3582   0.185   1.155   4.665
  410SOL     OW 3583   0.620   1.786   5.163
  410SOL    HW1 3584   0.528   1.769   5.198
  410SOL    HW2 3585   0.648   1.878   5.189
  411SOL     OW 3586   0.122   0.643   4.287
  411SOL    HW1 3587   0.077   0.555   4.304
  411SOL    HW2 3588   0.121   0.697   4.371
  412SOL     OW 3589   1.842   1.767   4.083
  412SOL    HW1 3590   1.896   1.738   4.163
  412SOL    HW2 3591   1.872   1.857   4.054
  413SOL     OW 3592   0.027   1.596   3.841
  413SOL    HW1 3593   0.008   1.500   3.862
  413SOL    HW2 3594  -0.006   1.654   3.916
  414SOL     OW 3595   1.689   0.922   4.336
  414SOL    HW1 3596   1.784   0.893   4.344
  414SOL    HW2 3597   1.681   0.987   4.261
  415SOL     OW 3598   1.641   1.108   4.156
  415SOL    HW1 3599   1.727   1.110   4.104
  415SOL    HW2 3600   1.655   1.155   4.244
  416SOL     OW 3601   0.809   0.004   4.226
  416SOL    HW1 3602   0.849   0.095   4.217
  416SOL    HW2 3603   0.709   0.012   4.232
  417SOL     OW 3604   0.197   0.976   4.988
  417SOL    HW1 3605   0.286   0.931   4.974
  417SOL    HW2 3606   0.124   0.911   4.969
  418SOL     OW 3607   1.525   0.999   3.914
  418SOL    HW1 3608   1.462   0.923   3.927
  418SOL    HW2 3609   1.573   1.017   4.000
  419SOL     OW 3610   1.466   1.417   4.677
  419SOL    HW1 3611   1.407   1.423   4.757
  419SOL    HW2 3612   1.451   1.329   4.631
  420SOL     OW 3613   1.667   1.714   4.296
  420SOL    HW1 3614   1.626   1.691   4.208
  420SOL    HW2 3615   1.649   1.640   4.361
  421SOL     OW 3616   1.281   0.345   4.668
  421SOL    HW1 3617   1.195   0.295   4.655
  421SOL    HW2 3618   1.343   0.291   4.724
  422SOL     OW 3619   1.576   1.662   4.031
  422SOL    HW1 3620   1.665   1.708   4.034
  422SOL    HW2 3621   1.555   1.638   3.936
  423SOL     OW 3622   1.041   0.701   4.153
  423SOL    HW1 3623   1.067   0.697   4.249
  423SOL    HW2 3624   0.956   0.650   4.139
  424SOL     OW 3625   0.076   0.811   4.513
  424SOL    HW1 3626   0.175   0.799   4.522
  424SOL    HW2 3627   0.052   0.906   4.534
  425SOL     OW 3628   0.865   0.348   3.919
  425SOL    HW1 3629   0.924   0.411   3.870
  425SOL    HW2 3630   0.884   0.254   3.890
  426SOL     OW 3631   1.362   1.144   4.269
  426SOL    HW1 3632   1.445   1.115   4.221
  426SOL    HW2 3633   1.313   1.211   4.213
  427SOL     OW 3634   0.550   0.196   4.609
  427SOL    HW1 3635   0.545   0.191   4.709
  427SOL    HW2 3636   0.552   0.292   4.580
  428SOL     OW 3637   0.351   1.801   4.577
  428SOL    HW1 3638   0.401   1.715   4.583
  428SOL    HW2 3639   0.416   1.878   4.574
  429SOL     OW 3640   1.795   1.066   4.597
  429SOL    HW1 3641   1.733   1.051   4.521
  429SOL    HW2 3642   1.743   1.077   4.682
  430SOL     OW 3643   1.458   0.735   4.452
  430SOL    HW1 3644   1.453   0.670   4.527
  430SOL    HW2 3645   1.538   0.794   4.465
  431SOL     OW 3646   1.111   1.776   3.961
  431SOL    HW1 3647   1.051   1.714   4.011
  431SOL    HW2 3648   1.142   1.732   3.876
  432SOL     OW 3649   1.400   0.107   4.150
  432SOL    HW1 3650   1.376   0.070   4.060
  432SOL    HW2 3651   1.499   0.123   4.154
  433SOL     OW 3652   0.382   0.700   4.204
  433SOL    HW1 3653   0.427   0.610   4.201
  433SOL    HW2 3654   0.288   0.689   4.237
  434SOL     OW 3655   0.614   0.122   3.841
  434SOL    HW1 3656   0.712   0.100   3.848
  434SOL    HW2 3657   0.583   0.105   3.748
  435SOL     OW 3658   0.803   1.402   4.648
  435SOL    HW1 3659   0.893   1.416   4.606
  435SOL    HW2 3660   0.732   1.404   4.577
  436SOL     OW 3661   0.539   0.064   4.236
  436SOL    HW1 3662   0.458   0.065   4.294
  436SOL    HW2 3663   0.542   0.147   4.181
  437SOL     OW 3664   1.434   1.188   3.765
  437SOL    HW1 3665   1.466   1.112   3.822
  437SOL    HW2 3666   1.342   1.215   3.795
  438SOL     OW 3667   0.297   0.035   3.895
  438SOL    HW1 3668   0.346   0.119   3.874
  438SOL    HW2 3669   0.359  -0.030   3.940
  439SOL     OW 3670   0.935   0.236   4.204
  439SOL    HW1 3671   0.887   0.277   4.126
  439SOL    HW2 3672   1.034   0.234   4.185
  440SOL     OW 3673   1.227   1.570   4.517
  440SOL    HW1 3674   1.248   1.644   4.452
  440SOL    HW2 3675   1.295   1.570   4.590
  441SOL     OW 3676   0.459   1.152   4.465
  441SOL    HW1 3677   0.388   1.125   4.530
  441SOL    HW2 3678   0.433   1.124   4.372
  442SOL     OW 3679   1.271   1.797   4.315
  442SOL    HW1 3680   1.315   1.861   4.251
  442SOL    HW2 3681   1.221   1.849   4.385
  443SOL     OW 3682   1.032   0.549   3.740
  443SOL    HW1 3683   0.991   0.631   3.701
  443SOL    HW2 3684   1.096   0.575   3.813
  444SOL     OW 3685   0.561   0.222   4.871
  444SOL    HW1 3686   0.599   0.138   4.908
  444SOL    HW2 3687   0.473   0.241   4.915
  445SOL     OW 3688   0.866   0.454   4.366
  445SOL    HW1 3689   0.834   0.526   4.304
  445SOL    HW2 3690   0.890   0.373   4.313
  446SOL     OW 3691   1.017   0.039   4.477
  446SOL    HW1 3692   0.945   0.044   4.408
  446SOL    HW2 3693   0.993  -0.030   4.546
  447SOL     OW 3694   1.429   1.173   4.591
  447SOL    HW1 3695   1.374   1.089   4.584
  447SOL    HW2 3696   1.455   1.202   4.499
  448SOL     OW 3697   1.466   0.590   4.716
  448SOL    HW1 3698   1.436   0.495   4.723
  448SOL    HW2 3699   1.539   0.606   4.782
  449SOL     OW 3700   1.857   0.833   4.101
  449SOL    HW1 3701   1.899   0.769   4.165
  449SOL    HW2 3702   1.819   0.782   4.023
  450SOL     OW 3703   0.488   1.385   3.898
  450SOL    HW1 3704   0.401   1.370   3.945
  450SOL    HW2 3705   0.471   1.411   3.803
  451SOL     OW 3706   1.664   1.280   4.381
  451SOL    HW1 3707   1.763   1.288   4.395
  451SOL    HW2 3708   1.619   1.364   4.412
  452SOL     OW 3709   1.390   0.575   3.802
  452SOL    HW1 3710   1.336   0.554   3.883
  452SOL    HW2 3711   1.481   0.534   3.811
  453SOL     OW 3712   0.527   0.256   4.052
  453SOL    HW1 3713   0.554   0.197   3.977
  453SOL    HW2 3714   0.527   0.351   4.021
  454SOL     OW 3715   1.111   1.195   4.824
  454SOL    HW1 3716   1.071   1.239   4.905
  454SOL    HW2 3717   1.070   1.232   4.741
  455SOL     OW 3718   1.638   1.099   4.803
  455SOL    HW1 3719   1.643   1.180   4.862
  455SOL    HW2 3720   1.552   1.101   4.752
  456SOL     OW 3721   0.410   0.813   4.975
  456SOL    HW1 3722   0.496   0.825   5.025
  456SOL    HW2 3723   0.368   0.726   5.002
  457SOL     OW 3724   0.367   1.100   4.225
  457SOL    HW1 3725   0.360   1.183   4.169
  457SOL    HW2 3726   0.371   1.020   4.165
  458SOL     OW 3727   0.566   0.537   4.589
  458SOL    HW1 3728   0.578   0.603   4.515
  458SOL    HW2 3729   0.612   0.571   4.672
  459SOL     OW 3730   1.252   1.348   4.112
  459SOL    HW1 3731   1.302   1.425   4.152
  459SOL    HW2 3732   1.157   1.350   4.144
  460SOL     OW 3733   1.272   1.445   4.866
  460SOL    HW1 3734   1.319   1.458   4.953
  460SOL    HW2 3735   1.206   1.371   4.875
  461SOL     OW 3736   1.582   0.639   4.196
  461SOL    HW1 3737   1.551   0.700   4.269
  461SOL    HW2 3738   1.632   0.691   4.127
  462SOL     OW 3739   0.354   1.510   5.053
  462SOL    HW1 3740   0.333   1.466   4.966
  462SOL    HW2 3741   0.451   1.536   5.056
  463SOL     OW 3742   0.573   0.870   4.753
  463SOL    HW1 3743   0.617   0.959   4.744
  463SOL    HW2 3744   0.510   0.870   4.830
  464SOL     OW 3745   1.360   0.862   4.769
  464SOL    HW1 3746   1.285   0.862   4.703
  464SOL    HW2 3747   1.397   0.770   4.778
  465SOL     OW 3748   1.209   0.525   3.999
  465SOL    HW1 3749   1.222   0.441   4.053
  465SOL    HW2 3750   1.180   0.599   4.059
  466SOL     OW 3751   0.307   0.213   4.955
  466SOL    HW1 3752   0.284   0.250   5.045
  466SOL    HW2 3753   0.277   0.118   4.949
  467SOL     OW 3754   0.037   1.310   5.006
  467SOL    HW1 3755   0.090   1.261   5.074
  467SOL    HW2 3756   0.059   1.408   5.011
  468SOL     OW 3757   0.732   0.634   4.788
  468SOL    HW1 3758   0.791   0.608   4.712
  468SOL    HW2 3759   0.704   0.730   4.777
  469SOL     OW 3760   0.307   0.063   4.342
  469SOL    HW1 3761   0.296   0.157   4.375
  469SOL    HW2 3762   0.302   0.000   4.419
  470SOL     OW 3763   1.622   0.367   4.098
  470SOL    HW1 3764   1.624   0.291   4.162
  470SOL    HW2 3765   1.574   0.444   4.138
  471SOL     OW 3766   1.023   0.766   4.690
  471SOL    HW1 3767   1.038   0.787   4.786
  471SOL    HW2 3768   0.993   0.671   4.681
  472SOL     OW 3769   1.540   0.274   3.849
  472SOL    HW1 3770   1.479   0.199   3.872
  472SOL    HW2 3771   1.562   0.326   3.932
  473SOL     OW 3772   1.303   0.838   3.766
  473SOL    HW1 3773   1.337   0.745   3.781
  473SOL    HW2 3774   1.321   0.865   3.671
  474SOL     OW 3775   1.068   1.333   4.573
  474SOL    HW1 3776   1.075   1.249   4.518
  474SOL    HW2 3777   1.130   1.402   4.537
  475SOL     OW 3778   0.319   0.810   4.673
  475SOL    HW1 3779   0.412   0.846   4.678
  475SOL    HW2 3780   0.313   0.725   4.725
  476SOL     OW 3781   0.339   0.509   4.730
  476SOL    HW1 3782   0.287   0.426   4.713
  476SOL    HW2 3783   0.416   0.514   4.666
  477SOL     OW 3784   1.160   0.207   5.201
  477SOL    HW1 3785   1.160   0.271   5.278
  477SOL    HW2 3786   1.188   0.255   5.118
  478SOL     OW 3787   0.008   1.326   3.924
  478SOL    HW1 3788  -0.085   1.347   3.893
  478SOL    HW2 3789   0.018   1.227   3.937
  479SOL     OW 3790   1.002   0.796   4.962
  479SOL    HW1 3791   1.043   0.764   5.048
  479SOL    HW2 3792   0.906   0.769   4.959
  480SOL     OW 3793   0.040   0.544   4.838
  480SOL    HW1 3794   0.125   0.511   4.797
  480SOL    HW2 3795   0.053   0.559   4.936
  481SOL     OW 3796   0.815   0.572   4.049
  481SOL    HW1 3797   0.822   0.483   4.003
  481SOL    HW2 3798   0.721   0.606   4.041
  482SOL     OW 3799   0.671   0.464   4.993
  482SOL    HW1 3800   0.637   0.375   4.963
  482SOL    HW2 3801   0.697   0.518   4.913
  483SOL     OW 3802   0.930   1.678   5.189
  483SOL    HW1 3803   0.906   1.660   5.094
  483SOL    HW2 3804   0.960   1.772   5.199
  484SOL     OW 3805   1.347   1.059   4.958
  484SOL    HW1 3806   1.371   0.996   4.884
  484SOL    HW2 3807   1.257   1.099   4.940
  485SOL     OW 3808   1.302   0.855   4.033
  485SOL    HW1 3809   1.216   0.824   4.075
  485SOL    HW2 3810   1.298   0.841   3.934
  486SOL     OW 3811   1.759   1.747   4.878
  486SOL    HW1 3812   1.820   1.777   4.805
  486SOL    HW2 3813   1.721   1.658   4.856
  487SOL     OW 3814   1.252   1.731   4.852
  487SOL    HW1 3815   1.336   1.736   4.798
  487SOL    HW2 3816   1.229   1.635   4.870
  488SOL     OW 3817   0.083   1.258   4.746
  488SOL    HW1 3818   0.078   1.257   4.846
  488SOL    HW2 3819   0.000   1.217   4.708
  489SOL     OW 3820   1.726   0.135   4.247
  489SOL    HW1 3821   1.799   0.118   4.180
  489SOL    HW2 3822   1.695   0.048   4.285
  490SOL     OW 3823   1.388   1.573   4.201
  490SOL    HW1 3824   1.455   1.585   4.127
  490SOL    HW2 3825   1.348   1.662   4.224
  491SOL     OW 3826   1.280   0.927   4.396
  491SOL    HW1 3827   1.340   0.846   4.398
  491SOL    HW2 3828   1.320   0.996   4.336
  492SOL     OW 3829   0.672   1.616   3.878
  492SOL    HW1 3830   0.681   1.626   3.779
  492SOL    HW2 3831   0.632   1.527   3.899
  493SOL     OW 3832   1.650   1.720   5.118
  493SOL    HW1 3833   1.703   1.730   5.034
  493SOL    HW2 3834   1.623   1.810   5.152
  494SOL     OW 3835   1.841   0.175   4.687
  494SOL    HW1 3836   1.880   0.090   4.651
  494SOL    HW2 3837   1.743   0.177   4.668
  495SOL     OW 3838   0.263   0.326   4.444
  495SOL    HW1 3839   0.184   0.377   4.410
  495SOL    HW2 3840   0.254   0.311   4.542
  496SOL     OW 3841   0.822   1.002   5.096
  496SOL    HW1 3842   0.862   1.001   5.004
  496SOL    HW2 3843   0.832   1.094   5.136
  497SOL     OW 3844   0.916   0.910   4.015
  497SOL    HW1 3845   0.979   0.948   3.947
  497SOL    HW2 3846   0.956   0.827   4.054
  498SOL     OW 3847   1.039   1.098   4.420
  498SOL    HW1 3848   0.969   1.051   4.474
  498SOL    HW2 3849   1.098   1.030   4.377
  499SOL     OW 3850   1.014   0.236   4.695
  499SOL    HW1 3851   1.006   0.200   4.602
  499SOL    HW2 3852   1.012   0.160   4.760
  500SOL     OW 3853   1.709   0.385   5.105
  500SOL    HW1 3854   1.782   0.454   5.109
  500SOL    HW2 3855   1.737   0.310   5.046
  501SOL     OW 3856   0.255   1.348   4.014
  501SOL    HW1 3857   0.159   1.349   3.987
  501SOL    HW2 3858   0.267   1.401   4.098
  502SOL     OW 3859   0.075   0.345   3.757
  502SOL    HW1 3860  -0.017   0.317   3.728
  502SOL    HW2 3861   0.106   0.422   3.701
  503SOL     OW 3862   0.072   0.166   4.042
  503SOL    HW1 3863   0.055   0.249   3.988
  503SOL    HW2 3864   0.162   0.129   4.020
  504SOL     OW 3865   1.183   1.335   3.843
  504SOL    HW1 3866   1.084   1.324   3.845
  504SOL    HW2 3867   1.217   1.350   3.936
  505SOL     OW 3868   1.493   1.767   4.683
  505SOL    HW1 3869   1.526   1.831   4.614
  505SOL    HW2 3870   1.559   1.761   4.758
  506SOL     OW 3871   1.450   1.220   5.357
  506SOL    HW1 3872   1.441   1.210   5.456
  506SOL    HW2 3873   1.546   1.213   5.331
  507SOL     OW 3874   1.225   0.325   4.173
  507SOL    HW1 3875   1.290   0.251   4.162
  507SOL    HW2 3876   1.245   0.375   4.257
  508SOL     OW 3877   0.594   0.745   4.376
  508SOL    HW1 3878   0.644   0.830   4.357
  508SOL    HW2 3879   0.506   0.747   4.328
  509SOL     OW 3880   1.730   0.934   5.241
  509SOL    HW1 3881   1.768   1.025   5.256
  509SOL    HW2 3882   1.722   0.917   5.142
  510SOL     OW 3883   0.859   1.374   3.740
  510SOL    HW1 3884   0.813   1.389   3.828
  510SOL    HW2 3885   0.903   1.459   3.710
  511SOL     OW 3886   0.859   0.956   4.585
  511SOL    HW1 3887   0.913   0.887   4.633
  511SOL    HW2 3888   0.827   1.025   4.651
  512SOL     OW 3889   1.083   0.984   3.811
  512SOL    HW1 3890   1.060   1.037   3.729
  512SOL    HW2 3891   1.164   0.928   3.792
  513SOL     OW 3892   1.861   1.569   4.575
  513SOL    HW1 3893   1.790   1.557   4.505
  513SOL    HW2 3894   1.862   1.490   4.635
  514SOL     OW 3895   0.079   1.240   4.377
  514SOL    HW1 3896   0.078   1.193   4.465
  514SOL    HW2 3897   0.161   1.212   4.326
  515SOL     OW 3898   1.824   0.192   4.951
  515SOL    HW1 3899   1.820   0.102   4.995
  515SOL    HW2 3900   1.827   0.181   4.852
  516SOL     OW 3901   0.428   0.424   4.244
  516SOL    HW1 3902   0.458   0.352   4.182
  516SOL    HW2 3903   0.389   0.384   4.327
  517SOL     OW 3904   1.705   1.487   4.828
  517SOL    HW1 3905   1.612   1.462   4.801
  517SOL    HW2 3906   1.731   1.437   4.910
  518SOL     OW 3907   1.424   0.214   4.836
  518SOL    HW1 3908   1.476   0.149   4.891
  518SOL    HW2 3909   1.375   0.277   4.897
  519SOL     OW 3910   1.001   0.034   4.878
  519SOL    HW1 3911   0.938  -0.038   4.847
  519SOL    HW2 3912   1.094  -0.002   4.878
  520SOL     OW 3913   0.770   1.330   4.025
  520SOL    HW1 3914   0.724   1.243   4.042
  520SOL    HW2 3915   0.861   1.327   4.066
  521SOL     OW 3916   1.352   0.052   3.892
  521SOL    HW1 3917   1.387   0.011   3.808
  521SOL    HW2 3918   1.262   0.014   3.912
  522SOL     OW 3919   1.300   0.453   4.415
  522SOL    HW1 3920   1.241   0.533   4.419
  522SOL    HW2 3921   1.315   0.418   4.508
  523SOL     OW 3922   1.593   0.221   4.606
  523SOL    HW1 3923   1.509   0.220   4.660
  523SOL    HW2 3924   1.595   0.304   4.550
  524SOL     OW 3925   0.039   1.077   4.024
  524SOL    HW1 3926   0.138   1.066   4.015
  524SOL    HW2 3927  -0.001   0.991   4.056
  525SOL     OW 3928   0.230   2.490   0.113
  525SOL    HW1 3929   0.137   2.488   0.150
  525SOL    HW2 3930   0.231   2.451   0.021
  526SOL     OW 3931   0.225   2.137   0.996
  526SOL    HW1 3932   0.260   2.120   1.088
  526SOL    HW2 3933   0.137   2.092   0.984
  527SOL     OW 3934   0.019   2.230   0.647
  527SOL    HW1 3935  -0.063   2.273   0.686
  527SOL    HW2 3936  -0.009   2.157   0.584
  528SOL     OW 3937   1.135   2.565   0.717
  528SOL    HW1 3938   1.192   2.643   0.692
  528SOL    HW2 3939   1.075   2.591   0.793
  529SOL     OW 3940   1.755   2.469   0.231
  529SOL    HW1 3941   1.743   2.456   0.132
  529SOL    HW2 3942   1.725   2.388   0.280
  530SOL     OW 3943   0.768   3.006   1.023
  530SOL    HW1 3944   0.690   3.023   1.083
  530SOL    HW2 3945   0.802   3.093   0.987
  531SOL     OW 3946   0.850   2.660   1.823
  531SOL    HW1 3947   0.846   2.736   1.888
  531SOL    HW2 3948   0.872   2.696   1.732
  532SOL     OW 3949   0.685   2.874   0.665
  532SOL    HW1 3950   0.754   2.858   0.735
  532SOL    HW2 3951   0.612   2.931   0.703
  533SOL     OW 3952   0.686   3.023   1.803
  533SOL    HW1 3953   0.746   3.102   1.817
  533SOL    HW2 3954   0.600   3.054   1.762
  534SOL     OW 3955   1.460   3.367   1.339
  534SOL    HW1 3956   1.484   3.461   1.365
  534SOL    HW2 3957   1.444   3.313   1.421
  535SOL     OW 3958   0.438   2.254   1.499
  535SOL    HW1 3959   0.520   2.198   1.508
  535SOL    HW2 3960   0.357   2.196   1.503
  536SOL     OW 3961   1.603   2.309   0.737
  536SOL    HW1 3962   1.529   2.355   0.687
  536SOL    HW2 3963   1.654   2.377   0.790
  537SOL     OW 3964   1.127   3.203   1.690
  537SOL    HW1 3965   1.174   3.203   1.778
  537SOL    HW2 3966   1.079   3.116   1.679
  538SOL     OW 3967   0.606   2.826   0.123
  538SOL    HW1 3968   0.613   2.910   0.069
  538SOL    HW2 3969   0.652   2.839   0.211
  539SOL     OW 3970   1.842   3.629   0.359
  539SOL    HW1 3971   1.896   3.600   0.439
  539SOL    HW2 3972   1.872   3.719   0.330
  540SOL     OW 3973   0.027   3.458   0.117
  540SOL    HW1 3974   0.008   3.362   0.138
  540SOL    HW2 3975  -0.006   3.516   0.192
  541SOL     OW 3976   1.689   2.784   0.612
  541SOL    HW1 3977   1.784   2.755   0.620
  541SOL    HW2 3978   1.681   2.849   0.537
  542SOL     OW 3979   0.113   2.599   1.597
  542SOL    HW1 3980   0.201   2.586   1.642
  542SOL    HW2 3981   0.100   2.696   1.575
  543SOL     OW 3982   0.613   3.227   0.726
  543SOL    HW1 3983   0.564   3.140   0.735
  543SOL    HW2 3984   0.590   3.270   0.639
  544SOL     OW 3985   1.293   3.090   1.423
  544SOL    HW1 3986   1.330   3.017   1.365
  544SOL    HW2 3987   1.345   3.095   1.508
  545SOL     OW 3988   0.809   1.866   0.502
  545SOL    HW1 3989   0.849   1.957   0.493
  545SOL    HW2 3990   0.709   1.874   0.508
  546SOL     OW 3991   0.197   2.838   1.264
  546SOL    HW1 3992   0.286   2.793   1.250
  546SOL    HW2 3993   0.124   2.773   1.245
  547SOL     OW 3994   1.525   2.861   0.190
  547SOL    HW1 3995   1.462   2.785   0.203
  547SOL    HW2 3996   1.573   2.879   0.276
  548SOL     OW 3997   1.187   3.654   1.616
  548SOL    HW1 3998   1.211   3.714   1.540
  548SOL    HW2 3999   1.194   3.559   1.586
  549SOL     OW 4000   0.317   2.113   1.801
  549SOL    HW1 4001   0.388   2.184   1.807
  549SOL    HW2 4002   0.229   2.152   1.829
  550SOL     OW 4003   1.667   3.576   0.572
  550SOL    HW1 4004   1.626   3.553   0.484
  550SOL    HW2 4005   1.649   3.502   0.637
  551SOL     OW 4006   0.598   2.591   0.270
  551SOL    HW1 4007   0.622   2.660   0.202
  551SOL    HW2 4008   0.520   2.624   0.324
  552SOL     OW 4009   1.281   2.207   0.944
  552SOL    HW1 4010   1.195   2.157   0.931
  552SOL    HW2 4011   1.343   2.153   1.000
  553SOL     OW 4012   1.576   3.524   0.307
  553SOL    HW1 4013   1.665   3.570   0.310
  553SOL    HW2 4014   1.555   3.500   0.212
  554SOL     OW 4015   0.807   2.467   1.465
  554SOL    HW1 4016   0.760   2.464   1.554
  554SOL    HW2 4017   0.756   2.412   1.399
  555SOL     OW 4018   1.394   2.331   1.674
  555SOL    HW1 4019   1.374   2.374   1.762
  555SOL    HW2 4020   1.472   2.269   1.683
  556SOL     OW 4021   0.973   2.752   1.572
  556SOL    HW1 4022   1.019   2.668   1.543
  556SOL    HW2 4023   0.917   2.786   1.497
  557SOL     OW 4024   0.991   2.272   1.242
  557SOL    HW1 4025   0.914   2.306   1.296
  557SOL    HW2 4026   0.957   2.221   1.163
  558SOL     OW 4027   1.041   2.563   0.429
  558SOL    HW1 4028   1.067   2.559   0.525
  558SOL    HW2 4029   0.956   2.512   0.415
  559SOL     OW 4030   0.130   3.683   1.571
  559SOL    HW1 4031   0.120   3.668   1.670
  559SOL    HW2 4032   0.044   3.719   1.535
  560SOL     OW 4033   0.865   2.210   0.195
  560SOL    HW1 4034   0.924   2.273   0.146
  560SOL    HW2 4035   0.884   2.116   0.166
  561SOL     OW 4036   1.719   2.447   1.831
  561SOL    HW1 4037   1.693   2.536   1.795
  561SOL    HW2 4038   1.717   2.379   1.758
  562SOL     OW 4039   0.550   2.058   0.885
  562SOL    HW1 4040   0.545   2.053   0.985
  562SOL    HW2 4041   0.552   2.154   0.856
  563SOL     OW 4042   1.795   2.928   0.873
  563SOL    HW1 4043   1.733   2.913   0.797
  563SOL    HW2 4044   1.743   2.939   0.958
  564SOL     OW 4045   1.227   3.412   1.506
  564SOL    HW1 4046   1.233   3.335   1.570
  564SOL    HW2 4047   1.175   3.386   1.426
  565SOL     OW 4048   0.321   2.805   0.242
  565SOL    HW1 4049   0.403   2.844   0.200
  565SOL    HW2 4050   0.294   2.723   0.193
  566SOL     OW 4051   1.458   2.597   0.728
  566SOL    HW1 4052   1.453   2.532   0.803
  566SOL    HW2 4053   1.538   2.656   0.741
  567SOL     OW 4054   0.461   3.128   1.727
  567SOL    HW1 4055   0.411   3.129   1.641
  567SOL    HW2 4056   0.398   3.110   1.803
  568SOL     OW 4057   0.202   2.147   1.498
  568SOL    HW1 4058   0.122   2.207   1.485
  568SOL    HW2 4059   0.192   2.098   1.584
  569SOL     OW 4060   1.400   1.969   0.426
  569SOL    HW1 4061   1.376   1.932   0.336
  569SOL    HW2 4062   1.499   1.985   0.430
  570SOL     OW 4063   0.249   3.647   1.241
  570SOL    HW1 4064   0.306   3.582   1.291
  570SOL    HW2 4065   0.233   3.614   1.148
  571SOL     OW 4066   0.940   3.560   0.904
  571SOL    HW1 4067   1.020   3.503   0.925
  571SOL    HW2 4068   0.891   3.520   0.827
  572SOL     OW 4069   0.382   2.562   0.480
  572SOL    HW1 4070   0.427   2.472   0.477
  572SOL    HW2 4071   0.288   2.551   0.513
  573SOL     OW 4072   1.547   2.084   1.729
  573SOL    HW1 4073   1.542   2.121   1.821
  573SOL    HW2 4074   1.475   2.015   1.717
  574SOL     OW 4075   0.781   2.126   1.749
  574SOL    HW1 4076   0.848   2.065   1.792
  574SOL    HW2 4077   0.708   2.145   1.814
  575SOL     OW 4078   0.888   3.376   1.195
  575SOL    HW1 4079   0.865   3.351   1.101
  575SOL    HW2 4080   0.949   3.307   1.234
  576SOL     OW 4081   1.351   2.452   1.433
  576SOL    HW1 4082   1.379   2.409   1.518
  576SOL    HW2 4083   1.376   2.548   1.434
  577SOL     OW 4084   0.922   2.365   0.899
  577SOL    HW1 4085   0.897   2.356   0.803
  577SOL    HW2 4086   0.970   2.283   0.930
  578SOL     OW 4087   0.539   1.926   0.512
  578SOL    HW1 4088   0.458   1.927   0.570
  578SOL    HW2 4089   0.542   2.009   0.457
  579SOL     OW 4090   1.434   3.050   0.041
  579SOL    HW1 4091   1.466   2.974   0.098
  579SOL    HW2 4092   1.342   3.077   0.071
  580SOL     OW 4093   0.935   2.098   0.480
  580SOL    HW1 4094   0.887   2.139   0.402
  580SOL    HW2 4095   1.034   2.096   0.461
  581SOL     OW 4096   1.076   2.545   1.464
  581SOL    HW1 4097   0.996   2.484   1.467
  581SOL    HW2 4098   1.157   2.492   1.440
  582SOL     OW 4099   1.227   3.432   0.793
  582SOL    HW1 4100   1.248   3.506   0.728
  582SOL    HW2 4101   1.295   3.432   0.866
  583SOL     OW 4102   1.271   3.659   0.591
  583SOL    HW1 4103   1.315   3.723   0.527
  583SOL    HW2 4104   1.221   3.711   0.661
  584SOL     OW 4105   1.032   2.411   0.016
  584SOL    HW1 4106   0.991   2.493  -0.023
  584SOL    HW2 4107   1.096   2.437   0.089
  585SOL     OW 4108   0.078   2.418   1.386
  585SOL    HW1 4109   0.170   2.417   1.345
  585SOL    HW2 4110   0.072   2.492   1.453
  586SOL     OW 4111   0.866   2.316   0.642
  586SOL    HW1 4112   0.834   2.388   0.580
  586SOL    HW2 4113   0.890   2.235   0.589
  587SOL     OW 4114   1.017   1.901   0.753
  587SOL    HW1 4115   0.945   1.906   0.684
  587SOL    HW2 4116   0.993   1.832   0.822
  588SOL     OW 4117   1.466   2.452   0.992
  588SOL    HW1 4118   1.436   2.357   0.999
  588SOL    HW2 4119   1.539   2.468   1.058
  589SOL     OW 4120   1.857   2.695   0.377
  589SOL    HW1 4121   1.899   2.631   0.441
  589SOL    HW2 4122   1.819   2.644   0.299
  590SOL     OW 4123   0.488   3.247   0.174
  590SOL    HW1 4124   0.401   3.232   0.221
  590SOL    HW2 4125   0.471   3.273   0.079
  591SOL     OW 4126   0.527   2.118   0.328
  591SOL    HW1 4127   0.554   2.059   0.253
  591SOL    HW2 4128   0.527   2.213   0.297
  592SOL     OW 4129   1.754   3.085   1.588
  592SOL    HW1 4130   1.845   3.046   1.575
  592SOL    HW2 4131   1.762   3.181   1.612
  593SOL     OW 4132   1.064   3.209   1.340
  593SOL    HW1 4133   0.984   3.186   1.395
  593SOL    HW2 4134   1.147   3.183   1.389
  594SOL     OW 4135   1.592   3.491   1.625
  594SOL    HW1 4136   1.619   3.525   1.535
  594SOL    HW2 4137   1.671   3.453   1.671
  595SOL     OW 4138   1.111   3.057   1.100
  595SOL    HW1 4139   1.071   3.101   1.181
  595SOL    HW2 4140   1.070   3.094   1.017
  596SOL     OW 4141   1.638   2.961   1.079
  596SOL    HW1 4142   1.643   3.042   1.138
  596SOL    HW2 4143   1.552   2.963   1.028
  597SOL     OW 4144   0.915   1.951   1.402
  597SOL    HW1 4145   0.940   1.931   1.307
  597SOL    HW2 4146   0.987   2.007   1.444
  598SOL     OW 4147   0.980   2.978   1.719
  598SOL    HW1 4148   0.881   2.984   1.729
  598SOL    HW2 4149   1.003   2.898   1.663
  599SOL     OW 4150   0.705   2.912   0.368
  599SOL    HW1 4151   0.691   2.919   0.467
  599SOL    HW2 4152   0.789   2.861   0.350
  600SOL     OW 4153   0.410   2.675   1.251
  600SOL    HW1 4154   0.496   2.687   1.301
  600SOL    HW2 4155   0.368   2.588   1.278
  601SOL     OW 4156   1.274   2.248   1.262
  601SOL    HW1 4157   1.295   2.322   1.326
  601SOL    HW2 4158   1.185   2.265   1.219
  602SOL     OW 4159   0.064   3.426   1.331
  602SOL    HW1 4160   0.018   3.508   1.297
  602SOL    HW2 4161   0.162   3.445   1.340
  603SOL     OW 4162   0.367   2.962   0.501
  603SOL    HW1 4163   0.360   3.045   0.445
  603SOL    HW2 4164   0.371   2.882   0.441
  604SOL     OW 4165   1.272   3.307   1.142
  604SOL    HW1 4166   1.319   3.320   1.229
  604SOL    HW2 4167   1.206   3.233   1.151
  605SOL     OW 4168   1.582   2.501   0.472
  605SOL    HW1 4169   1.551   2.562   0.545
  605SOL    HW2 4170   1.632   2.553   0.403
  606SOL     OW 4171   0.402   2.613   1.598
  606SOL    HW1 4172   0.470   2.668   1.551
  606SOL    HW2 4173   0.442   2.525   1.625
  607SOL     OW 4174   1.587   2.641   1.670
  607SOL    HW1 4175   1.495   2.679   1.665
  607SOL    HW2 4176   1.647   2.688   1.605
  608SOL     OW 4177   1.013   1.967   1.770
  608SOL    HW1 4178   1.019   2.052   1.718
  608SOL    HW2 4179   1.045   1.891   1.713
  609SOL     OW 4180   0.573   2.732   1.029
  609SOL    HW1 4181   0.617   2.821   1.020
  609SOL    HW2 4182   0.510   2.732   1.106
  610SOL     OW 4183   1.360   2.724   1.045
  610SOL    HW1 4184   1.285   2.724   0.979
  610SOL    HW2 4185   1.397   2.632   1.054
  611SOL     OW 4186   0.037   3.172   1.282
  611SOL    HW1 4187   0.090   3.123   1.350
  611SOL    HW2 4188   0.059   3.270   1.287
  612SOL     OW 4189   1.728   2.797   1.854
  612SOL    HW1 4190   1.682   2.790   1.765
  612SOL    HW2 4191   1.666   2.841   1.920
  613SOL     OW 4192   0.307   1.925   0.618
  613SOL    HW1 4193   0.296   2.019   0.651
  613SOL    HW2 4194   0.302   1.862   0.695
  614SOL     OW 4195   1.622   2.229   0.374
  614SOL    HW1 4196   1.624   2.153   0.438
  614SOL    HW2 4197   1.574   2.306   0.414
  615SOL     OW 4198   1.023   2.628   0.966
  615SOL    HW1 4199   1.038   2.649   1.062
  615SOL    HW2 4200   0.993   2.533   0.957
  616SOL     OW 4201   0.980   3.435   1.700
  616SOL    HW1 4202   0.960   3.479   1.612
  616SOL    HW2 4203   1.019   3.344   1.684
  617SOL     OW 4204   1.859   3.380   1.605
  617SOL    HW1 4205   1.873   3.407   1.510
  617SOL    HW2 4206   1.942   3.402   1.658
  618SOL     OW 4207   0.350   2.760   1.804
  618SOL    HW1 4208   0.426   2.804   1.852
  618SOL    HW2 4209   0.385   2.713   1.722
  619SOL     OW 4210   1.540   2.136   0.125
  619SOL    HW1 4211   1.479   2.061   0.148
  619SOL    HW2 4212   1.562   2.188   0.208
  620SOL     OW 4213   1.068   3.195   0.849
  620SOL    HW1 4214   1.075   3.111   0.794
  620SOL    HW2 4215   1.130   3.264   0.813
  621SOL     OW 4216   1.138   2.242   1.678
  621SOL    HW1 4217   1.093   2.305   1.742
  621SOL    HW2 4218   1.231   2.273   1.661
  622SOL     OW 4219   1.160   2.069   1.477
  622SOL    HW1 4220   1.160   2.133   1.554
  622SOL    HW2 4221   1.188   2.117   1.394
  623SOL     OW 4222   0.008   3.188   0.200
  623SOL    HW1 4223  -0.085   3.209   0.169
  623SOL    HW2 4224   0.018   3.089   0.213
  624SOL     OW 4225   1.002   2.658   1.238
  624SOL    HW1 4226   1.043   2.626   1.324
  624SOL    HW2 4227   0.906   2.631   1.235
  625SOL     OW 4228   0.040   2.406   1.114
  625SOL    HW1 4229   0.125   2.373   1.073
  625SOL    HW2 4230   0.053   2.421   1.212
  626SOL     OW 4231   0.189   2.382   1.722
  626SOL    HW1 4232   0.248   2.342   1.652
  626SOL    HW2 4233   0.131   2.453   1.681
  627SOL     OW 4234   1.369   2.812   1.660
  627SOL    HW1 4235   1.408   2.901   1.680
  627SOL    HW2 4236   1.379   2.792   1.563
  628SOL     OW 4237   0.815   2.434   0.325
  628SOL    HW1 4238   0.822   2.345   0.279
  628SOL    HW2 4239   0.721   2.468   0.317
  629SOL     OW 4240   1.657   2.466   1.206
  629SOL    HW1 4241   1.619   2.397   1.268
  629SOL    HW2 4242   1.739   2.430   1.162
  630SOL     OW 4243   0.252   3.426   1.744
  630SOL    HW1 4244   0.222   3.483   1.820
  630SOL    HW2 4245   0.245   3.329   1.770
  631SOL     OW 4246   0.671   2.326   1.269
  631SOL    HW1 4247   0.637   2.237   1.239
  631SOL    HW2 4248   0.697   2.380   1.189
  632SOL     OW 4249   0.930   3.540   1.465
  632SOL    HW1 4250   0.906   3.522   1.370
  632SOL    HW2 4251   0.960   3.634   1.475
  633SOL     OW 4252   0.159   2.999   1.466
  633SOL    HW1 4253   0.181   2.938   1.542
  633SOL    HW2 4254   0.169   2.950   1.380
  634SOL     OW 4255   1.347   2.921   1.234
  634SOL    HW1 4256   1.371   2.858   1.160
  634SOL    HW2 4257   1.257   2.961   1.216
  635SOL     OW 4258   1.252   3.593   1.128
  635SOL    HW1 4259   1.336   3.598   1.074
  635SOL    HW2 4260   1.229   3.497   1.146
  636SOL     OW 4261   0.083   3.120   1.022
  636SOL    HW1 4262   0.078   3.119   1.122
  636SOL    HW2 4263   0.000   3.079   0.984
  637SOL     OW 4264   0.688   3.524   1.716
  637SOL    HW1 4265   0.632   3.605   1.725
  637SOL    HW2 4266   0.740   3.528   1.630
  638SOL     OW 4267   0.903   1.948   0.133
  638SOL    HW1 4268   0.954   1.949   0.047
  638SOL    HW2 4269   0.959   1.906   0.204
  639SOL     OW 4270   1.726   1.997   0.523
  639SOL    HW1 4271   1.799   1.980   0.456
  639SOL    HW2 4272   1.695   1.910   0.561
  640SOL     OW 4273   0.130   3.656   1.851
  640SOL    HW1 4274   0.089   3.582   1.904
  640SOL    HW2 4275   0.194   3.707   1.909
  641SOL     OW 4276   0.830   3.135   1.422
  641SOL    HW1 4277   0.825   3.168   1.517
  641SOL    HW2 4278   0.744   3.154   1.376
  642SOL     OW 4279   0.672   3.478   0.154
  642SOL    HW1 4280   0.681   3.488   0.055
  642SOL    HW2 4281   0.632   3.389   0.175
  643SOL     OW 4282   1.841   2.037   0.963
  643SOL    HW1 4283   1.880   1.952   0.927
  643SOL    HW2 4284   1.743   2.039   0.944
  644SOL     OW 4285   0.263   2.188   0.720
  644SOL    HW1 4286   0.184   2.239   0.686
  644SOL    HW2 4287   0.254   2.173   0.818
  645SOL     OW 4288   1.194   3.474   0.031
  645SOL    HW1 4289   1.200   3.381   0.068
  645SOL    HW2 4290   1.135   3.474  -0.049
  646SOL     OW 4291   0.822   2.864   1.372
  646SOL    HW1 4292   0.862   2.863   1.280
  646SOL    HW2 4293   0.832   2.956   1.412
  647SOL     OW 4294   0.916   2.772   0.291
  647SOL    HW1 4295   0.979   2.810   0.223
  647SOL    HW2 4296   0.956   2.689   0.330
  648SOL     OW 4297   1.504   3.469   0.044
  648SOL    HW1 4298   1.412   3.506   0.051
  648SOL    HW2 4299   1.542   3.489  -0.046
  649SOL     OW 4300   0.372   3.150   1.490
  649SOL    HW1 4301   0.359   3.243   1.456
  649SOL    HW2 4302   0.288   3.098   1.477
  650SOL     OW 4303   1.614   3.154   1.289
  650SOL    HW1 4304   1.674   3.157   1.369
  650SOL    HW2 4305   1.539   3.218   1.302
  651SOL     OW 4306   1.039   2.960   0.696
  651SOL    HW1 4307   0.969   2.913   0.750
  651SOL    HW2 4308   1.098   2.892   0.653
  652SOL     OW 4309   1.014   2.098   0.971
  652SOL    HW1 4310   1.006   2.062   0.878
  652SOL    HW2 4311   1.012   2.022   1.036
  653SOL     OW 4312   0.590   3.349   0.491
  653SOL    HW1 4313   0.632   3.291   0.421
  653SOL    HW2 4314   0.546   3.428   0.447
  654SOL     OW 4315   1.709   2.247   1.381
  654SOL    HW1 4316   1.782   2.316   1.385
  654SOL    HW2 4317   1.737   2.172   1.322
  655SOL     OW 4318   0.255   3.210   0.290
  655SOL    HW1 4319   0.159   3.211   0.263
  655SOL    HW2 4320   0.267   3.263   0.374
  656SOL     OW 4321   0.105   2.875   1.726
  656SOL    HW1 4322   0.028   2.842   1.780
  656SOL    HW2 4323   0.190   2.845   1.768
  657SOL     OW 4324   0.672   2.065   1.489
  657SOL    HW1 4325   0.762   2.049   1.449
  657SOL    HW2 4326   0.680   2.070   1.588
  658SOL     OW 4327   1.440   2.718   1.398
  658SOL    HW1 4328   1.383   2.770   1.335
  658SOL    HW2 4329   1.536   2.730   1.374
  659SOL     OW 4330   1.183   3.197   0.119
  659SOL    HW1 4331   1.084   3.186   0.121
  659SOL    HW2 4332   1.217   3.212   0.212
  660SOL     OW 4333   0.613   2.704   1.431
  660SOL    HW1 4334   0.669   2.785   1.414
  660SOL    HW2 4335   0.672   2.624   1.434
  661SOL     OW 4336   1.493   3.629   0.959
  661SOL    HW1 4337   1.526   3.693   0.890
  661SOL    HW2 4338   1.559   3.623   1.034
  662SOL     OW 4339   0.716   2.427   1.708
  662SOL    HW1 4340   0.735   2.492   1.782
  662SOL    HW2 4341   0.776   2.347   1.717
  663SOL     OW 4342   1.450   3.082   1.633
  663SOL    HW1 4343   1.441   3.072   1.732
  663SOL    HW2 4344   1.546   3.075   1.607
  664SOL     OW 4345   0.390   3.603   1.560
  664SOL    HW1 4346   0.299   3.644   1.558
  664SOL    HW2 4347   0.383   3.509   1.592
  665SOL     OW 4348   1.674   2.745   1.254
  665SOL    HW1 4349   1.647   2.656   1.217
  665SOL    HW2 4350   1.675   2.813   1.181
  666SOL     OW 4351   0.594   2.607   0.652
  666SOL    HW1 4352   0.644   2.692   0.633
  666SOL    HW2 4353   0.506   2.609   0.604
  667SOL     OW 4354   1.777   2.204   1.642
  667SOL    HW1 4355   1.760   2.235   1.548
  667SOL    HW2 4356   1.693   2.167   1.680
  668SOL     OW 4357   1.730   2.796   1.517
  668SOL    HW1 4358   1.768   2.887   1.532
  668SOL    HW2 4359   1.722   2.779   1.418
  669SOL     OW 4360   0.859   3.236   0.016
  669SOL    HW1 4361   0.813   3.251   0.104
  669SOL    HW2 4362   0.903   3.321  -0.014
  670SOL     OW 4363   0.661   3.652   0.953
  670SOL    HW1 4364   0.615   3.740   0.940
  670SOL    HW2 4365   0.760   3.664   0.946
  671SOL     OW 4366   0.859   2.818   0.861
  671SOL    HW1 4367   0.913   2.749   0.909
  671SOL    HW2 4368   0.827   2.887   0.927
  672SOL     OW 4369   0.221   3.176   1.844
  672SOL    HW1 4370   0.156   3.103   1.823
  672SOL    HW2 4371   0.225   3.190   1.942
  673SOL     OW 4372   0.079   3.102   0.653
  673SOL    HW1 4373   0.078   3.055   0.741
  673SOL    HW2 4374   0.161   3.074   0.602
  674SOL     OW 4375   0.672   3.253   1.624
  674SOL    HW1 4376   0.594   3.203   1.662
  674SOL    HW2 4377   0.669   3.348   1.655
  675SOL     OW 4378   1.824   2.054   1.227
  675SOL    HW1 4379   1.820   1.964   1.271
  675SOL    HW2 4380   1.827   2.043   1.128
  676SOL     OW 4381   0.428   2.286   0.520
  676SOL    HW1 4382   0.458   2.214   0.458
  676SOL    HW2 4383   0.389   2.246   0.603
  677SOL     OW 4384   0.317   2.409   1.280
  677SOL    HW1 4385   0.355   2.350   1.352
  677SOL    HW2 4386   0.357   2.383   1.192
  678SOL     OW 4387   1.424   2.076   1.112
  678SOL    HW1 4388   1.476   2.011   1.167
  678SOL    HW2 4389   1.375   2.139   1.173
  679SOL     OW 4390   1.001   1.896   1.154
  679SOL    HW1 4391   0.938   1.824   1.123
  679SOL    HW2 4392   1.094   1.860   1.154
  680SOL     OW 4393   0.770   3.192   0.301
  680SOL    HW1 4394   0.724   3.105   0.318
  680SOL    HW2 4395   0.861   3.189   0.342
  681SOL     OW 4396   1.352   1.914   0.168
  681SOL    HW1 4397   1.387   1.873   0.084
  681SOL    HW2 4398   1.262   1.876   0.188
  682SOL     OW 4399   1.593   2.083   0.882
  682SOL    HW1 4400   1.509   2.082   0.936
  682SOL    HW2 4401   1.595   2.166   0.826
  683SOL     OW 4402   0.039   2.939   0.300
  683SOL    HW1 4403   0.138   2.928   0.291
  683SOL    HW2 4404  -0.001   2.853   0.332
  684SOL     OW 4405   0.230   2.490   1.975
  684SOL    HW1 4406   0.137   2.488   2.012
  684SOL    HW2 4407   0.231   2.451   1.883
  685SOL     OW 4408   0.019   2.230   2.509
  685SOL    HW1 4409  -0.063   2.273   2.548
  685SOL    HW2 4410  -0.009   2.157   2.446
  686SOL     OW 4411   0.569   3.137   3.027
  686SOL    HW1 4412   0.476   3.130   2.990
  686SOL    HW2 4413   0.580   3.226   3.071
  687SOL     OW 4414   1.135   2.565   2.579
  687SOL    HW1 4415   1.192   2.643   2.554
  687SOL    HW2 4416   1.075   2.591   2.655
  688SOL     OW 4417   0.768   3.006   2.885
  688SOL    HW1 4418   0.690   3.023   2.945
  688SOL    HW2 4419   0.802   3.093   2.849
  689SOL     OW 4420   0.850   2.660   3.685
  689SOL    HW1 4421   0.846   2.736   3.750
  689SOL    HW2 4422   0.872   2.696   3.594
  690SOL     OW 4423   0.685   2.874   2.527
  690SOL    HW1 4424   0.754   2.858   2.597
  690SOL    HW2 4425   0.612   2.931   2.565
  691SOL     OW 4426   0.686   3.023   3.665
  691SOL    HW1 4427   0.746   3.102   3.679
  691SOL    HW2 4428   0.600   3.054   3.624
  692SOL     OW 4429   0.335   3.297   2.923
  692SOL    HW1 4430   0.257   3.266   2.870
  692SOL    HW2 4431   0.393   3.355   2.866
  693SOL     OW 4432   1.460   3.367   3.201
  693SOL    HW1 4433   1.484   3.461   3.227
  693SOL    HW2 4434   1.444   3.313   3.283
  694SOL     OW 4435   0.438   2.254   3.361
  694SOL    HW1 4436   0.520   2.198   3.370
  694SOL    HW2 4437   0.357   2.196   3.365
  695SOL     OW 4438   1.603   2.309   2.599
  695SOL    HW1 4439   1.529   2.355   2.549
  695SOL    HW2 4440   1.654   2.377   2.652
  696SOL     OW 4441   0.231   3.575   2.345
  696SOL    HW1 4442   0.265   3.652   2.399
  696SOL    HW2 4443   0.275   3.575   2.255
  697SOL     OW 4444   1.127   3.203   3.552
  697SOL    HW1 4445   1.174   3.203   3.640
  697SOL    HW2 4446   1.079   3.116   3.541
  698SOL     OW 4447   0.230   3.296   2.400
  698SOL    HW1 4448   0.204   3.392   2.400
  698SOL    HW2 4449   0.159   3.242   2.445
  699SOL     OW 4450   0.240   2.953   2.748
  699SOL    HW1 4451   0.254   2.869   2.800
  699SOL    HW2 4452   0.185   3.017   2.803
  700SOL     OW 4453   0.620   3.648   3.301
  700SOL    HW1 4454   0.528   3.631   3.336
  700SOL    HW2 4455   0.648   3.740   3.327
  701SOL     OW 4456   0.606   2.826   1.985
  701SOL    HW1 4457   0.613   2.910   1.931
  701SOL    HW2 4458   0.652   2.839   2.073
  702SOL     OW 4459   0.122   2.505   2.425
  702SOL    HW1 4460   0.077   2.417   2.442
  702SOL    HW2 4461   0.121   2.559   2.509
  703SOL     OW 4462   1.842   3.629   2.221
  703SOL    HW1 4463   1.896   3.600   2.301
  703SOL    HW2 4464   1.872   3.719   2.192
  704SOL     OW 4465   0.027   3.458   1.979
  704SOL    HW1 4466   0.008   3.362   2.000
  704SOL    HW2 4467  -0.006   3.516   2.054
  705SOL     OW 4468   1.689   2.784   2.474
  705SOL    HW1 4469   1.784   2.755   2.482
  705SOL    HW2 4470   1.681   2.849   2.399
  706SOL     OW 4471   0.113   2.599   3.459
  706SOL    HW1 4472   0.201   2.586   3.504
  706SOL    HW2 4473   0.100   2.696   3.437
  707SOL     OW 4474   0.613   3.227   2.588
  707SOL    HW1 4475   0.564   3.140   2.597
  707SOL    HW2 4476   0.590   3.270   2.501
  708SOL     OW 4477   1.293   3.090   3.285
  708SOL    HW1 4478   1.330   3.017   3.227
  708SOL    HW2 4479   1.345   3.095   3.370
  709SOL     OW 4480   0.809   1.866   2.364
  709SOL    HW1 4481   0.849   1.957   2.355
  709SOL    HW2 4482   0.709   1.874   2.370
  710SOL     OW 4483   1.187   3.654   3.478
  710SOL    HW1 4484   1.211   3.714   3.402
  710SOL    HW2 4485   1.194   3.559   3.448
  711SOL     OW 4486   1.667   3.576   2.434
  711SOL    HW1 4487   1.626   3.553   2.346
  711SOL    HW2 4488   1.649   3.502   2.499
  712SOL     OW 4489   0.598   2.591   2.132
  712SOL    HW1 4490   0.622   2.660   2.064
  712SOL    HW2 4491   0.520   2.624   2.186
  713SOL     OW 4492   1.281   2.207   2.806
  713SOL    HW1 4493   1.195   2.157   2.793
  713SOL    HW2 4494   1.343   2.153   2.862
  714SOL     OW 4495   1.394   2.331   3.536
  714SOL    HW1 4496   1.374   2.374   3.624
  714SOL    HW2 4497   1.472   2.269   3.545
  715SOL     OW 4498   0.973   2.752   3.434
  715SOL    HW1 4499   1.019   2.668   3.405
  715SOL    HW2 4500   0.917   2.786   3.359
  716SOL     OW 4501   0.991   2.272   3.104
  716SOL    HW1 4502   0.914   2.306   3.158
  716SOL    HW2 4503   0.957   2.221   3.025
  717SOL     OW 4504   1.041   2.563   2.291
  717SOL    HW1 4505   1.067   2.559   2.387
  717SOL    HW2 4506   0.956   2.512   2.277
  718SOL     OW 4507   0.076   2.673   2.651
  718SOL    HW1 4508   0.175   2.661   2.660
  718SOL    HW2 4509   0.052   2.768   2.672
  719SOL     OW 4510   0.130   3.683   3.433
  719SOL    HW1 4511   0.120   3.668   3.532
  719SOL    HW2 4512   0.044   3.719   3.397
  720SOL     OW 4513   0.865   2.210   2.057
  720SOL    HW1 4514   0.924   2.273   2.008
  720SOL    HW2 4515   0.884   2.116   2.028
  721SOL     OW 4516   1.719   2.447   3.693
  721SOL    HW1 4517   1.693   2.536   3.657
  721SOL    HW2 4518   1.717   2.379   3.620
  722SOL     OW 4519   1.362   3.006   2.407
  722SOL    HW1 4520   1.445   2.977   2.359
  722SOL    HW2 4521   1.313   3.073   2.351
  723SOL     OW 4522   0.550   2.058   2.747
  723SOL    HW1 4523   0.545   2.053   2.847
  723SOL    HW2 4524   0.552   2.154   2.718
  724SOL     OW 4525   1.008   3.318   2.339
  724SOL    HW1 4526   0.962   3.390   2.287
  724SOL    HW2 4527   1.004   3.338   2.437
  725SOL     OW 4528   0.351   3.663   2.715
  725SOL    HW1 4529   0.401   3.577   2.721
  725SOL    HW2 4530   0.416   3.740   2.712
  726SOL     OW 4531   1.795   2.928   2.735
  726SOL    HW1 4532   1.733   2.913   2.659
  726SOL    HW2 4533   1.743   2.939   2.820
  727SOL     OW 4534   1.227   3.412   3.368
  727SOL    HW1 4535   1.233   3.335   3.432
  727SOL    HW2 4536   1.175   3.386   3.288
  728SOL     OW 4537   0.321   2.805   2.104
  728SOL    HW1 4538   0.403   2.844   2.062
  728SOL    HW2 4539   0.294   2.723   2.055
  729SOL     OW 4540   0.461   3.128   3.589
  729SOL    HW1 4541   0.411   3.129   3.503
  729SOL    HW2 4542   0.398   3.110   3.665
  730SOL     OW 4543   1.111   3.638   2.099
  730SOL    HW1 4544   1.051   3.576   2.149
  730SOL    HW2 4545   1.142   3.594   2.014
  731SOL     OW 4546   1.632   3.239   1.943
  731SOL    HW1 4547   1.600   3.333   1.933
  731SOL    HW2 4548   1.556   3.176   1.931
  732SOL     OW 4549   0.464   3.605   2.185
  732SOL    HW1 4550   0.497   3.644   2.271
  732SOL    HW2 4551   0.540   3.598   2.120
  733SOL     OW 4552   1.400   1.969   2.288
  733SOL    HW1 4553   1.376   1.932   2.198
  733SOL    HW2 4554   1.499   1.985   2.292
  734SOL     OW 4555   0.249   3.647   3.103
  734SOL    HW1 4556   0.306   3.582   3.153
  734SOL    HW2 4557   0.233   3.614   3.010
  735SOL     OW 4558   0.940   3.560   2.766
  735SOL    HW1 4559   1.020   3.503   2.787
  735SOL    HW2 4560   0.891   3.520   2.689
  736SOL     OW 4561   0.382   2.562   2.342
  736SOL    HW1 4562   0.427   2.472   2.339
  736SOL    HW2 4563   0.288   2.551   2.375
  737SOL     OW 4564   1.547   2.084   3.591
  737SOL    HW1 4565   1.542   2.121   3.683
  737SOL    HW2 4566   1.475   2.015   3.579
  738SOL     OW 4567   0.614   1.984   1.979
  738SOL    HW1 4568   0.712   1.962   1.986
  738SOL    HW2 4569   0.583   1.967   1.886
  739SOL     OW 4570   0.781   2.126   3.611
  739SOL    HW1 4571   0.848   2.065   3.654
  739SOL    HW2 4572   0.708   2.145   3.676
  740SOL     OW 4573   0.888   3.376   3.057
  740SOL    HW1 4574   0.865   3.351   2.963
  740SOL    HW2 4575   0.949   3.307   3.096
  741SOL     OW 4576   0.803   3.264   2.786
  741SOL    HW1 4577   0.893   3.278   2.744
  741SOL    HW2 4578   0.732   3.266   2.715
  742SOL     OW 4579   0.922   2.365   2.761
  742SOL    HW1 4580   0.897   2.356   2.665
  742SOL    HW2 4581   0.970   2.283   2.792
  743SOL     OW 4582   0.539   1.926   2.374
  743SOL    HW1 4583   0.458   1.927   2.432
  743SOL    HW2 4584   0.542   2.009   2.319
  744SOL     OW 4585   0.935   2.098   2.342
  744SOL    HW1 4586   0.887   2.139   2.264
  744SOL    HW2 4587   1.034   2.096   2.323
  745SOL     OW 4588   0.459   3.014   2.603
  745SOL    HW1 4589   0.388   2.987   2.668
  745SOL    HW2 4590   0.433   2.986   2.510
  746SOL     OW 4591   1.032   2.411   1.878
  746SOL    HW1 4592   0.991   2.493   1.839
  746SOL    HW2 4593   1.096   2.437   1.951
  747SOL     OW 4594   0.866   2.316   2.504
  747SOL    HW1 4595   0.834   2.388   2.442
  747SOL    HW2 4596   0.890   2.235   2.451
  748SOL     OW 4597   1.017   1.901   2.615
  748SOL    HW1 4598   0.945   1.906   2.546
  748SOL    HW2 4599   0.993   1.832   2.684
  749SOL     OW 4600   1.466   2.452   2.854
  749SOL    HW1 4601   1.436   2.357   2.861
  749SOL    HW2 4602   1.539   2.468   2.920
  750SOL     OW 4603   0.488   3.247   2.036
  750SOL    HW1 4604   0.401   3.232   2.083
  750SOL    HW2 4605   0.471   3.273   1.941
  751SOL     OW 4606   0.527   2.118   2.190
  751SOL    HW1 4607   0.554   2.059   2.115
  751SOL    HW2 4608   0.527   2.213   2.159
  752SOL     OW 4609   1.754   3.085   3.450
  752SOL    HW1 4610   1.845   3.046   3.437
  752SOL    HW2 4611   1.762   3.181   3.474
  753SOL     OW 4612   1.592   3.491   3.487
  753SOL    HW1 4613   1.619   3.525   3.397
  753SOL    HW2 4614   1.671   3.453   3.533
  754SOL     OW 4615   1.638   2.961   2.941
  754SOL    HW1 4616   1.643   3.042   3.000
  754SOL    HW2 4617   1.552   2.963   2.890
  755SOL     OW 4618   0.980   2.978   3.581
  755SOL    HW1 4619   0.881   2.984   3.591
  755SOL    HW2 4620   1.003   2.898   3.525
  756SOL     OW 4621   0.705   2.912   2.230
  756SOL    HW1 4622   0.691   2.919   2.329
  756SOL    HW2 4623   0.789   2.861   2.212
  757SOL     OW 4624   1.274   2.248   3.124
  757SOL    HW1 4625   1.295   2.322   3.188
  757SOL    HW2 4626   1.185   2.265   3.081
  758SOL     OW 4627   0.064   3.426   3.193
  758SOL    HW1 4628   0.018   3.508   3.159
  758SOL    HW2 4629   0.162   3.445   3.202
  759SOL     OW 4630   0.367   2.962   2.363
  759SOL    HW1 4631   0.360   3.045   2.307
  759SOL    HW2 4632   0.371   2.882   2.303
  760SOL     OW 4633   0.566   2.399   2.727
  760SOL    HW1 4634   0.578   2.465   2.653
  760SOL    HW2 4635   0.612   2.433   2.810
  761SOL     OW 4636   1.252   3.210   2.250
  761SOL    HW1 4637   1.302   3.287   2.290
  761SOL    HW2 4638   1.157   3.212   2.282
  762SOL     OW 4639   0.354   3.372   3.191
  762SOL    HW1 4640   0.333   3.328   3.104
  762SOL    HW2 4641   0.451   3.398   3.194
  763SOL     OW 4642   0.402   2.613   3.460
  763SOL    HW1 4643   0.470   2.668   3.413
  763SOL    HW2 4644   0.442   2.525   3.487
  764SOL     OW 4645   1.587   2.641   3.532
  764SOL    HW1 4646   1.495   2.679   3.527
  764SOL    HW2 4647   1.647   2.688   3.467
  765SOL     OW 4648   0.504   1.912   3.602
  765SOL    HW1 4649   0.462   1.855   3.532
  765SOL    HW2 4650   0.438   1.981   3.634
  766SOL     OW 4651   1.360   2.724   2.907
  766SOL    HW1 4652   1.285   2.724   2.841
  766SOL    HW2 4653   1.397   2.632   2.916
  767SOL     OW 4654   1.209   2.387   2.137
  767SOL    HW1 4655   1.222   2.303   2.191
  767SOL    HW2 4656   1.180   2.461   2.197
  768SOL     OW 4657   0.307   2.075   3.093
  768SOL    HW1 4658   0.284   2.112   3.183
  768SOL    HW2 4659   0.277   1.980   3.087
  769SOL     OW 4660   0.037   3.172   3.144
  769SOL    HW1 4661   0.090   3.123   3.212
  769SOL    HW2 4662   0.059   3.270   3.149
  770SOL     OW 4663   1.728   2.797   3.716
  770SOL    HW1 4664   1.682   2.790   3.627
  770SOL    HW2 4665   1.666   2.841   3.782
  771SOL     OW 4666   0.307   1.925   2.480
  771SOL    HW1 4667   0.296   2.019   2.513
  771SOL    HW2 4668   0.302   1.862   2.557
  772SOL     OW 4669   1.023   2.628   2.828
  772SOL    HW1 4670   1.038   2.649   2.924
  772SOL    HW2 4671   0.993   2.533   2.819
  773SOL     OW 4672   0.980   3.435   3.562
  773SOL    HW1 4673   0.960   3.479   3.474
  773SOL    HW2 4674   1.019   3.344   3.546
  774SOL     OW 4675   1.859   3.380   3.467
  774SOL    HW1 4676   1.873   3.407   3.372
  774SOL    HW2 4677   1.942   3.402   3.520
  775SOL     OW 4678   0.350   2.760   3.666
  775SOL    HW1 4679   0.426   2.804   3.714
  775SOL    HW2 4680   0.385   2.713   3.584
  776SOL     OW 4681   0.319   2.672   2.811
  776SOL    HW1 4682   0.412   2.708   2.816
  776SOL    HW2 4683   0.313   2.587   2.863
  777SOL     OW 4684   0.008   3.188   2.062
  777SOL    HW1 4685  -0.085   3.209   2.031
  777SOL    HW2 4686   0.018   3.089   2.075
  778SOL     OW 4687   0.088   3.663   2.789
  778SOL    HW1 4688   0.046   3.577   2.762
  778SOL    HW2 4689   0.182   3.666   2.755
  779SOL     OW 4690   0.504   3.430   2.772
  779SOL    HW1 4691   0.570   3.504   2.781
  779SOL    HW2 4692   0.548   3.351   2.730
  780SOL     OW 4693   0.189   2.382   3.584
  780SOL    HW1 4694   0.248   2.342   3.514
  780SOL    HW2 4695   0.131   2.453   3.543
  781SOL     OW 4696   1.369   2.812   3.522
  781SOL    HW1 4697   1.408   2.901   3.542
  781SOL    HW2 4698   1.379   2.792   3.425
  782SOL     OW 4699   0.815   2.434   2.187
  782SOL    HW1 4700   0.822   2.345   2.141
  782SOL    HW2 4701   0.721   2.468   2.179
  783SOL     OW 4702   1.657   2.466   3.068
  783SOL    HW1 4703   1.619   2.397   3.130
  783SOL    HW2 4704   1.739   2.430   3.024
  784SOL     OW 4705   0.252   3.426   3.606
  784SOL    HW1 4706   0.222   3.483   3.682
  784SOL    HW2 4707   0.245   3.329   3.632
  785SOL     OW 4708   0.930   3.540   3.327
  785SOL    HW1 4709   0.906   3.522   3.232
  785SOL    HW2 4710   0.960   3.634   3.337
  786SOL     OW 4711   0.473   2.362   2.053
  786SOL    HW1 4712   0.534   2.442   2.057
  786SOL    HW2 4713   0.378   2.393   2.060
  787SOL     OW 4714   0.159   2.999   3.328
  787SOL    HW1 4715   0.181   2.938   3.404
  787SOL    HW2 4716   0.169   2.950   3.242
  788SOL     OW 4717   1.347   2.921   3.096
  788SOL    HW1 4718   1.371   2.858   3.022
  788SOL    HW2 4719   1.257   2.961   3.078
  789SOL     OW 4720   1.759   3.609   3.016
  789SOL    HW1 4721   1.820   3.639   2.943
  789SOL    HW2 4722   1.721   3.520   2.994
  790SOL     OW 4723   0.083   3.120   2.884
  790SOL    HW1 4724   0.078   3.119   2.984
  790SOL    HW2 4725   0.000   3.079   2.846
  791SOL     OW 4726   0.688   3.524   3.578
  791SOL    HW1 4727   0.632   3.605   3.587
  791SOL    HW2 4728   0.740   3.528   3.492
  792SOL     OW 4729   0.130   3.656   3.713
  792SOL    HW1 4730   0.089   3.582   3.766
  792SOL    HW2 4731   0.194   3.707   3.771
  793SOL     OW 4732   0.830   3.135   3.284
  793SOL    HW1 4733   0.825   3.168   3.379
  793SOL    HW2 4734   0.744   3.154   3.238
  794SOL     OW 4735   0.672   3.478   2.016
  794SOL    HW1 4736   0.681   3.488   1.917
  794SOL    HW2 4737   0.632   3.389   2.037
  795SOL     OW 4738   1.841   2.037   2.825
  795SOL    HW1 4739   1.880   1.952   2.789
  795SOL    HW2 4740   1.743   2.039   2.806
  796SOL     OW 4741   0.263   2.188   2.582
  796SOL    HW1 4742   0.184   2.239   2.548
  796SOL    HW2 4743   0.254   2.173   2.680
  797SOL     OW 4744   1.194   3.474   1.893
  797SOL    HW1 4745   1.200   3.381   1.930
  797SOL    HW2 4746   1.135   3.474   1.813
  798SOL     OW 4747   0.822   2.864   3.234
  798SOL    HW1 4748   0.862   2.863   3.142
  798SOL    HW2 4749   0.832   2.956   3.274
  799SOL     OW 4750   0.916   2.772   2.153
  799SOL    HW1 4751   0.979   2.810   2.085
  799SOL    HW2 4752   0.956   2.689   2.192
  800SOL     OW 4753   1.504   3.469   1.906
  800SOL    HW1 4754   1.412   3.506   1.913
  800SOL    HW2 4755   1.542   3.489   1.816
  801SOL     OW 4756   0.372   3.150   3.352
  801SOL    HW1 4757   0.359   3.243   3.318
  801SOL    HW2 4758   0.288   3.098   3.339
  802SOL     OW 4759   1.614   3.154   3.151
  802SOL    HW1 4760   1.674   3.157   3.231
  802SOL    HW2 4761   1.539   3.218   3.164
  803SOL     OW 4762   1.039   2.960   2.558
  803SOL    HW1 4763   0.969   2.913   2.612
  803SOL    HW2 4764   1.098   2.892   2.515
  804SOL     OW 4765   1.014   2.098   2.833
  804SOL    HW1 4766   1.006   2.062   2.740
  804SOL    HW2 4767   1.012   2.022   2.898
  805SOL     OW 4768   0.590   3.349   2.353
  805SOL    HW1 4769   0.632   3.291   2.283
  805SOL    HW2 4770   0.546   3.428   2.309
  806SOL     OW 4771   1.709   2.247   3.243
  806SOL    HW1 4772   1.782   2.316   3.247
  806SOL    HW2 4773   1.737   2.172   3.184
  807SOL     OW 4774   0.255   3.210   2.152
  807SOL    HW1 4775   0.159   3.211   2.125
  807SOL    HW2 4776   0.267   3.263   2.236
  808SOL     OW 4777   0.105   2.875   3.588
  808SOL    HW1 4778   0.028   2.842   3.642
  808SOL    HW2 4779   0.190   2.845   3.630
  809SOL     OW 4780   0.672   2.065   3.351
  809SOL    HW1 4781   0.762   2.049   3.311
  809SOL    HW2 4782   0.680   2.070   3.450
  810SOL     OW 4783   0.075   2.207   1.895
  810SOL    HW1 4784  -0.017   2.179   1.866
  810SOL    HW2 4785   0.106   2.284   1.839
  811SOL     OW 4786   1.440   2.718   3.260
  811SOL    HW1 4787   1.383   2.770   3.197
  811SOL    HW2 4788   1.536   2.730   3.236
  812SOL     OW 4789   0.072   2.028   2.180
  812SOL    HW1 4790   0.055   2.111   2.126
  812SOL    HW2 4791   0.162   1.991   2.158
  813SOL     OW 4792   1.183   3.197   1.981
  813SOL    HW1 4793   1.084   3.186   1.983
  813SOL    HW2 4794   1.217   3.212   2.074
  814SOL     OW 4795   0.613   2.704   3.293
  814SOL    HW1 4796   0.669   2.785   3.276
  814SOL    HW2 4797   0.672   2.624   3.296
  815SOL     OW 4798   1.493   3.629   2.821
  815SOL    HW1 4799   1.526   3.693   2.752
  815SOL    HW2 4800   1.559   3.623   2.896
  816SOL     OW 4801   0.716   2.427   3.570
  816SOL    HW1 4802   0.735   2.492   3.644
  816SOL    HW2 4803   0.776   2.347   3.579
  817SOL     OW 4804   1.450   3.082   3.495
  817SOL    HW1 4805   1.441   3.072   3.594
  817SOL    HW2 4806   1.546   3.075   3.469
  818SOL     OW 4807   0.390   3.603   3.422
  818SOL    HW1 4808   0.299   3.644   3.420
  818SOL    HW2 4809   0.383   3.509   3.454
  819SOL     OW 4810   1.674   2.745   3.116
  819SOL    HW1 4811   1.647   2.656   3.079
  819SOL    HW2 4812   1.675   2.813   3.043
  820SOL     OW 4813   1.225   2.187   2.311
  820SOL    HW1 4814   1.290   2.113   2.300
  820SOL    HW2 4815   1.245   2.237   2.395
  821SOL     OW 4816   0.594   2.607   2.514
  821SOL    HW1 4817   0.644   2.692   2.495
  821SOL    HW2 4818   0.506   2.609   2.466
  822SOL     OW 4819   1.777   2.204   3.504
  822SOL    HW1 4820   1.760   2.235   3.410
  822SOL    HW2 4821   1.693   2.167   3.542
  823SOL     OW 4822   1.730   2.796   3.379
  823SOL    HW1 4823   1.768   2.887   3.394
  823SOL    HW2 4824   1.722   2.779   3.280
  824SOL     OW 4825   0.859   3.236   1.878
  824SOL    HW1 4826   0.813   3.251   1.966
  824SOL    HW2 4827   0.903   3.321   1.848
  825SOL     OW 4828   0.661   3.652   2.815
  825SOL    HW1 4829   0.615   3.740   2.802
  825SOL    HW2 4830   0.760   3.664   2.808
  826SOL     OW 4831   0.859   2.818   2.723
  826SOL    HW1 4832   0.913   2.749   2.771
  826SOL    HW2 4833   0.827   2.887   2.789
  827SOL     OW 4834   1.861   3.431   2.713
  827SOL    HW1 4835   1.790   3.419   2.643
  827SOL    HW2 4836   1.862   3.352   2.773
  828SOL     OW 4837   0.221   3.176   3.706
  828SOL    HW1 4838   0.156   3.103   3.685
  828SOL    HW2 4839   0.225   3.190   3.804
  829SOL     OW 4840   0.079   3.102   2.515
  829SOL    HW1 4841   0.078   3.055   2.603
  829SOL    HW2 4842   0.161   3.074   2.464
  830SOL     OW 4843   0.672   3.253   3.486
  830SOL    HW1 4844   0.594   3.203   3.524
  830SOL    HW2 4845   0.669   3.348   3.517
  831SOL     OW 4846   1.824   2.054   3.089
  831SOL    HW1 4847   1.820   1.964   3.133
  831SOL    HW2 4848   1.827   2.043   2.990
  832SOL     OW 4849   0.428   2.286   2.382
  832SOL    HW1 4850   0.458   2.214   2.320
  832SOL    HW2 4851   0.389   2.246   2.465
  833SOL     OW 4852   0.812   3.448   2.549
  833SOL    HW1 4853   0.844   3.458   2.455
  833SOL    HW2 4854   0.733   3.386   2.551
  834SOL     OW 4855   1.424   2.076   2.974
  834SOL    HW1 4856   1.476   2.011   3.029
  834SOL    HW2 4857   1.375   2.139   3.035
  835SOL     OW 4858   1.001   1.896   3.016
  835SOL    HW1 4859   0.938   1.824   2.985
  835SOL    HW2 4860   1.094   1.860   3.016
  836SOL     OW 4861   0.770   3.192   2.163
  836SOL    HW1 4862   0.724   3.105   2.180
  836SOL    HW2 4863   0.861   3.189   2.204
  837SOL     OW 4864   0.618   3.429   3.146
  837SOL    HW1 4865   0.613   3.511   3.203
  837SOL    HW2 4866   0.707   3.426   3.101
  838SOL     OW 4867   1.352   1.914   2.030
  838SOL    HW1 4868   1.387   1.873   1.946
  838SOL    HW2 4869   1.262   1.876   2.050
  839SOL     OW 4870   1.300   2.315   2.553
  839SOL    HW1 4871   1.241   2.395   2.557
  839SOL    HW2 4872   1.315   2.280   2.646
  840SOL     OW 4873   1.593   2.083   2.744
  840SOL    HW1 4874   1.509   2.082   2.798
  840SOL    HW2 4875   1.595   2.166   2.688
  841SOL     OW 4876   0.039   2.939   2.162
  841SOL    HW1 4877   0.138   2.928   2.153
  841SOL    HW2 4878  -0.001   2.853   2.194
  842SOL     OW 4879   0.875   3.508   2.199
  842SOL    HW1 4880   0.798   3.473   2.145
  842SOL    HW2 4881   0.843   3.579   2.261
  843SOL     OW 4882   0.230   2.490   3.837
  843SOL    HW1 4883   0.137   2.488   3.874
  843SOL    HW2 4884   0.231   2.451   3.745
  844SOL     OW 4885   0.225   2.137   4.720
  844SOL    HW1 4886   0.260   2.120   4.812
  844SOL    HW2 4887   0.137   2.092   4.708
  845SOL     OW 4888   0.019   2.230   4.371
  845SOL    HW1 4889  -0.063   2.273   4.410
  845SOL    HW2 4890  -0.009   2.157   4.308
  846SOL     OW 4891   0.569   3.137   4.889
  846SOL    HW1 4892   0.476   3.130   4.852
  846SOL    HW2 4893   0.580   3.226   4.933
  847SOL     OW 4894   1.555   3.373   4.427
  847SOL    HW1 4895   1.498   3.357   4.508
  847SOL    HW2 4896   1.496   3.383   4.347
  848SOL     OW 4897   1.135   2.565   4.441
  848SOL    HW1 4898   1.192   2.643   4.416
  848SOL    HW2 4899   1.075   2.591   4.517
  849SOL     OW 4900   0.768   3.006   4.747
  849SOL    HW1 4901   0.690   3.023   4.807
  849SOL    HW2 4902   0.802   3.093   4.711
  850SOL     OW 4903   0.685   2.874   4.389
  850SOL    HW1 4904   0.754   2.858   4.459
  850SOL    HW2 4905   0.612   2.931   4.427
  851SOL     OW 4906   0.240   2.953   4.610
  851SOL    HW1 4907   0.254   2.869   4.662
  851SOL    HW2 4908   0.185   3.017   4.665
  852SOL     OW 4909   0.606   2.826   3.847
  852SOL    HW1 4910   0.613   2.910   3.793
  852SOL    HW2 4911   0.652   2.839   3.935
  853SOL     OW 4912   0.122   2.505   4.287
  853SOL    HW1 4913   0.077   2.417   4.304
  853SOL    HW2 4914   0.121   2.559   4.371
  854SOL     OW 4915   1.842   3.629   4.083
  854SOL    HW1 4916   1.896   3.600   4.163
  854SOL    HW2 4917   1.872   3.719   4.054
  855SOL     OW 4918   1.689   2.784   4.336
  855SOL    HW1 4919   1.784   2.755   4.344
  855SOL    HW2 4920   1.681   2.849   4.261
  856SOL     OW 4921   1.641   2.970   4.156
  856SOL    HW1 4922   1.727   2.972   4.104
  856SOL    HW2 4923   1.655   3.017   4.244
  857SOL     OW 4924   0.197   2.838   4.988
  857SOL    HW1 4925   0.286   2.793   4.974
  857SOL    HW2 4926   0.124   2.773   4.969
  858SOL     OW 4927   1.525   2.861   3.914
  858SOL    HW1 4928   1.462   2.785   3.927
  858SOL    HW2 4929   1.573   2.879   4.000
  859SOL     OW 4930   1.466   3.279   4.677
  859SOL    HW1 4931   1.407   3.285   4.757
  859SOL    HW2 4932   1.451   3.191   4.631
  860SOL     OW 4933   1.667   3.576   4.296
  860SOL    HW1 4934   1.626   3.553   4.208
  860SOL    HW2 4935   1.649   3.502   4.361
  861SOL     OW 4936   0.598   2.591   3.994
  861SOL    HW1 4937   0.622   2.660   3.926
  861SOL    HW2 4938   0.520   2.624   4.048
  862SOL     OW 4939   1.281   2.207   4.668
  862SOL    HW1 4940   1.195   2.157   4.655
  862SOL    HW2 4941   1.343   2.153   4.724
  863SOL     OW 4942   1.576   3.524   4.031
  863SOL    HW1 4943   1.665   3.570   4.034
  863SOL    HW2 4944   1.555   3.500   3.936
  864SOL     OW 4945   0.991   2.272   4.966
  864SOL    HW1 4946   0.914   2.306   5.020
  864SOL    HW2 4947   0.957   2.221   4.887
  865SOL     OW 4948   1.041   2.563   4.153
  865SOL    HW1 4949   1.067   2.559   4.249
  865SOL    HW2 4950   0.956   2.512   4.139
  866SOL     OW 4951   0.076   2.673   4.513
  866SOL    HW1 4952   0.175   2.661   4.522
  866SOL    HW2 4953   0.052   2.768   4.534
  867SOL     OW 4954   0.130   3.683   5.295
  867SOL    HW1 4955   0.120   3.668   5.394
  867SOL    HW2 4956   0.044   3.719   5.259
  868SOL     OW 4957   0.865   2.210   3.919
  868SOL    HW1 4958   0.924   2.273   3.870
  868SOL    HW2 4959   0.884   2.116   3.890
  869SOL     OW 4960   1.362   3.006   4.269
  869SOL    HW1 4961   1.445   2.977   4.221
  869SOL    HW2 4962   1.313   3.073   4.213
  870SOL     OW 4963   0.550   2.058   4.609
  870SOL    HW1 4964   0.545   2.053   4.709
  870SOL    HW2 4965   0.552   2.154   4.580
  871SOL     OW 4966   1.008   3.318   4.201
  871SOL    HW1 4967   0.962   3.390   4.149
  871SOL    HW2 4968   1.004   3.338   4.299
  872SOL     OW 4969   1.458   2.597   4.452
  872SOL    HW1 4970   1.453   2.532   4.527
  872SOL    HW2 4971   1.538   2.656   4.465
  873SOL     OW 4972   1.111   3.638   3.961
  873SOL    HW1 4973   1.051   3.576   4.011
  873SOL    HW2 4974   1.142   3.594   3.876
  874SOL     OW 4975   1.632   3.239   3.805
  874SOL    HW1 4976   1.600   3.333   3.795
  874SOL    HW2 4977   1.556   3.176   3.793
  875SOL     OW 4978   1.400   1.969   4.150
  875SOL    HW1 4979   1.376   1.932   4.060
  875SOL    HW2 4980   1.499   1.985   4.154
  876SOL     OW 4981   0.940   3.560   4.628
  876SOL    HW1 4982   1.020   3.503   4.649
  876SOL    HW2 4983   0.891   3.520   4.551
  877SOL     OW 4984   0.382   2.562   4.204
  877SOL    HW1 4985   0.427   2.472   4.201
  877SOL    HW2 4986   0.288   2.551   4.237
  878SOL     OW 4987   0.614   1.984   3.841
  878SOL    HW1 4988   0.712   1.962   3.848
  878SOL    HW2 4989   0.583   1.967   3.748
  879SOL     OW 4990   0.803   3.264   4.648
  879SOL    HW1 4991   0.893   3.278   4.606
  879SOL    HW2 4992   0.732   3.266   4.577
  880SOL     OW 4993   0.922   2.365   4.623
  880SOL    HW1 4994   0.897   2.356   4.527
  880SOL    HW2 4995   0.970   2.283   4.654
  881SOL     OW 4996   0.539   1.926   4.236
  881SOL    HW1 4997   0.458   1.927   4.294
  881SOL    HW2 4998   0.542   2.009   4.181
  882SOL     OW 4999   1.434   3.050   3.765
  882SOL    HW1 5000   1.466   2.974   3.822
  882SOL    HW2 5001   1.342   3.077   3.795
  883SOL     OW 5002   0.935   2.098   4.204
  883SOL    HW1 5003   0.887   2.139   4.126
  883SOL    HW2 5004   1.034   2.096   4.185
  884SOL     OW 5005   0.459   3.014   4.465
  884SOL    HW1 5006   0.388   2.987   4.530
  884SOL    HW2 5007   0.433   2.986   4.372
  885SOL     OW 5008   1.032   2.411   3.740
  885SOL    HW1 5009   0.991   2.493   3.701
  885SOL    HW2 5010   1.096   2.437   3.813
  886SOL     OW 5011   0.866   2.316   4.366
  886SOL    HW1 5012   0.834   2.388   4.304
  886SOL    HW2 5013   0.890   2.235   4.313
  887SOL     OW 5014   1.429   3.035   4.591
  887SOL    HW1 5015   1.374   2.951   4.584
  887SOL    HW2 5016   1.455   3.064   4.499
  888SOL     OW 5017   1.466   2.452   4.716
  888SOL    HW1 5018   1.436   2.357   4.723
  888SOL    HW2 5019   1.539   2.468   4.782
  889SOL     OW 5020   1.857   2.695   4.101
  889SOL    HW1 5021   1.899   2.631   4.165
  889SOL    HW2 5022   1.819   2.644   4.023
  890SOL     OW 5023   1.664   3.142   4.381
  890SOL    HW1 5024   1.763   3.150   4.395
  890SOL    HW2 5025   1.619   3.226   4.412
  891SOL     OW 5026   1.390   2.437   3.802
  891SOL    HW1 5027   1.336   2.416   3.883
  891SOL    HW2 5028   1.481   2.396   3.811
  892SOL     OW 5029   0.527   2.118   4.052
  892SOL    HW1 5030   0.554   2.059   3.977
  892SOL    HW2 5031   0.527   2.213   4.021
  893SOL     OW 5032   1.638   2.961   4.803
  893SOL    HW1 5033   1.643   3.042   4.862
  893SOL    HW2 5034   1.552   2.963   4.752
  894SOL     OW 5035   0.705   2.912   4.092
  894SOL    HW1 5036   0.691   2.919   4.191
  894SOL    HW2 5037   0.789   2.861   4.074
  895SOL     OW 5038   0.410   2.675   4.975
  895SOL    HW1 5039   0.496   2.687   5.025
  895SOL    HW2 5040   0.368   2.588   5.002
  896SOL     OW 5041   0.566   2.399   4.589
  896SOL    HW1 5042   0.578   2.465   4.515
  896SOL    HW2 5043   0.612   2.433   4.672
  897SOL     OW 5044   1.252   3.210   4.112
  897SOL    HW1 5045   1.302   3.287   4.152
  897SOL    HW2 5046   1.157   3.212   4.144
  898SOL     OW 5047   1.272   3.307   4.866
  898SOL    HW1 5048   1.319   3.320   4.953
  898SOL    HW2 5049   1.206   3.233   4.875
  899SOL     OW 5050   0.354   3.372   5.053
  899SOL    HW1 5051   0.333   3.328   4.966
  899SOL    HW2 5052   0.451   3.398   5.056
  900SOL     OW 5053   0.573   2.732   4.753
  900SOL    HW1 5054   0.617   2.821   4.744
  900SOL    HW2 5055   0.510   2.732   4.830
  901SOL     OW 5056   1.209   2.387   3.999
  901SOL    HW1 5057   1.222   2.303   4.053
  901SOL    HW2 5058   1.180   2.461   4.059
  902SOL     OW 5059   0.037   3.172   5.006
  902SOL    HW1 5060   0.090   3.123   5.074
  902SOL    HW2 5061   0.059   3.270   5.011
  903SOL     OW 5062   0.732   2.496   4.788
  903SOL    HW1 5063   0.791   2.470   4.712
  903SOL    HW2 5064   0.704   2.592   4.777
  904SOL     OW 5065   0.307   1.925   4.342
  904SOL    HW1 5066   0.296   2.019   4.375
  904SOL    HW2 5067   0.302   1.862   4.419
  905SOL     OW 5068   1.023   2.628   4.690
  905SOL    HW1 5069   1.038   2.649   4.786
  905SOL    HW2 5070   0.993   2.533   4.681
  906SOL     OW 5071   1.540   2.136   3.849
  906SOL    HW1 5072   1.479   2.061   3.872
  906SOL    HW2 5073   1.562   2.188   3.932
  907SOL     OW 5074   1.303   2.700   3.766
  907SOL    HW1 5075   1.337   2.607   3.781
  907SOL    HW2 5076   1.321   2.727   3.671
  908SOL     OW 5077   1.068   3.195   4.573
  908SOL    HW1 5078   1.075   3.111   4.518
  908SOL    HW2 5079   1.130   3.264   4.537
  909SOL     OW 5080   0.319   2.672   4.673
  909SOL    HW1 5081   0.412   2.708   4.678
  909SOL    HW2 5082   0.313   2.587   4.725
  910SOL     OW 5083   0.339   2.371   4.730
  910SOL    HW1 5084   0.287   2.288   4.713
  910SOL    HW2 5085   0.416   2.376   4.666
  911SOL     OW 5086   1.160   2.069   5.201
  911SOL    HW1 5087   1.160   2.133   5.278
  911SOL    HW2 5088   1.188   2.117   5.118
  912SOL     OW 5089   0.504   3.430   4.634
  912SOL    HW1 5090   0.570   3.504   4.643
  912SOL    HW2 5091   0.548   3.351   4.592
  913SOL     OW 5092   1.002   2.658   4.962
  913SOL    HW1 5093   1.043   2.626   5.048
  913SOL    HW2 5094   0.906   2.631   4.959
  914SOL     OW 5095   0.040   2.406   4.838
  914SOL    HW1 5096   0.125   2.373   4.797
  914SOL    HW2 5097   0.053   2.421   4.936
  915SOL     OW 5098   0.815   2.434   4.049
  915SOL    HW1 5099   0.822   2.345   4.003
  915SOL    HW2 5100   0.721   2.468   4.041
  916SOL     OW 5101   0.671   2.326   4.993
  916SOL    HW1 5102   0.637   2.237   4.963
  916SOL    HW2 5103   0.697   2.380   4.913
  917SOL     OW 5104   0.473   2.362   3.915
  917SOL    HW1 5105   0.534   2.442   3.919
  917SOL    HW2 5106   0.378   2.393   3.922
  918SOL     OW 5107   1.302   2.717   4.033
  918SOL    HW1 5108   1.216   2.686   4.075
  918SOL    HW2 5109   1.298   2.703   3.934
  919SOL     OW 5110   1.252   3.593   4.852
  919SOL    HW1 5111   1.336   3.598   4.798
  919SOL    HW2 5112   1.229   3.497   4.870
  920SOL     OW 5113   0.083   3.120   4.746
  920SOL    HW1 5114   0.078   3.119   4.846
  920SOL    HW2 5115   0.000   3.079   4.708
  921SOL     OW 5116   1.726   1.997   4.247
  921SOL    HW1 5117   1.799   1.980   4.180
  921SOL    HW2 5118   1.695   1.910   4.285
  922SOL     OW 5119   1.280   2.789   4.396
  922SOL    HW1 5120   1.340   2.708   4.398
  922SOL    HW2 5121   1.320   2.858   4.336
  923SOL     OW 5122   0.672   3.478   3.878
  923SOL    HW1 5123   0.681   3.488   3.779
  923SOL    HW2 5124   0.632   3.389   3.899
  924SOL     OW 5125   1.650   3.582   5.118
  924SOL    HW1 5126   1.703   3.592   5.034
  924SOL    HW2 5127   1.623   3.672   5.152
  925SOL     OW 5128   0.263   2.188   4.444
  925SOL    HW1 5129   0.184   2.239   4.410
  925SOL    HW2 5130   0.254   2.173   4.542
  926SOL     OW 5131   1.194   3.474   3.755
  926SOL    HW1 5132   1.200   3.381   3.792
  926SOL    HW2 5133   1.135   3.474   3.675
  927SOL     OW 5134   0.822   2.864   5.096
  927SOL    HW1 5135   0.862   2.863   5.004
  927SOL    HW2 5136   0.832   2.956   5.136
  928SOL     OW 5137   0.916   2.772   4.015
  928SOL    HW1 5138   0.979   2.810   3.947
  928SOL    HW2 5139   0.956   2.689   4.054
  929SOL     OW 5140   1.504   3.469   3.768
  929SOL    HW1 5141   1.412   3.506   3.775
  929SOL    HW2 5142   1.542   3.489   3.678
  930SOL     OW 5143   1.039   2.960   4.420
  930SOL    HW1 5144   0.969   2.913   4.474
  930SOL    HW2 5145   1.098   2.892   4.377
  931SOL     OW 5146   1.014   2.098   4.695
  931SOL    HW1 5147   1.006   2.062   4.602
  931SOL    HW2 5148   1.012   2.022   4.760
  932SOL     OW 5149   1.709   2.247   5.105
  932SOL    HW1 5150   1.782   2.316   5.109
  932SOL    HW2 5151   1.737   2.172   5.046
  933SOL     OW 5152   1.183   3.197   3.843
  933SOL    HW1 5153   1.084   3.186   3.845
  933SOL    HW2 5154   1.217   3.212   3.936
  934SOL     OW 5155   1.493   3.629   4.683
  934SOL    HW1 5156   1.526   3.693   4.614
  934SOL    HW2 5157   1.559   3.623   4.758
  935SOL     OW 5158   1.674   2.745   4.978
  935SOL    HW1 5159   1.647   2.656   4.941
  935SOL    HW2 5160   1.675   2.813   4.905
  936SOL     OW 5161   1.225   2.187   4.173
  936SOL    HW1 5162   1.290   2.113   4.162
  936SOL    HW2 5163   1.245   2.237   4.257
  937SOL     OW 5164   0.594   2.607   4.376
  937SOL    HW1 5165   0.644   2.692   4.357
  937SOL    HW2 5166   0.506   2.609   4.328
  938SOL     OW 5167   0.859   3.236   3.740
  938SOL    HW1 5168   0.813   3.251   3.828
  938SOL    HW2 5169   0.903   3.321   3.710
  939SOL     OW 5170   0.859   2.818   4.585
  939SOL    HW1 5171   0.913   2.749   4.633
  939SOL    HW2 5172   0.827   2.887   4.651
  940SOL     OW 5173   1.083   2.846   3.811
  940SOL    HW1 5174   1.060   2.899   3.729
  940SOL    HW2 5175   1.164   2.790   3.792
  941SOL     OW 5176   0.079   3.102   4.377
  941SOL    HW1 5177   0.078   3.055   4.465
  941SOL    HW2 5178   0.161   3.074   4.326
  942SOL     OW 5179   1.824   2.054   4.951
  942SOL    HW1 5180   1.820   1.964   4.995
  942SOL    HW2 5181   1.827   2.043   4.852
  943SOL     OW 5182   0.428   2.286   4.244
  943SOL    HW1 5183   0.458   2.214   4.182
  943SOL    HW2 5184   0.389   2.246   4.327
  944SOL     OW 5185   1.424   2.076   4.836
  944SOL    HW1 5186   1.476   2.011   4.891
  944SOL    HW2 5187   1.375   2.139   4.897
  945SOL     OW 5188   1.001   1.896   4.878
  945SOL    HW1 5189   0.938   1.824   4.847
  945SOL    HW2 5190   1.094   1.860   4.878
  946SOL     OW 5191   0.770   3.192   4.025
  946SOL    HW1 5192   0.724   3.105   4.042
  946SOL    HW2 5193   0.861   3.189   4.066
  947SOL     OW 5194   1.352   1.914   3.892
  947SOL    HW1 5195   1.387   1.873   3.808
  947SOL    HW2 5196   1.262   1.876   3.912
  948SOL     OW 5197   1.300   2.315   4.415
  948SOL    HW1 5198   1.241   2.395   4.419
  948SOL    HW2 5199   1.315   2.280   4.508
  949SOL     OW 5200   0.039   2.939   4.024
  949SOL    HW1 5201   0.138   2.928   4.015
  949SOL    HW2 5202  -0.001   2.853   4.056
  950SOL     OW 5203   0.875   3.508   4.061
  950SOL    HW1 5204   0.798   3.473   4.007
  950SOL    HW2 5205   0.843   3.579   4.123
  951SOL     OW 5206   0.230   4.352   0.113
  951SOL    HW1 5207   0.137   4.350   0.150
  951SOL    HW2 5208   0.231   4.313   0.021
  952SOL     OW 5209   0.225   3.999   0.996
  952SOL    HW1 5210   0.260   3.982   1.088
  952SOL    HW2 5211   0.137   3.954   0.984
  953SOL     OW 5212   0.019   4.092   0.647
  953SOL    HW1 5213  -0.063   4.135   0.686
  953SOL    HW2 5214  -0.009   4.019   0.584
  954SOL     OW 5215   0.569   4.999   1.165
  954SOL    HW1 5216   0.476   4.992   1.128
  954SOL    HW2 5217   0.580   5.088   1.209
  955SOL     OW 5218   1.555   5.235   0.703
  955SOL    HW1 5219   1.498   5.219   0.784
  955SOL    HW2 5220   1.496   5.245   0.623
  956SOL     OW 5221   1.755   4.331   0.231
  956SOL    HW1 5222   1.743   4.318   0.132
  956SOL    HW2 5223   1.725   4.250   0.280
  957SOL     OW 5224   0.768   4.868   1.023
  957SOL    HW1 5225   0.690   4.885   1.083
  957SOL    HW2 5226   0.802   4.955   0.987
  958SOL     OW 5227   0.685   4.736   0.665
  958SOL    HW1 5228   0.754   4.720   0.735
  958SOL    HW2 5229   0.612   4.793   0.703
  959SOL     OW 5230   0.686   4.885   1.803
  959SOL    HW1 5231   0.746   4.964   1.817
  959SOL    HW2 5232   0.600   4.916   1.762
  960SOL     OW 5233   0.335   5.159   1.061
  960SOL    HW1 5234   0.257   5.128   1.008
  960SOL    HW2 5235   0.393   5.217   1.004
  961SOL     OW 5236   0.240   4.815   0.886
  961SOL    HW1 5237   0.254   4.731   0.938
  961SOL    HW2 5238   0.185   4.879   0.941
  962SOL     OW 5239   0.606   4.688   0.123
  962SOL    HW1 5240   0.613   4.772   0.069
  962SOL    HW2 5241   0.652   4.701   0.211
  963SOL     OW 5242   1.594   3.838   1.480
  963SOL    HW1 5243   1.576   3.905   1.408
  963SOL    HW2 5244   1.591   3.884   1.569
  964SOL     OW 5245   0.122   4.367   0.563
  964SOL    HW1 5246   0.077   4.279   0.580
  964SOL    HW2 5247   0.121   4.421   0.647
  965SOL     OW 5248   1.641   4.832   0.432
  965SOL    HW1 5249   1.727   4.834   0.380
  965SOL    HW2 5250   1.655   4.879   0.520
  966SOL     OW 5251   0.113   4.461   1.597
  966SOL    HW1 5252   0.201   4.448   1.642
  966SOL    HW2 5253   0.100   4.558   1.575
  967SOL     OW 5254   1.293   4.952   1.423
  967SOL    HW1 5255   1.330   4.879   1.365
  967SOL    HW2 5256   1.345   4.957   1.508
  968SOL     OW 5257   1.525   4.723   0.190
  968SOL    HW1 5258   1.462   4.647   0.203
  968SOL    HW2 5259   1.573   4.741   0.276
  969SOL     OW 5260   0.317   3.975   1.801
  969SOL    HW1 5261   0.388   4.046   1.807
  969SOL    HW2 5262   0.229   4.014   1.829
  970SOL     OW 5263   1.466   5.141   0.953
  970SOL    HW1 5264   1.407   5.147   1.033
  970SOL    HW2 5265   1.451   5.053   0.907
  971SOL     OW 5266   0.598   4.453   0.270
  971SOL    HW1 5267   0.622   4.522   0.202
  971SOL    HW2 5268   0.520   4.486   0.324
  972SOL     OW 5269   0.973   4.614   1.572
  972SOL    HW1 5270   1.019   4.530   1.543
  972SOL    HW2 5271   0.917   4.648   1.497
  973SOL     OW 5272   1.041   4.425   0.429
  973SOL    HW1 5273   1.067   4.421   0.525
  973SOL    HW2 5274   0.956   4.374   0.415
  974SOL     OW 5275   0.076   4.535   0.789
  974SOL    HW1 5276   0.175   4.523   0.798
  974SOL    HW2 5277   0.052   4.630   0.810
  975SOL     OW 5278   0.865   4.072   0.195
  975SOL    HW1 5279   0.924   4.135   0.146
  975SOL    HW2 5280   0.884   3.978   0.166
  976SOL     OW 5281   1.719   4.309   1.831
  976SOL    HW1 5282   1.693   4.398   1.795
  976SOL    HW2 5283   1.717   4.241   1.758
  977SOL     OW 5284   1.362   4.868   0.545
  977SOL    HW1 5285   1.445   4.839   0.497
  977SOL    HW2 5286   1.313   4.935   0.489
  978SOL     OW 5287   0.550   3.920   0.885
  978SOL    HW1 5288   0.545   3.915   0.985
  978SOL    HW2 5289   0.552   4.016   0.856
  979SOL     OW 5290   0.321   4.667   0.242
  979SOL    HW1 5291   0.403   4.706   0.200
  979SOL    HW2 5292   0.294   4.585   0.193
  980SOL     OW 5293   0.202   4.009   1.498
  980SOL    HW1 5294   0.122   4.069   1.485
  980SOL    HW2 5295   0.192   3.960   1.584
  981SOL     OW 5296   1.632   5.101   0.081
  981SOL    HW1 5297   1.600   5.195   0.071
  981SOL    HW2 5298   1.556   5.038   0.069
  982SOL     OW 5299   1.400   3.831   0.426
  982SOL    HW1 5300   1.376   3.794   0.336
  982SOL    HW2 5301   1.499   3.847   0.430
  983SOL     OW 5302   0.382   4.424   0.480
  983SOL    HW1 5303   0.427   4.334   0.477
  983SOL    HW2 5304   0.288   4.413   0.513
  984SOL     OW 5305   0.781   3.988   1.749
  984SOL    HW1 5306   0.848   3.927   1.792
  984SOL    HW2 5307   0.708   4.007   1.814
  985SOL     OW 5308   1.434   4.912   0.041
  985SOL    HW1 5309   1.466   4.836   0.098
  985SOL    HW2 5310   1.342   4.939   0.071
  986SOL     OW 5311   0.297   3.759   0.171
  986SOL    HW1 5312   0.346   3.843   0.150
  986SOL    HW2 5313   0.359   3.694   0.216
  987SOL     OW 5314   1.227   5.294   0.793
  987SOL    HW1 5315   1.248   5.368   0.728
  987SOL    HW2 5316   1.295   5.294   0.866
  988SOL     OW 5317   0.459   4.876   0.741
  988SOL    HW1 5318   0.388   4.849   0.806
  988SOL    HW2 5319   0.433   4.848   0.648
  989SOL     OW 5320   1.032   4.273   0.016
  989SOL    HW1 5321   0.991   4.355  -0.023
  989SOL    HW2 5322   1.096   4.299   0.089
  990SOL     OW 5323   0.078   4.280   1.386
  990SOL    HW1 5324   0.170   4.279   1.345
  990SOL    HW2 5325   0.072   4.354   1.453
  991SOL     OW 5326   0.561   3.946   1.147
  991SOL    HW1 5327   0.599   3.862   1.184
  991SOL    HW2 5328   0.473   3.965   1.191
  992SOL     OW 5329   0.866   4.178   0.642
  992SOL    HW1 5330   0.834   4.250   0.580
  992SOL    HW2 5331   0.890   4.097   0.589
  993SOL     OW 5332   1.857   4.557   0.377
  993SOL    HW1 5333   1.899   4.493   0.441
  993SOL    HW2 5334   1.819   4.506   0.299
  994SOL     OW 5335   1.664   5.004   0.657
  994SOL    HW1 5336   1.763   5.012   0.671
  994SOL    HW2 5337   1.619   5.088   0.688
  995SOL     OW 5338   1.390   4.299   0.078
  995SOL    HW1 5339   1.336   4.278   0.159
  995SOL    HW2 5340   1.481   4.258   0.087
  996SOL     OW 5341   1.754   4.947   1.588
  996SOL    HW1 5342   1.845   4.908   1.575
  996SOL    HW2 5343   1.762   5.043   1.612
  997SOL     OW 5344   0.915   3.813   1.402
  997SOL    HW1 5345   0.940   3.793   1.307
  997SOL    HW2 5346   0.987   3.869   1.444
  998SOL     OW 5347   0.980   4.840   1.719
  998SOL    HW1 5348   0.881   4.846   1.729
  998SOL    HW2 5349   1.003   4.760   1.663
  999SOL     OW 5350   0.705   4.774   0.368
  999SOL    HW1 5351   0.691   4.781   0.467
  999SOL    HW2 5352   0.789   4.723   0.350
 1000SOL     OW 5353   0.410   4.537   1.251
 1000SOL    HW1 5354   0.496   4.549   1.301
 1000SOL    HW2 5355   0.368   4.450   1.278
 1001SOL     OW 5356   0.367   4.824   0.501
 1001SOL    HW1 5357   0.360   4.907   0.445
 1001SOL    HW2 5358   0.371   4.744   0.441
 1002SOL     OW 5359   0.566   4.261   0.865
 1002SOL    HW1 5360   0.578   4.327   0.791
 1002SOL    HW2 5361   0.612   4.295   0.948
 1003SOL     OW 5362   1.582   4.363   0.472
 1003SOL    HW1 5363   1.551   4.424   0.545
 1003SOL    HW2 5364   1.632   4.415   0.403
 1004SOL     OW 5365   1.013   3.829   1.770
 1004SOL    HW1 5366   1.019   3.914   1.718
 1004SOL    HW2 5367   1.045   3.753   1.713
 1005SOL     OW 5368   0.504   3.774   1.740
 1005SOL    HW1 5369   0.462   3.717   1.670
 1005SOL    HW2 5370   0.438   3.843   1.772
 1006SOL     OW 5371   0.573   4.594   1.029
 1006SOL    HW1 5372   0.617   4.683   1.020
 1006SOL    HW2 5373   0.510   4.594   1.106
 1007SOL     OW 5374   1.209   4.249   0.275
 1007SOL    HW1 5375   1.222   4.165   0.329
 1007SOL    HW2 5376   1.180   4.323   0.335
 1008SOL     OW 5377   0.307   3.937   1.231
 1008SOL    HW1 5378   0.284   3.974   1.321
 1008SOL    HW2 5379   0.277   3.842   1.225
 1009SOL     OW 5380   0.037   5.034   1.282
 1009SOL    HW1 5381   0.090   4.985   1.350
 1009SOL    HW2 5382   0.059   5.132   1.287
 1010SOL     OW 5383   0.732   4.358   1.064
 1010SOL    HW1 5384   0.791   4.332   0.988
 1010SOL    HW2 5385   0.704   4.454   1.053
 1011SOL     OW 5386   1.728   4.659   1.854
 1011SOL    HW1 5387   1.682   4.652   1.765
 1011SOL    HW2 5388   1.666   4.703   1.920
 1012SOL     OW 5389   1.622   4.091   0.374
 1012SOL    HW1 5390   1.624   4.015   0.438
 1012SOL    HW2 5391   1.574   4.168   0.414
 1013SOL     OW 5392   1.859   5.242   1.605
 1013SOL    HW1 5393   1.873   5.269   1.510
 1013SOL    HW2 5394   1.942   5.264   1.658
 1014SOL     OW 5395   0.350   4.622   1.804
 1014SOL    HW1 5396   0.426   4.666   1.852
 1014SOL    HW2 5397   0.385   4.575   1.722
 1015SOL     OW 5398   1.540   3.998   0.125
 1015SOL    HW1 5399   1.479   3.923   0.148
 1015SOL    HW2 5400   1.562   4.050   0.208
 1016SOL     OW 5401   1.303   4.562   0.042
 1016SOL    HW1 5402   1.337   4.469   0.057
 1016SOL    HW2 5403   1.321   4.589  -0.053
 1017SOL     OW 5404   0.319   4.534   0.949
 1017SOL    HW1 5405   0.412   4.570   0.954
 1017SOL    HW2 5406   0.313   4.449   1.001
 1018SOL     OW 5407   0.339   4.233   1.006
 1018SOL    HW1 5408   0.287   4.150   0.989
 1018SOL    HW2 5409   0.416   4.238   0.942
 1019SOL     OW 5410   1.160   3.931   1.477
 1019SOL    HW1 5411   1.160   3.995   1.554
 1019SOL    HW2 5412   1.188   3.979   1.394
 1020SOL     OW 5413   0.008   5.050   0.200
 1020SOL    HW1 5414  -0.085   5.071   0.169
 1020SOL    HW2 5415   0.018   4.951   0.213
 1021SOL     OW 5416   0.040   4.268   1.114
 1021SOL    HW1 5417   0.125   4.235   1.073
 1021SOL    HW2 5418   0.053   4.283   1.212
 1022SOL     OW 5419   0.189   4.244   1.722
 1022SOL    HW1 5420   0.248   4.204   1.652
 1022SOL    HW2 5421   0.131   4.315   1.681
 1023SOL     OW 5422   0.815   4.296   0.325
 1023SOL    HW1 5423   0.822   4.207   0.279
 1023SOL    HW2 5424   0.721   4.330   0.317
 1024SOL     OW 5425   1.657   4.328   1.206
 1024SOL    HW1 5426   1.619   4.259   1.268
 1024SOL    HW2 5427   1.739   4.292   1.162
 1025SOL     OW 5428   0.671   4.188   1.269
 1025SOL    HW1 5429   0.637   4.099   1.239
 1025SOL    HW2 5430   0.697   4.242   1.189
 1026SOL     OW 5431   0.473   4.224   0.191
 1026SOL    HW1 5432   0.534   4.304   0.195
 1026SOL    HW2 5433   0.378   4.255   0.198
 1027SOL     OW 5434   1.302   4.579   0.309
 1027SOL    HW1 5435   1.216   4.548   0.351
 1027SOL    HW2 5436   1.298   4.565   0.210
 1028SOL     OW 5437   0.083   4.982   1.022
 1028SOL    HW1 5438   0.078   4.981   1.122
 1028SOL    HW2 5439   0.000   4.941   0.984
 1029SOL     OW 5440   0.903   3.810   0.133
 1029SOL    HW1 5441   0.954   3.811   0.047
 1029SOL    HW2 5442   0.959   3.768   0.204
 1030SOL     OW 5443   1.726   3.859   0.523
 1030SOL    HW1 5444   1.799   3.842   0.456
 1030SOL    HW2 5445   1.695   3.772   0.561
 1031SOL     OW 5446   1.280   4.651   0.672
 1031SOL    HW1 5447   1.340   4.570   0.674
 1031SOL    HW2 5448   1.320   4.720   0.612
 1032SOL     OW 5449   0.830   4.997   1.422
 1032SOL    HW1 5450   0.825   5.030   1.517
 1032SOL    HW2 5451   0.744   5.016   1.376
 1033SOL     OW 5452   0.263   4.050   0.720
 1033SOL    HW1 5453   0.184   4.101   0.686
 1033SOL    HW2 5454   0.254   4.035   0.818
 1034SOL     OW 5455   0.822   4.726   1.372
 1034SOL    HW1 5456   0.862   4.725   1.280
 1034SOL    HW2 5457   0.832   4.818   1.412
 1035SOL     OW 5458   0.916   4.634   0.291
 1035SOL    HW1 5459   0.979   4.672   0.223
 1035SOL    HW2 5460   0.956   4.551   0.330
 1036SOL     OW 5461   0.372   5.012   1.490
 1036SOL    HW1 5462   0.359   5.105   1.456
 1036SOL    HW2 5463   0.288   4.960   1.477
 1037SOL     OW 5464   1.614   5.016   1.289
 1037SOL    HW1 5465   1.674   5.019   1.369
 1037SOL    HW2 5466   1.539   5.080   1.302
 1038SOL     OW 5467   1.039   4.822   0.696
 1038SOL    HW1 5468   0.969   4.775   0.750
 1038SOL    HW2 5469   1.098   4.754   0.653
 1039SOL     OW 5470   1.709   4.109   1.381
 1039SOL    HW1 5471   1.782   4.178   1.385
 1039SOL    HW2 5472   1.737   4.034   1.322
 1040SOL     OW 5473   0.672   3.927   1.489
 1040SOL    HW1 5474   0.762   3.911   1.449
 1040SOL    HW2 5475   0.680   3.932   1.588
 1041SOL     OW 5476   0.075   4.069   0.033
 1041SOL    HW1 5477  -0.017   4.041   0.004
 1041SOL    HW2 5478   0.106   4.146  -0.023
 1042SOL     OW 5479   1.440   4.580   1.398
 1042SOL    HW1 5480   1.383   4.632   1.335
 1042SOL    HW2 5481   1.536   4.592   1.374
 1043SOL     OW 5482   0.072   3.890   0.318
 1043SOL    HW1 5483   0.055   3.973   0.264
 1043SOL    HW2 5484   0.162   3.853   0.296
 1044SOL     OW 5485   0.613   4.566   1.431
 1044SOL    HW1 5486   0.669   4.647   1.414
 1044SOL    HW2 5487   0.672   4.486   1.434
 1045SOL     OW 5488   1.450   4.944   1.633
 1045SOL    HW1 5489   1.441   4.934   1.732
 1045SOL    HW2 5490   1.546   4.937   1.607
 1046SOL     OW 5491   1.674   4.607   1.254
 1046SOL    HW1 5492   1.647   4.518   1.217
 1046SOL    HW2 5493   1.675   4.675   1.181
 1047SOL     OW 5494   1.225   4.049   0.449
 1047SOL    HW1 5495   1.290   3.975   0.438
 1047SOL    HW2 5496   1.245   4.099   0.533
 1048SOL     OW 5497   0.594   4.469   0.652
 1048SOL    HW1 5498   0.644   4.554   0.633
 1048SOL    HW2 5499   0.506   4.471   0.604
 1049SOL     OW 5500   1.730   4.658   1.517
 1049SOL    HW1 5501   1.768   4.749   1.532
 1049SOL    HW2 5502   1.722   4.641   1.418
 1050SOL     OW 5503   0.859   4.680   0.861
 1050SOL    HW1 5504   0.913   4.611   0.909
 1050SOL    HW2 5505   0.827   4.749   0.927
 1051SOL     OW 5506   1.083   4.708   0.087
 1051SOL    HW1 5507   1.060   4.761   0.005
 1051SOL    HW2 5508   1.164   4.652   0.068
 1052SOL     OW 5509   0.079   4.964   0.653
 1052SOL    HW1 5510   0.078   4.917   0.741
 1052SOL    HW2 5511   0.161   4.936   0.602
 1053SOL     OW 5512   0.317   4.271   1.280
 1053SOL    HW1 5513   0.355   4.212   1.352
 1053SOL    HW2 5514   0.357   4.245   1.192
 1054SOL     OW 5515   1.001   3.758   1.154
 1054SOL    HW1 5516   0.938   3.686   1.123
 1054SOL    HW2 5517   1.094   3.722   1.154
 1055SOL     OW 5518   1.352   3.776   0.168
 1055SOL    HW1 5519   1.387   3.735   0.084
 1055SOL    HW2 5520   1.262   3.738   0.188
 1056SOL     OW 5521   1.300   4.177   0.691
 1056SOL    HW1 5522   1.241   4.257   0.695
 1056SOL    HW2 5523   1.315   4.142   0.784
 1057SOL     OW 5524   1.593   3.945   0.882
 1057SOL    HW1 5525   1.509   3.944   0.936
 1057SOL    HW2 5526   1.595   4.028   0.826
 1058SOL     OW 5527   0.039   4.801   0.300
 1058SOL    HW1 5528   0.138   4.790   0.291
 1058SOL    HW2 5529  -0.001   4.715   0.332
 1059SOL     OW 5530   0.225   3.999   2.858
 1059SOL    HW1 5531   0.260   3.982   2.950
 1059SOL    HW2 5532   0.137   3.954   2.846
 1060SOL     OW 5533   0.019   4.092   2.509
 1060SOL    HW1 5534  -0.063   4.135   2.548
 1060SOL    HW2 5535  -0.009   4.019   2.446
 1061SOL     OW 5536   0.569   4.999   3.027
 1061SOL    HW1 5537   0.476   4.992   2.990
 1061SOL    HW2 5538   0.580   5.088   3.071
 1062SOL     OW 5539   1.555   5.235   2.565
 1062SOL    HW1 5540   1.498   5.219   2.646
 1062SOL    HW2 5541   1.496   5.245   2.485
 1063SOL     OW 5542   1.135   4.427   2.579
 1063SOL    HW1 5543   1.192   4.505   2.554
 1063SOL    HW2 5544   1.075   4.453   2.655
 1064SOL     OW 5545   1.755   4.331   2.093
 1064SOL    HW1 5546   1.743   4.318   1.994
 1064SOL    HW2 5547   1.725   4.250   2.142
 1065SOL     OW 5548   0.768   4.868   2.885
 1065SOL    HW1 5549   0.690   4.885   2.945
 1065SOL    HW2 5550   0.802   4.955   2.849
 1066SOL     OW 5551   0.685   4.736   2.527
 1066SOL    HW1 5552   0.754   4.720   2.597
 1066SOL    HW2 5553   0.612   4.793   2.565
 1067SOL     OW 5554   0.686   4.885   3.665
 1067SOL    HW1 5555   0.746   4.964   3.679
 1067SOL    HW2 5556   0.600   4.916   3.624
 1068SOL     OW 5557   0.335   5.159   2.923
 1068SOL    HW1 5558   0.257   5.128   2.870
 1068SOL    HW2 5559   0.393   5.217   2.866
 1069SOL     OW 5560   0.438   4.116   3.361
 1069SOL    HW1 5561   0.520   4.060   3.370
 1069SOL    HW2 5562   0.357   4.058   3.365
 1070SOL     OW 5563   1.603   4.171   2.599
 1070SOL    HW1 5564   1.529   4.217   2.549
 1070SOL    HW2 5565   1.654   4.239   2.652
 1071SOL     OW 5566   0.240   4.815   2.748
 1071SOL    HW1 5567   0.254   4.731   2.800
 1071SOL    HW2 5568   0.185   4.879   2.803
 1072SOL     OW 5569   0.606   4.688   1.985
 1072SOL    HW1 5570   0.613   4.772   1.931
 1072SOL    HW2 5571   0.652   4.701   2.073
 1073SOL     OW 5572   0.122   4.367   2.425
 1073SOL    HW1 5573   0.077   4.279   2.442
 1073SOL    HW2 5574   0.121   4.421   2.509
 1074SOL     OW 5575   1.293   4.952   3.285
 1074SOL    HW1 5576   1.330   4.879   3.227
 1074SOL    HW2 5577   1.345   4.957   3.370
 1075SOL     OW 5578   0.809   3.728   2.364
 1075SOL    HW1 5579   0.849   3.819   2.355
 1075SOL    HW2 5580   0.709   3.736   2.370
 1076SOL     OW 5581   1.525   4.723   2.052
 1076SOL    HW1 5582   1.462   4.647   2.065
 1076SOL    HW2 5583   1.573   4.741   2.138
 1077SOL     OW 5584   0.317   3.975   3.663
 1077SOL    HW1 5585   0.388   4.046   3.669
 1077SOL    HW2 5586   0.229   4.014   3.691
 1078SOL     OW 5587   1.466   5.141   2.815
 1078SOL    HW1 5588   1.407   5.147   2.895
 1078SOL    HW2 5589   1.451   5.053   2.769
 1079SOL     OW 5590   0.598   4.453   2.132
 1079SOL    HW1 5591   0.622   4.522   2.064
 1079SOL    HW2 5592   0.520   4.486   2.186
 1080SOL     OW 5593   0.807   4.329   3.327
 1080SOL    HW1 5594   0.760   4.326   3.416
 1080SOL    HW2 5595   0.756   4.274   3.261
 1081SOL     OW 5596   0.973   4.614   3.434
 1081SOL    HW1 5597   1.019   4.530   3.405
 1081SOL    HW2 5598   0.917   4.648   3.359
 1082SOL     OW 5599   0.991   4.134   3.104
 1082SOL    HW1 5600   0.914   4.168   3.158
 1082SOL    HW2 5601   0.957   4.083   3.025
 1083SOL     OW 5602   1.041   4.425   2.291
 1083SOL    HW1 5603   1.067   4.421   2.387
 1083SOL    HW2 5604   0.956   4.374   2.277
 1084SOL     OW 5605   0.076   4.535   2.651
 1084SOL    HW1 5606   0.175   4.523   2.660
 1084SOL    HW2 5607   0.052   4.630   2.672
 1085SOL     OW 5608   1.719   4.309   3.693
 1085SOL    HW1 5609   1.693   4.398   3.657
 1085SOL    HW2 5610   1.717   4.241   3.620
 1086SOL     OW 5611   1.362   4.868   2.407
 1086SOL    HW1 5612   1.445   4.839   2.359
 1086SOL    HW2 5613   1.313   4.935   2.351
 1087SOL     OW 5614   0.550   3.920   2.747
 1087SOL    HW1 5615   0.545   3.915   2.847
 1087SOL    HW2 5616   0.552   4.016   2.718
 1088SOL     OW 5617   1.795   4.790   2.735
 1088SOL    HW1 5618   1.733   4.775   2.659
 1088SOL    HW2 5619   1.743   4.801   2.820
 1089SOL     OW 5620   0.321   4.667   2.104
 1089SOL    HW1 5621   0.403   4.706   2.062
 1089SOL    HW2 5622   0.294   4.585   2.055
 1090SOL     OW 5623   0.202   4.009   3.360
 1090SOL    HW1 5624   0.122   4.069   3.347
 1090SOL    HW2 5625   0.192   3.960   3.446
 1091SOL     OW 5626   1.632   5.101   1.943
 1091SOL    HW1 5627   1.600   5.195   1.933
 1091SOL    HW2 5628   1.556   5.038   1.931
 1092SOL     OW 5629   1.400   3.831   2.288
 1092SOL    HW1 5630   1.376   3.794   2.198
 1092SOL    HW2 5631   1.499   3.847   2.292
 1093SOL     OW 5632   0.382   4.424   2.342
 1093SOL    HW1 5633   0.427   4.334   2.339
 1093SOL    HW2 5634   0.288   4.413   2.375
 1094SOL     OW 5635   0.614   3.846   1.979
 1094SOL    HW1 5636   0.712   3.824   1.986
 1094SOL    HW2 5637   0.583   3.829   1.886
 1095SOL     OW 5638   0.781   3.988   3.611
 1095SOL    HW1 5639   0.848   3.927   3.654
 1095SOL    HW2 5640   0.708   4.007   3.676
 1096SOL     OW 5641   1.351   4.314   3.295
 1096SOL    HW1 5642   1.379   4.271   3.380
 1096SOL    HW2 5643   1.376   4.410   3.296
 1097SOL     OW 5644   0.803   5.126   2.786
 1097SOL    HW1 5645   0.893   5.140   2.744
 1097SOL    HW2 5646   0.732   5.128   2.715
 1098SOL     OW 5647   0.922   4.227   2.761
 1098SOL    HW1 5648   0.897   4.218   2.665
 1098SOL    HW2 5649   0.970   4.145   2.792
 1099SOL     OW 5650   0.539   3.788   2.374
 1099SOL    HW1 5651   0.458   3.789   2.432
 1099SOL    HW2 5652   0.542   3.871   2.319
 1100SOL     OW 5653   1.434   4.912   1.903
 1100SOL    HW1 5654   1.466   4.836   1.960
 1100SOL    HW2 5655   1.342   4.939   1.933
 1101SOL     OW 5656   0.297   3.759   2.033
 1101SOL    HW1 5657   0.346   3.843   2.012
 1101SOL    HW2 5658   0.359   3.694   2.078
 1102SOL     OW 5659   1.076   4.407   3.326
 1102SOL    HW1 5660   0.996   4.346   3.329
 1102SOL    HW2 5661   1.157   4.354   3.302
 1103SOL     OW 5662   0.459   4.876   2.603
 1103SOL    HW1 5663   0.388   4.849   2.668
 1103SOL    HW2 5664   0.433   4.848   2.510
 1104SOL     OW 5665   0.561   3.946   3.009
 1104SOL    HW1 5666   0.599   3.862   3.046
 1104SOL    HW2 5667   0.473   3.965   3.053
 1105SOL     OW 5668   0.866   4.178   2.504
 1105SOL    HW1 5669   0.834   4.250   2.442
 1105SOL    HW2 5670   0.890   4.097   2.451
 1106SOL     OW 5671   1.017   3.763   2.615
 1106SOL    HW1 5672   0.945   3.768   2.546
 1106SOL    HW2 5673   0.993   3.694   2.684
 1107SOL     OW 5674   1.429   4.897   2.729
 1107SOL    HW1 5675   1.374   4.813   2.722
 1107SOL    HW2 5676   1.455   4.926   2.637
 1108SOL     OW 5677   1.466   4.314   2.854
 1108SOL    HW1 5678   1.436   4.219   2.861
 1108SOL    HW2 5679   1.539   4.330   2.920
 1109SOL     OW 5680   1.664   5.004   2.519
 1109SOL    HW1 5681   1.763   5.012   2.533
 1109SOL    HW2 5682   1.619   5.088   2.550
 1110SOL     OW 5683   1.390   4.299   1.940
 1110SOL    HW1 5684   1.336   4.278   2.021
 1110SOL    HW2 5685   1.481   4.258   1.949
 1111SOL     OW 5686   0.527   3.980   2.190
 1111SOL    HW1 5687   0.554   3.921   2.115
 1111SOL    HW2 5688   0.527   4.075   2.159
 1112SOL     OW 5689   1.754   4.947   3.450
 1112SOL    HW1 5690   1.845   4.908   3.437
 1112SOL    HW2 5691   1.762   5.043   3.474
 1113SOL     OW 5692   1.638   4.823   2.941
 1113SOL    HW1 5693   1.643   4.904   3.000
 1113SOL    HW2 5694   1.552   4.825   2.890
 1114SOL     OW 5695   0.915   3.813   3.264
 1114SOL    HW1 5696   0.940   3.793   3.169
 1114SOL    HW2 5697   0.987   3.869   3.306
 1115SOL     OW 5698   0.980   4.840   3.581
 1115SOL    HW1 5699   0.881   4.846   3.591
 1115SOL    HW2 5700   1.003   4.760   3.525
 1116SOL     OW 5701   0.705   4.774   2.230
 1116SOL    HW1 5702   0.691   4.781   2.329
 1116SOL    HW2 5703   0.789   4.723   2.212
 1117SOL     OW 5704   1.274   4.110   3.124
 1117SOL    HW1 5705   1.295   4.184   3.188
 1117SOL    HW2 5706   1.185   4.127   3.081
 1118SOL     OW 5707   0.367   4.824   2.363
 1118SOL    HW1 5708   0.360   4.907   2.307
 1118SOL    HW2 5709   0.371   4.744   2.303
 1119SOL     OW 5710   0.566   4.261   2.727
 1119SOL    HW1 5711   0.578   4.327   2.653
 1119SOL    HW2 5712   0.612   4.295   2.810
 1120SOL     OW 5713   1.587   4.503   3.532
 1120SOL    HW1 5714   1.495   4.541   3.527
 1120SOL    HW2 5715   1.647   4.550   3.467
 1121SOL     OW 5716   1.013   3.829   3.632
 1121SOL    HW1 5717   1.019   3.914   3.580
 1121SOL    HW2 5718   1.045   3.753   3.575
 1122SOL     OW 5719   0.504   3.774   3.602
 1122SOL    HW1 5720   0.462   3.717   3.532
 1122SOL    HW2 5721   0.438   3.843   3.634
 1123SOL     OW 5722   0.573   4.594   2.891
 1123SOL    HW1 5723   0.617   4.683   2.882
 1123SOL    HW2 5724   0.510   4.594   2.968
 1124SOL     OW 5725   1.360   4.586   2.907
 1124SOL    HW1 5726   1.285   4.586   2.841
 1124SOL    HW2 5727   1.397   4.494   2.916
 1125SOL     OW 5728   1.209   4.249   2.137
 1125SOL    HW1 5729   1.222   4.165   2.191
 1125SOL    HW2 5730   1.180   4.323   2.197
 1126SOL     OW 5731   0.307   3.937   3.093
 1126SOL    HW1 5732   0.284   3.974   3.183
 1126SOL    HW2 5733   0.277   3.842   3.087
 1127SOL     OW 5734   0.037   5.034   3.144
 1127SOL    HW1 5735   0.090   4.985   3.212
 1127SOL    HW2 5736   0.059   5.132   3.149
 1128SOL     OW 5737   0.732   4.358   2.926
 1128SOL    HW1 5738   0.791   4.332   2.850
 1128SOL    HW2 5739   0.704   4.454   2.915
 1129SOL     OW 5740   1.728   4.659   3.716
 1129SOL    HW1 5741   1.682   4.652   3.627
 1129SOL    HW2 5742   1.666   4.703   3.782
 1130SOL     OW 5743   0.307   3.787   2.480
 1130SOL    HW1 5744   0.296   3.881   2.513
 1130SOL    HW2 5745   0.302   3.724   2.557
 1131SOL     OW 5746   1.023   4.490   2.828
 1131SOL    HW1 5747   1.038   4.511   2.924
 1131SOL    HW2 5748   0.993   4.395   2.819
 1132SOL     OW 5749   1.859   5.242   3.467
 1132SOL    HW1 5750   1.873   5.269   3.372
 1132SOL    HW2 5751   1.942   5.264   3.520
 1133SOL     OW 5752   1.540   3.998   1.987
 1133SOL    HW1 5753   1.479   3.923   2.010
 1133SOL    HW2 5754   1.562   4.050   2.070
 1134SOL     OW 5755   0.319   4.534   2.811
 1134SOL    HW1 5756   0.412   4.570   2.816
 1134SOL    HW2 5757   0.313   4.449   2.863
 1135SOL     OW 5758   0.339   4.233   2.868
 1135SOL    HW1 5759   0.287   4.150   2.851
 1135SOL    HW2 5760   0.416   4.238   2.804
 1136SOL     OW 5761   1.138   4.104   3.540
 1136SOL    HW1 5762   1.093   4.167   3.604
 1136SOL    HW2 5763   1.231   4.135   3.523
 1137SOL     OW 5764   1.160   3.931   3.339
 1137SOL    HW1 5765   1.160   3.995   3.416
 1137SOL    HW2 5766   1.188   3.979   3.256
 1138SOL     OW 5767   0.008   5.050   2.062
 1138SOL    HW1 5768  -0.085   5.071   2.031
 1138SOL    HW2 5769   0.018   4.951   2.075
 1139SOL     OW 5770   1.002   4.520   3.100
 1139SOL    HW1 5771   1.043   4.488   3.186
 1139SOL    HW2 5772   0.906   4.493   3.097
 1140SOL     OW 5773   0.040   4.268   2.976
 1140SOL    HW1 5774   0.125   4.235   2.935
 1140SOL    HW2 5775   0.053   4.283   3.074
 1141SOL     OW 5776   1.369   4.674   3.522
 1141SOL    HW1 5777   1.408   4.763   3.542
 1141SOL    HW2 5778   1.379   4.654   3.425
 1142SOL     OW 5779   1.657   4.328   3.068
 1142SOL    HW1 5780   1.619   4.259   3.130
 1142SOL    HW2 5781   1.739   4.292   3.024
 1143SOL     OW 5782   0.671   4.188   3.131
 1143SOL    HW1 5783   0.637   4.099   3.101
 1143SOL    HW2 5784   0.697   4.242   3.051
 1144SOL     OW 5785   0.159   4.861   3.328
 1144SOL    HW1 5786   0.181   4.800   3.404
 1144SOL    HW2 5787   0.169   4.812   3.242
 1145SOL     OW 5788   1.347   4.783   3.096
 1145SOL    HW1 5789   1.371   4.720   3.022
 1145SOL    HW2 5790   1.257   4.823   3.078
 1146SOL     OW 5791   1.302   4.579   2.171
 1146SOL    HW1 5792   1.216   4.548   2.213
 1146SOL    HW2 5793   1.298   4.565   2.072
 1147SOL     OW 5794   0.083   4.982   2.884
 1147SOL    HW1 5795   0.078   4.981   2.984
 1147SOL    HW2 5796   0.000   4.941   2.846
 1148SOL     OW 5797   1.726   3.859   2.385
 1148SOL    HW1 5798   1.799   3.842   2.318
 1148SOL    HW2 5799   1.695   3.772   2.423
 1149SOL     OW 5800   0.263   4.050   2.582
 1149SOL    HW1 5801   0.184   4.101   2.548
 1149SOL    HW2 5802   0.254   4.035   2.680
 1150SOL     OW 5803   1.194   5.336   1.893
 1150SOL    HW1 5804   1.200   5.243   1.930
 1150SOL    HW2 5805   1.135   5.336   1.813
 1151SOL     OW 5806   0.822   4.726   3.234
 1151SOL    HW1 5807   0.862   4.725   3.142
 1151SOL    HW2 5808   0.832   4.818   3.274
 1152SOL     OW 5809   0.916   4.634   2.153
 1152SOL    HW1 5810   0.979   4.672   2.085
 1152SOL    HW2 5811   0.956   4.551   2.192
 1153SOL     OW 5812   0.372   5.012   3.352
 1153SOL    HW1 5813   0.359   5.105   3.318
 1153SOL    HW2 5814   0.288   4.960   3.339
 1154SOL     OW 5815   1.614   5.016   3.151
 1154SOL    HW1 5816   1.674   5.019   3.231
 1154SOL    HW2 5817   1.539   5.080   3.164
 1155SOL     OW 5818   1.039   4.822   2.558
 1155SOL    HW1 5819   0.969   4.775   2.612
 1155SOL    HW2 5820   1.098   4.754   2.515
 1156SOL     OW 5821   1.014   3.960   2.833
 1156SOL    HW1 5822   1.006   3.924   2.740
 1156SOL    HW2 5823   1.012   3.884   2.898
 1157SOL     OW 5824   0.105   4.737   3.588
 1157SOL    HW1 5825   0.028   4.704   3.642
 1157SOL    HW2 5826   0.190   4.707   3.630
 1158SOL     OW 5827   0.672   3.927   3.351
 1158SOL    HW1 5828   0.762   3.911   3.311
 1158SOL    HW2 5829   0.680   3.932   3.450
 1159SOL     OW 5830   1.440   4.580   3.260
 1159SOL    HW1 5831   1.383   4.632   3.197
 1159SOL    HW2 5832   1.536   4.592   3.236
 1160SOL     OW 5833   0.072   3.890   2.180
 1160SOL    HW1 5834   0.055   3.973   2.126
 1160SOL    HW2 5835   0.162   3.853   2.158
 1161SOL     OW 5836   0.716   4.289   3.570
 1161SOL    HW1 5837   0.735   4.354   3.644
 1161SOL    HW2 5838   0.776   4.209   3.579
 1162SOL     OW 5839   1.450   4.944   3.495
 1162SOL    HW1 5840   1.441   4.934   3.594
 1162SOL    HW2 5841   1.546   4.937   3.469
 1163SOL     OW 5842   1.674   4.607   3.116
 1163SOL    HW1 5843   1.647   4.518   3.079
 1163SOL    HW2 5844   1.675   4.675   3.043
 1164SOL     OW 5845   1.225   4.049   2.311
 1164SOL    HW1 5846   1.290   3.975   2.300
 1164SOL    HW2 5847   1.245   4.099   2.395
 1165SOL     OW 5848   0.594   4.469   2.514
 1165SOL    HW1 5849   0.644   4.554   2.495
 1165SOL    HW2 5850   0.506   4.471   2.466
 1166SOL     OW 5851   1.730   4.658   3.379
 1166SOL    HW1 5852   1.768   4.749   3.394
 1166SOL    HW2 5853   1.722   4.641   3.280
 1167SOL     OW 5854   0.859   4.680   2.723
 1167SOL    HW1 5855   0.913   4.611   2.771
 1167SOL    HW2 5856   0.827   4.749   2.789
 1168SOL     OW 5857   1.083   4.708   1.949
 1168SOL    HW1 5858   1.060   4.761   1.867
 1168SOL    HW2 5859   1.164   4.652   1.930
 1169SOL     OW 5860   0.079   4.964   2.515
 1169SOL    HW1 5861   0.078   4.917   2.603
 1169SOL    HW2 5862   0.161   4.936   2.464
 1170SOL     OW 5863   0.428   4.148   2.382
 1170SOL    HW1 5864   0.458   4.076   2.320
 1170SOL    HW2 5865   0.389   4.108   2.465
 1171SOL     OW 5866   0.317   4.271   3.142
 1171SOL    HW1 5867   0.355   4.212   3.214
 1171SOL    HW2 5868   0.357   4.245   3.054
 1172SOL     OW 5869   1.001   3.758   3.016
 1172SOL    HW1 5870   0.938   3.686   2.985
 1172SOL    HW2 5871   1.094   3.722   3.016
 1173SOL     OW 5872   0.770   5.054   2.163
 1173SOL    HW1 5873   0.724   4.967   2.180
 1173SOL    HW2 5874   0.861   5.051   2.204
 1174SOL     OW 5875   1.352   3.776   2.030
 1174SOL    HW1 5876   1.387   3.735   1.946
 1174SOL    HW2 5877   1.262   3.738   2.050
 1175SOL     OW 5878   1.300   4.177   2.553
 1175SOL    HW1 5879   1.241   4.257   2.557
 1175SOL    HW2 5880   1.315   4.142   2.646
 1176SOL     OW 5881   0.039   4.801   2.162
 1176SOL    HW1 5882   0.138   4.790   2.153
 1176SOL    HW2 5883  -0.001   4.715   2.194
 1177SOL     OW 5884   0.019   4.092   4.371
 1177SOL    HW1 5885  -0.063   4.135   4.410
 1177SOL    HW2 5886  -0.009   4.019   4.308
 1178SOL     OW 5887   1.555   5.235   4.427
 1178SOL    HW1 5888   1.498   5.219   4.508
 1178SOL    HW2 5889   1.496   5.245   4.347
 1179SOL     OW 5890   1.755   4.331   3.955
 1179SOL    HW1 5891   1.743   4.318   3.856
 1179SOL    HW2 5892   1.725   4.250   4.004
 1180SOL     OW 5893   0.335   5.159   4.785
 1180SOL    HW1 5894   0.257   5.128   4.732
 1180SOL    HW2 5895   0.393   5.217   4.728
 1181SOL     OW 5896   1.689   4.646   4.336
 1181SOL    HW1 5897   1.784   4.617   4.344
 1181SOL    HW2 5898   1.681   4.711   4.261
 1182SOL     OW 5899   1.641   4.832   4.156
 1182SOL    HW1 5900   1.727   4.834   4.104
 1182SOL    HW2 5901   1.655   4.879   4.244
 1183SOL     OW 5902   0.197   4.700   4.988
 1183SOL    HW1 5903   0.286   4.655   4.974
 1183SOL    HW2 5904   0.124   4.635   4.969
 1184SOL     OW 5905   1.525   4.723   3.914
 1184SOL    HW1 5906   1.462   4.647   3.927
 1184SOL    HW2 5907   1.573   4.741   4.000
 1185SOL     OW 5908   1.466   5.141   4.677
 1185SOL    HW1 5909   1.407   5.147   4.757
 1185SOL    HW2 5910   1.451   5.053   4.631
 1186SOL     OW 5911   0.991   4.134   4.966
 1186SOL    HW1 5912   0.914   4.168   5.020
 1186SOL    HW2 5913   0.957   4.083   4.887
 1187SOL     OW 5914   0.076   4.535   4.513
 1187SOL    HW1 5915   0.175   4.523   4.522
 1187SOL    HW2 5916   0.052   4.630   4.534
 1188SOL     OW 5917   0.865   4.072   3.919
 1188SOL    HW1 5918   0.924   4.135   3.870
 1188SOL    HW2 5919   0.884   3.978   3.890
 1189SOL     OW 5920   1.362   4.868   4.269
 1189SOL    HW1 5921   1.445   4.839   4.221
 1189SOL    HW2 5922   1.313   4.935   4.213
 1190SOL     OW 5923   1.795   4.790   4.597
 1190SOL    HW1 5924   1.733   4.775   4.521
 1190SOL    HW2 5925   1.743   4.801   4.682
 1191SOL     OW 5926   1.458   4.459   4.452
 1191SOL    HW1 5927   1.453   4.394   4.527
 1191SOL    HW2 5928   1.538   4.518   4.465
 1192SOL     OW 5929   1.632   5.101   3.805
 1192SOL    HW1 5930   1.600   5.195   3.795
 1192SOL    HW2 5931   1.556   5.038   3.793
 1193SOL     OW 5932   0.614   3.846   3.841
 1193SOL    HW1 5933   0.712   3.824   3.848
 1193SOL    HW2 5934   0.583   3.829   3.748
 1194SOL     OW 5935   0.803   5.126   4.648
 1194SOL    HW1 5936   0.893   5.140   4.606
 1194SOL    HW2 5937   0.732   5.128   4.577
 1195SOL     OW 5938   1.434   4.912   3.765
 1195SOL    HW1 5939   1.466   4.836   3.822
 1195SOL    HW2 5940   1.342   4.939   3.795
 1196SOL     OW 5941   0.297   3.759   3.895
 1196SOL    HW1 5942   0.346   3.843   3.874
 1196SOL    HW2 5943   0.359   3.694   3.940
 1197SOL     OW 5944   0.935   3.960   4.204
 1197SOL    HW1 5945   0.887   4.001   4.126
 1197SOL    HW2 5946   1.034   3.958   4.185
 1198SOL     OW 5947   1.227   5.294   4.517
 1198SOL    HW1 5948   1.248   5.368   4.452
 1198SOL    HW2 5949   1.295   5.294   4.590
 1199SOL     OW 5950   1.032   4.273   3.740
 1199SOL    HW1 5951   0.991   4.355   3.701
 1199SOL    HW2 5952   1.096   4.299   3.813
 1200SOL     OW 5953   0.866   4.178   4.366
 1200SOL    HW1 5954   0.834   4.250   4.304
 1200SOL    HW2 5955   0.890   4.097   4.313
 1201SOL     OW 5956   1.429   4.897   4.591
 1201SOL    HW1 5957   1.374   4.813   4.584
 1201SOL    HW2 5958   1.455   4.926   4.499
 1202SOL     OW 5959   1.466   4.314   4.716
 1202SOL    HW1 5960   1.436   4.219   4.723
 1202SOL    HW2 5961   1.539   4.330   4.782
 1203SOL     OW 5962   1.857   4.557   4.101
 1203SOL    HW1 5963   1.899   4.493   4.165
 1203SOL    HW2 5964   1.819   4.506   4.023
 1204SOL     OW 5965   1.664   5.004   4.381
 1204SOL    HW1 5966   1.763   5.012   4.395
 1204SOL    HW2 5967   1.619   5.088   4.412
 1205SOL     OW 5968   1.390   4.299   3.802
 1205SOL    HW1 5969   1.336   4.278   3.883
 1205SOL    HW2 5970   1.481   4.258   3.811
 1206SOL     OW 5971   0.527   3.980   4.052
 1206SOL    HW1 5972   0.554   3.921   3.977
 1206SOL    HW2 5973   0.527   4.075   4.021
 1207SOL     OW 5974   1.638   4.823   4.803
 1207SOL    HW1 5975   1.643   4.904   4.862
 1207SOL    HW2 5976   1.552   4.825   4.752
 1208SOL     OW 5977   0.410   4.537   4.975
 1208SOL    HW1 5978   0.496   4.549   5.025
 1208SOL    HW2 5979   0.368   4.450   5.002
 1209SOL     OW 5980   1.274   4.110   4.986
 1209SOL    HW1 5981   1.295   4.184   5.050
 1209SOL    HW2 5982   1.185   4.127   4.943
 1210SOL     OW 5983   0.367   4.824   4.225
 1210SOL    HW1 5984   0.360   4.907   4.169
 1210SOL    HW2 5985   0.371   4.744   4.165
 1211SOL     OW 5986   0.566   4.261   4.589
 1211SOL    HW1 5987   0.578   4.327   4.515
 1211SOL    HW2 5988   0.612   4.295   4.672
 1212SOL     OW 5989   1.582   4.363   4.196
 1212SOL    HW1 5990   1.551   4.424   4.269
 1212SOL    HW2 5991   1.632   4.415   4.127
 1213SOL     OW 5992   0.573   4.594   4.753
 1213SOL    HW1 5993   0.617   4.683   4.744
 1213SOL    HW2 5994   0.510   4.594   4.830
 1214SOL     OW 5995   1.360   4.586   4.769
 1214SOL    HW1 5996   1.285   4.586   4.703
 1214SOL    HW2 5997   1.397   4.494   4.778
 1215SOL     OW 5998   0.037   5.034   5.006
 1215SOL    HW1 5999   0.090   4.985   5.074
 1215SOL    HW2 6000   0.059   5.132   5.011
 1216SOL     OW 6001   0.732   4.358   4.788
 1216SOL    HW1 6002   0.791   4.332   4.712
 1216SOL    HW2 6003   0.704   4.454   4.777
 1217SOL     OW 6004   1.023   4.490   4.690
 1217SOL    HW1 6005   1.038   4.511   4.786
 1217SOL    HW2 6006   0.993   4.395   4.681
 1218SOL     OW 6007   1.303   4.562   3.766
 1218SOL    HW1 6008   1.337   4.469   3.781
 1218SOL    HW2 6009   1.321   4.589   3.671
 1219SOL     OW 6010   0.339   4.233   4.730
 1219SOL    HW1 6011   0.287   4.150   4.713
 1219SOL    HW2 6012   0.416   4.238   4.666
 1220SOL     OW 6013   1.160   3.931   5.201
 1220SOL    HW1 6014   1.160   3.995   5.278
 1220SOL    HW2 6015   1.188   3.979   5.118
 1221SOL     OW 6016   0.008   5.050   3.924
 1221SOL    HW1 6017  -0.085   5.071   3.893
 1221SOL    HW2 6018   0.018   4.951   3.937
 1222SOL     OW 6019   1.002   4.520   4.962
 1222SOL    HW1 6020   1.043   4.488   5.048
 1222SOL    HW2 6021   0.906   4.493   4.959
 1223SOL     OW 6022   0.040   4.268   4.838
 1223SOL    HW1 6023   0.125   4.235   4.797
 1223SOL    HW2 6024   0.053   4.283   4.936
 1224SOL     OW 6025   0.815   4.296   4.049
 1224SOL    HW1 6026   0.822   4.207   4.003
 1224SOL    HW2 6027   0.721   4.330   4.041
 1225SOL     OW 6028   1.657   4.328   4.930
 1225SOL    HW1 6029   1.619   4.259   4.992
 1225SOL    HW2 6030   1.739   4.292   4.886
 1226SOL     OW 6031   0.671   4.188   4.993
 1226SOL    HW1 6032   0.637   4.099   4.963
 1226SOL    HW2 6033   0.697   4.242   4.913
 1227SOL     OW 6034   0.473   4.224   3.915
 1227SOL    HW1 6035   0.534   4.304   3.919
 1227SOL    HW2 6036   0.378   4.255   3.922
 1228SOL     OW 6037   1.347   4.783   4.958
 1228SOL    HW1 6038   1.371   4.720   4.884
 1228SOL    HW2 6039   1.257   4.823   4.940
 1229SOL     OW 6040   0.083   4.982   4.746
 1229SOL    HW1 6041   0.078   4.981   4.846
 1229SOL    HW2 6042   0.000   4.941   4.708
 1230SOL     OW 6043   1.726   3.859   4.247
 1230SOL    HW1 6044   1.799   3.842   4.180
 1230SOL    HW2 6045   1.695   3.772   4.285
 1231SOL     OW 6046   1.280   4.651   4.396
 1231SOL    HW1 6047   1.340   4.570   4.398
 1231SOL    HW2 6048   1.320   4.720   4.336
 1232SOL     OW 6049   1.841   3.899   4.687
 1232SOL    HW1 6050   1.880   3.814   4.651
 1232SOL    HW2 6051   1.743   3.901   4.668
 1233SOL     OW 6052   0.263   4.050   4.444
 1233SOL    HW1 6053   0.184   4.101   4.410
 1233SOL    HW2 6054   0.254   4.035   4.542
 1234SOL     OW 6055   1.194   5.336   3.755
 1234SOL    HW1 6056   1.200   5.243   3.792
 1234SOL    HW2 6057   1.135   5.336   3.675
 1235SOL     OW 6058   0.822   4.726   5.096
 1235SOL    HW1 6059   0.862   4.725   5.004
 1235SOL    HW2 6060   0.832   4.818   5.136
 1236SOL     OW 6061   1.039   4.822   4.420
 1236SOL    HW1 6062   0.969   4.775   4.474
 1236SOL    HW2 6063   1.098   4.754   4.377
 1237SOL     OW 6064   1.014   3.960   4.695
 1237SOL    HW1 6065   1.006   3.924   4.602
 1237SOL    HW2 6066   1.012   3.884   4.760
 1238SOL     OW 6067   1.709   4.109   5.105
 1238SOL    HW1 6068   1.782   4.178   5.109
 1238SOL    HW2 6069   1.737   4.034   5.046
 1239SOL     OW 6070   0.072   3.890   4.042
 1239SOL    HW1 6071   0.055   3.973   3.988
 1239SOL    HW2 6072   0.162   3.853   4.020
 1240SOL     OW 6073   1.450   4.944   5.357
 1240SOL    HW1 6074   1.441   4.934   5.456
 1240SOL    HW2 6075   1.546   4.937   5.331
 1241SOL     OW 6076   1.674   4.607   4.978
 1241SOL    HW1 6077   1.647   4.518   4.941
 1241SOL    HW2 6078   1.675   4.675   4.905
 1242SOL     OW 6079   1.730   4.658   5.241
 1242SOL    HW1 6080   1.768   4.749   5.256
 1242SOL    HW2 6081   1.722   4.641   5.142
 1243SOL     OW 6082   1.083   4.708   3.811
 1243SOL    HW1 6083   1.060   4.761   3.729
 1243SOL    HW2 6084   1.164   4.652   3.792
 1244SOL     OW 6085   0.079   4.964   4.377
 1244SOL    HW1 6086   0.078   4.917   4.465
 1244SOL    HW2 6087   0.161   4.936   4.326
 1245SOL     OW 6088   1.824   3.916   4.951
 1245SOL    HW1 6089   1.820   3.826   4.995
 1245SOL    HW2 6090   1.827   3.905   4.852
 1246SOL     OW 6091   0.428   4.148   4.244
 1246SOL    HW1 6092   0.458   4.076   4.182
 1246SOL    HW2 6093   0.389   4.108   4.327
 1247SOL     OW 6094   1.424   3.938   4.836
 1247SOL    HW1 6095   1.476   3.873   4.891
 1247SOL    HW2 6096   1.375   4.001   4.897
 1248SOL     OW 6097   1.001   3.758   4.878
 1248SOL    HW1 6098   0.938   3.686   4.847
 1248SOL    HW2 6099   1.094   3.722   4.878
 1249SOL     OW 6100   0.039   4.801   4.024
 1249SOL    HW1 6101   0.138   4.790   4.015
 1249SOL    HW2 6102  -0.001   4.715   4.056
 1250SOL     OW 6103   2.092   0.628   0.113
 1250SOL    HW1 6104   1.999   0.626   0.150
 1250SOL    HW2 6105   2.093   0.589   0.021
 1251SOL     OW 6106   2.087   0.275   0.996
 1251SOL    HW1 6107   2.122   0.258   1.088
 1251SOL    HW2 6108   1.999   0.230   0.984
 1252SOL     OW 6109   1.881   0.368   0.647
 1252SOL    HW1 6110   1.799   0.411   0.686
 1252SOL    HW2 6111   1.853   0.295   0.584
 1253SOL     OW 6112   2.431   1.275   1.165
 1253SOL    HW1 6113   2.338   1.268   1.128
 1253SOL    HW2 6114   2.442   1.364   1.209
 1254SOL     OW 6115   3.417   1.511   0.703
 1254SOL    HW1 6116   3.360   1.495   0.784
 1254SOL    HW2 6117   3.358   1.521   0.623
 1255SOL     OW 6118   2.997   0.703   0.717
 1255SOL    HW1 6119   3.054   0.781   0.692
 1255SOL    HW2 6120   2.937   0.729   0.793
 1256SOL     OW 6121   3.617   0.607   0.231
 1256SOL    HW1 6122   3.605   0.594   0.132
 1256SOL    HW2 6123   3.587   0.526   0.280
 1257SOL     OW 6124   2.630   1.144   1.023
 1257SOL    HW1 6125   2.552   1.161   1.083
 1257SOL    HW2 6126   2.664   1.231   0.987
 1258SOL     OW 6127   2.712   0.798   1.823
 1258SOL    HW1 6128   2.708   0.874   1.888
 1258SOL    HW2 6129   2.734   0.834   1.732
 1259SOL     OW 6130   2.547   1.012   0.665
 1259SOL    HW1 6131   2.616   0.996   0.735
 1259SOL    HW2 6132   2.474   1.069   0.703
 1260SOL     OW 6133   2.197   1.435   1.061
 1260SOL    HW1 6134   2.119   1.404   1.008
 1260SOL    HW2 6135   2.255   1.493   1.004
 1261SOL     OW 6136   3.322   1.505   1.339
 1261SOL    HW1 6137   3.346   1.599   1.365
 1261SOL    HW2 6138   3.306   1.451   1.421
 1262SOL     OW 6139   2.300   0.392   1.499
 1262SOL    HW1 6140   2.382   0.336   1.508
 1262SOL    HW2 6141   2.219   0.334   1.503
 1263SOL     OW 6142   3.465   0.447   0.737
 1263SOL    HW1 6143   3.391   0.493   0.687
 1263SOL    HW2 6144   3.516   0.515   0.790
 1264SOL     OW 6145   2.093   1.713   0.483
 1264SOL    HW1 6146   2.127   1.790   0.537
 1264SOL    HW2 6147   2.137   1.713   0.393
 1265SOL     OW 6148   2.989   1.341   1.690
 1265SOL    HW1 6149   3.036   1.341   1.778
 1265SOL    HW2 6150   2.941   1.254   1.679
 1266SOL     OW 6151   2.102   1.091   0.886
 1266SOL    HW1 6152   2.116   1.007   0.938
 1266SOL    HW2 6153   2.047   1.155   0.941
 1267SOL     OW 6154   2.482   1.786   1.439
 1267SOL    HW1 6155   2.390   1.769   1.474
 1267SOL    HW2 6156   2.510   1.878   1.465
 1268SOL     OW 6157   2.468   0.964   0.123
 1268SOL    HW1 6158   2.475   1.048   0.069
 1268SOL    HW2 6159   2.514   0.977   0.211
 1269SOL     OW 6160   1.984   0.643   0.563
 1269SOL    HW1 6161   1.939   0.555   0.580
 1269SOL    HW2 6162   1.983   0.697   0.647
 1270SOL     OW 6163   3.551   0.922   0.612
 1270SOL    HW1 6164   3.646   0.893   0.620
 1270SOL    HW2 6165   3.543   0.987   0.537
 1271SOL     OW 6166   3.503   1.108   0.432
 1271SOL    HW1 6167   3.589   1.110   0.380
 1271SOL    HW2 6168   3.517   1.155   0.520
 1272SOL     OW 6169   1.975   0.737   1.597
 1272SOL    HW1 6170   2.063   0.724   1.642
 1272SOL    HW2 6171   1.962   0.834   1.575
 1273SOL     OW 6172   3.155   1.228   1.423
 1273SOL    HW1 6173   3.192   1.155   1.365
 1273SOL    HW2 6174   3.207   1.233   1.508
 1274SOL     OW 6175   2.059   0.976   1.264
 1274SOL    HW1 6176   2.148   0.931   1.250
 1274SOL    HW2 6177   1.986   0.911   1.245
 1275SOL     OW 6178   2.179   0.251   1.801
 1275SOL    HW1 6179   2.250   0.322   1.807
 1275SOL    HW2 6180   2.091   0.290   1.829
 1276SOL     OW 6181   3.328   1.417   0.953
 1276SOL    HW1 6182   3.269   1.423   1.033
 1276SOL    HW2 6183   3.313   1.329   0.907
 1277SOL     OW 6184   3.143   0.345   0.944
 1277SOL    HW1 6185   3.057   0.295   0.931
 1277SOL    HW2 6186   3.205   0.291   1.000
 1278SOL     OW 6187   2.669   0.605   1.465
 1278SOL    HW1 6188   2.622   0.602   1.554
 1278SOL    HW2 6189   2.618   0.550   1.399
 1279SOL     OW 6190   3.256   0.469   1.674
 1279SOL    HW1 6191   3.236   0.512   1.762
 1279SOL    HW2 6192   3.334   0.407   1.683
 1280SOL     OW 6193   2.835   0.890   1.572
 1280SOL    HW1 6194   2.881   0.806   1.543
 1280SOL    HW2 6195   2.779   0.924   1.497
 1281SOL     OW 6196   2.853   0.410   1.242
 1281SOL    HW1 6197   2.776   0.444   1.296
 1281SOL    HW2 6198   2.819   0.359   1.163
 1282SOL     OW 6199   1.938   0.811   0.789
 1282SOL    HW1 6200   2.037   0.799   0.798
 1282SOL    HW2 6201   1.914   0.906   0.810
 1283SOL     OW 6202   3.581   0.585   1.831
 1283SOL    HW1 6203   3.555   0.674   1.795
 1283SOL    HW2 6204   3.579   0.517   1.758
 1284SOL     OW 6205   3.224   1.144   0.545
 1284SOL    HW1 6206   3.307   1.115   0.497
 1284SOL    HW2 6207   3.175   1.211   0.489
 1285SOL     OW 6208   3.657   1.066   0.873
 1285SOL    HW1 6209   3.595   1.051   0.797
 1285SOL    HW2 6210   3.605   1.077   0.958
 1286SOL     OW 6211   3.089   1.550   1.506
 1286SOL    HW1 6212   3.095   1.473   1.570
 1286SOL    HW2 6213   3.037   1.524   1.426
 1287SOL     OW 6214   3.320   0.735   0.728
 1287SOL    HW1 6215   3.315   0.670   0.803
 1287SOL    HW2 6216   3.400   0.794   0.741
 1288SOL     OW 6217   2.323   1.266   1.727
 1288SOL    HW1 6218   2.273   1.267   1.641
 1288SOL    HW2 6219   2.260   1.248   1.803
 1289SOL     OW 6220   2.973   1.776   0.237
 1289SOL    HW1 6221   2.913   1.714   0.287
 1289SOL    HW2 6222   3.004   1.732   0.152
 1290SOL     OW 6223   2.064   0.285   1.498
 1290SOL    HW1 6224   1.984   0.345   1.485
 1290SOL    HW2 6225   2.054   0.236   1.584
 1291SOL     OW 6226   2.326   1.743   0.323
 1291SOL    HW1 6227   2.359   1.782   0.409
 1291SOL    HW2 6228   2.402   1.736   0.258
 1292SOL     OW 6229   2.111   1.785   1.241
 1292SOL    HW1 6230   2.168   1.720   1.291
 1292SOL    HW2 6231   2.095   1.752   1.148
 1293SOL     OW 6232   2.244   0.700   0.480
 1293SOL    HW1 6233   2.289   0.610   0.477
 1293SOL    HW2 6234   2.150   0.689   0.513
 1294SOL     OW 6235   2.476   0.122   0.117
 1294SOL    HW1 6236   2.574   0.100   0.124
 1294SOL    HW2 6237   2.445   0.105   0.024
 1295SOL     OW 6238   2.643   0.264   1.749
 1295SOL    HW1 6239   2.710   0.203   1.792
 1295SOL    HW2 6240   2.570   0.283   1.814
 1296SOL     OW 6241   2.750   1.514   1.195
 1296SOL    HW1 6242   2.727   1.489   1.101
 1296SOL    HW2 6243   2.811   1.445   1.234
 1297SOL     OW 6244   3.213   0.590   1.433
 1297SOL    HW1 6245   3.241   0.547   1.518
 1297SOL    HW2 6246   3.238   0.686   1.434
 1298SOL     OW 6247   2.401   0.064   0.512
 1298SOL    HW1 6248   2.320   0.065   0.570
 1298SOL    HW2 6249   2.404   0.147   0.457
 1299SOL     OW 6250   2.159   0.035   0.171
 1299SOL    HW1 6251   2.208   0.119   0.150
 1299SOL    HW2 6252   2.221  -0.030   0.216
 1300SOL     OW 6253   2.938   0.683   1.464
 1300SOL    HW1 6254   2.858   0.622   1.467
 1300SOL    HW2 6255   3.019   0.630   1.440
 1301SOL     OW 6256   3.089   1.570   0.793
 1301SOL    HW1 6257   3.110   1.644   0.728
 1301SOL    HW2 6258   3.157   1.570   0.866
 1302SOL     OW 6259   3.133   1.797   0.591
 1302SOL    HW1 6260   3.177   1.861   0.527
 1302SOL    HW2 6261   3.083   1.849   0.661
 1303SOL     OW 6262   2.894   0.549   0.016
 1303SOL    HW1 6263   2.853   0.631  -0.023
 1303SOL    HW2 6264   2.958   0.575   0.089
 1304SOL     OW 6265   1.940   0.556   1.386
 1304SOL    HW1 6266   2.032   0.555   1.345
 1304SOL    HW2 6267   1.934   0.630   1.453
 1305SOL     OW 6268   2.423   0.222   1.147
 1305SOL    HW1 6269   2.461   0.138   1.184
 1305SOL    HW2 6270   2.335   0.241   1.191
 1306SOL     OW 6271   2.879   0.039   0.753
 1306SOL    HW1 6272   2.807   0.044   0.684
 1306SOL    HW2 6273   2.855  -0.030   0.822
 1307SOL     OW 6274   3.291   1.173   0.867
 1307SOL    HW1 6275   3.236   1.089   0.860
 1307SOL    HW2 6276   3.317   1.202   0.775
 1308SOL     OW 6277   3.328   0.590   0.992
 1308SOL    HW1 6278   3.298   0.495   0.999
 1308SOL    HW2 6279   3.401   0.606   1.058
 1309SOL     OW 6280   3.719   0.833   0.377
 1309SOL    HW1 6281   3.761   0.769   0.441
 1309SOL    HW2 6282   3.681   0.782   0.299
 1310SOL     OW 6283   3.526   1.280   0.657
 1310SOL    HW1 6284   3.625   1.288   0.671
 1310SOL    HW2 6285   3.481   1.364   0.688
 1311SOL     OW 6286   2.389   0.256   0.328
 1311SOL    HW1 6287   2.416   0.197   0.253
 1311SOL    HW2 6288   2.389   0.351   0.297
 1312SOL     OW 6289   3.616   1.223   1.588
 1312SOL    HW1 6290   3.707   1.184   1.575
 1312SOL    HW2 6291   3.624   1.319   1.612
 1313SOL     OW 6292   2.926   1.347   1.340
 1313SOL    HW1 6293   2.846   1.324   1.395
 1313SOL    HW2 6294   3.009   1.321   1.389
 1314SOL     OW 6295   3.454   1.629   1.625
 1314SOL    HW1 6296   3.481   1.663   1.535
 1314SOL    HW2 6297   3.533   1.591   1.671
 1315SOL     OW 6298   2.973   1.195   1.100
 1315SOL    HW1 6299   2.933   1.239   1.181
 1315SOL    HW2 6300   2.932   1.232   1.017
 1316SOL     OW 6301   3.500   1.099   1.079
 1316SOL    HW1 6302   3.505   1.180   1.138
 1316SOL    HW2 6303   3.414   1.101   1.028
 1317SOL     OW 6304   2.567   1.050   0.368
 1317SOL    HW1 6305   2.553   1.057   0.467
 1317SOL    HW2 6306   2.651   0.999   0.350
 1318SOL     OW 6307   2.272   0.813   1.251
 1318SOL    HW1 6308   2.358   0.825   1.301
 1318SOL    HW2 6309   2.230   0.726   1.278
 1319SOL     OW 6310   3.136   0.386   1.262
 1319SOL    HW1 6311   3.157   0.460   1.326
 1319SOL    HW2 6312   3.047   0.403   1.219
 1320SOL     OW 6313   1.926   1.564   1.331
 1320SOL    HW1 6314   1.880   1.646   1.297
 1320SOL    HW2 6315   2.024   1.583   1.340
 1321SOL     OW 6316   2.428   0.537   0.865
 1321SOL    HW1 6317   2.440   0.603   0.791
 1321SOL    HW2 6318   2.474   0.571   0.948
 1322SOL     OW 6319   3.134   1.445   1.142
 1322SOL    HW1 6320   3.181   1.458   1.229
 1322SOL    HW2 6321   3.068   1.371   1.151
 1323SOL     OW 6322   3.444   0.639   0.472
 1323SOL    HW1 6323   3.413   0.700   0.545
 1323SOL    HW2 6324   3.494   0.691   0.403
 1324SOL     OW 6325   2.216   1.510   1.329
 1324SOL    HW1 6326   2.195   1.466   1.242
 1324SOL    HW2 6327   2.313   1.536   1.332
 1325SOL     OW 6328   2.264   0.751   1.598
 1325SOL    HW1 6329   2.332   0.806   1.551
 1325SOL    HW2 6330   2.304   0.663   1.625
 1326SOL     OW 6331   3.449   0.779   1.670
 1326SOL    HW1 6332   3.357   0.817   1.665
 1326SOL    HW2 6333   3.509   0.826   1.605
 1327SOL     OW 6334   2.875   0.105   1.770
 1327SOL    HW1 6335   2.881   0.190   1.718
 1327SOL    HW2 6336   2.907   0.029   1.713
 1328SOL     OW 6337   2.366   0.050   1.740
 1328SOL    HW1 6338   2.324  -0.007   1.670
 1328SOL    HW2 6339   2.300   0.119   1.772
 1329SOL     OW 6340   2.435   0.870   1.029
 1329SOL    HW1 6341   2.479   0.959   1.020
 1329SOL    HW2 6342   2.372   0.870   1.106
 1330SOL     OW 6343   3.222   0.862   1.045
 1330SOL    HW1 6344   3.147   0.862   0.979
 1330SOL    HW2 6345   3.259   0.770   1.054
 1331SOL     OW 6346   2.169   0.213   1.231
 1331SOL    HW1 6347   2.146   0.250   1.321
 1331SOL    HW2 6348   2.139   0.118   1.225
 1332SOL     OW 6349   1.899   1.310   1.282
 1332SOL    HW1 6350   1.952   1.261   1.350
 1332SOL    HW2 6351   1.921   1.408   1.287
 1333SOL     OW 6352   2.594   0.634   1.064
 1333SOL    HW1 6353   2.653   0.608   0.988
 1333SOL    HW2 6354   2.566   0.730   1.053
 1334SOL     OW 6355   3.590   0.935   1.854
 1334SOL    HW1 6356   3.544   0.928   1.765
 1334SOL    HW2 6357   3.528   0.979   1.920
 1335SOL     OW 6358   2.169   0.063   0.618
 1335SOL    HW1 6359   2.158   0.157   0.651
 1335SOL    HW2 6360   2.164   0.000   0.695
 1336SOL     OW 6361   2.885   0.766   0.966
 1336SOL    HW1 6362   2.900   0.787   1.062
 1336SOL    HW2 6363   2.855   0.671   0.957
 1337SOL     OW 6364   2.842   1.573   1.700
 1337SOL    HW1 6365   2.822   1.617   1.612
 1337SOL    HW2 6366   2.881   1.482   1.684
 1338SOL     OW 6367   2.212   0.898   1.804
 1338SOL    HW1 6368   2.288   0.942   1.852
 1338SOL    HW2 6369   2.247   0.851   1.722
 1339SOL     OW 6370   3.165   0.838   0.042
 1339SOL    HW1 6371   3.199   0.745   0.057
 1339SOL    HW2 6372   3.183   0.865  -0.053
 1340SOL     OW 6373   2.930   1.333   0.849
 1340SOL    HW1 6374   2.937   1.249   0.794
 1340SOL    HW2 6375   2.992   1.402   0.813
 1341SOL     OW 6376   2.181   0.810   0.949
 1341SOL    HW1 6377   2.274   0.846   0.954
 1341SOL    HW2 6378   2.175   0.725   1.001
 1342SOL     OW 6379   2.201   0.509   1.006
 1342SOL    HW1 6380   2.149   0.426   0.989
 1342SOL    HW2 6381   2.278   0.514   0.942
 1343SOL     OW 6382   1.950   1.801   0.927
 1343SOL    HW1 6383   1.908   1.715   0.900
 1343SOL    HW2 6384   2.044   1.804   0.893
 1344SOL     OW 6385   2.864   0.796   1.238
 1344SOL    HW1 6386   2.905   0.764   1.324
 1344SOL    HW2 6387   2.768   0.769   1.235
 1345SOL     OW 6388   1.902   0.544   1.114
 1345SOL    HW1 6389   1.987   0.511   1.073
 1345SOL    HW2 6390   1.915   0.559   1.212
 1346SOL     OW 6391   2.051   0.520   1.722
 1346SOL    HW1 6392   2.110   0.480   1.652
 1346SOL    HW2 6393   1.993   0.591   1.681
 1347SOL     OW 6394   3.231   0.950   1.660
 1347SOL    HW1 6395   3.270   1.039   1.680
 1347SOL    HW2 6396   3.241   0.930   1.563
 1348SOL     OW 6397   3.519   0.604   1.206
 1348SOL    HW1 6398   3.481   0.535   1.268
 1348SOL    HW2 6399   3.601   0.568   1.162
 1349SOL     OW 6400   2.533   0.464   1.269
 1349SOL    HW1 6401   2.499   0.375   1.239
 1349SOL    HW2 6402   2.559   0.518   1.189
 1350SOL     OW 6403   2.792   1.678   1.465
 1350SOL    HW1 6404   2.768   1.660   1.370
 1350SOL    HW2 6405   2.822   1.772   1.475
 1351SOL     OW 6406   2.021   1.137   1.466
 1351SOL    HW1 6407   2.043   1.076   1.542
 1351SOL    HW2 6408   2.031   1.088   1.380
 1352SOL     OW 6409   3.209   1.059   1.234
 1352SOL    HW1 6410   3.233   0.996   1.160
 1352SOL    HW2 6411   3.119   1.099   1.216
 1353SOL     OW 6412   3.114   1.731   1.128
 1353SOL    HW1 6413   3.198   1.736   1.074
 1353SOL    HW2 6414   3.091   1.635   1.146
 1354SOL     OW 6415   1.945   1.258   1.022
 1354SOL    HW1 6416   1.940   1.257   1.122
 1354SOL    HW2 6417   1.862   1.217   0.984
 1355SOL     OW 6418   2.550   1.662   1.716
 1355SOL    HW1 6419   2.494   1.743   1.725
 1355SOL    HW2 6420   2.602   1.666   1.630
 1356SOL     OW 6421   2.765   0.086   0.133
 1356SOL    HW1 6422   2.816   0.087   0.047
 1356SOL    HW2 6423   2.821   0.044   0.204
 1357SOL     OW 6424   3.588   0.135   0.523
 1357SOL    HW1 6425   3.661   0.118   0.456
 1357SOL    HW2 6426   3.557   0.048   0.561
 1358SOL     OW 6427   3.250   1.573   0.477
 1358SOL    HW1 6428   3.317   1.585   0.403
 1358SOL    HW2 6429   3.210   1.662   0.500
 1359SOL     OW 6430   1.992   1.794   1.851
 1359SOL    HW1 6431   1.951   1.720   1.904
 1359SOL    HW2 6432   2.056   1.845   1.909
 1360SOL     OW 6433   3.142   0.927   0.672
 1360SOL    HW1 6434   3.202   0.846   0.674
 1360SOL    HW2 6435   3.182   0.996   0.612
 1361SOL     OW 6436   2.692   1.273   1.422
 1361SOL    HW1 6437   2.687   1.306   1.517
 1361SOL    HW2 6438   2.606   1.292   1.376
 1362SOL     OW 6439   2.534   1.616   0.154
 1362SOL    HW1 6440   2.543   1.626   0.055
 1362SOL    HW2 6441   2.494   1.527   0.175
 1363SOL     OW 6442   3.512   1.720   1.394
 1363SOL    HW1 6443   3.565   1.730   1.310
 1363SOL    HW2 6444   3.485   1.810   1.428
 1364SOL     OW 6445   3.703   0.175   0.963
 1364SOL    HW1 6446   3.742   0.090   0.927
 1364SOL    HW2 6447   3.605   0.177   0.944
 1365SOL     OW 6448   2.125   0.326   0.720
 1365SOL    HW1 6449   2.046   0.377   0.686
 1365SOL    HW2 6450   2.116   0.311   0.818
 1366SOL     OW 6451   3.056   1.612   0.031
 1366SOL    HW1 6452   3.062   1.519   0.068
 1366SOL    HW2 6453   2.997   1.612  -0.049
 1367SOL     OW 6454   2.684   1.002   1.372
 1367SOL    HW1 6455   2.724   1.001   1.280
 1367SOL    HW2 6456   2.694   1.094   1.412
 1368SOL     OW 6457   2.778   0.910   0.291
 1368SOL    HW1 6458   2.841   0.948   0.223
 1368SOL    HW2 6459   2.818   0.827   0.330
 1369SOL     OW 6460   2.234   1.288   1.490
 1369SOL    HW1 6461   2.221   1.381   1.456
 1369SOL    HW2 6462   2.150   1.236   1.477
 1370SOL     OW 6463   3.476   1.292   1.289
 1370SOL    HW1 6464   3.536   1.295   1.369
 1370SOL    HW2 6465   3.401   1.356   1.302
 1371SOL     OW 6466   2.901   1.098   0.696
 1371SOL    HW1 6467   2.831   1.051   0.750
 1371SOL    HW2 6468   2.960   1.030   0.653
 1372SOL     OW 6469   1.967   1.013   1.726
 1372SOL    HW1 6470   1.890   0.980   1.780
 1372SOL    HW2 6471   2.052   0.983   1.768
 1373SOL     OW 6472   2.534   0.203   1.489
 1373SOL    HW1 6473   2.624   0.187   1.449
 1373SOL    HW2 6474   2.542   0.208   1.588
 1374SOL     OW 6475   3.302   0.856   1.398
 1374SOL    HW1 6476   3.245   0.908   1.335
 1374SOL    HW2 6477   3.398   0.868   1.374
 1375SOL     OW 6478   1.934   0.166   0.318
 1375SOL    HW1 6479   1.917   0.249   0.264
 1375SOL    HW2 6480   2.024   0.129   0.296
 1376SOL     OW 6481   2.475   0.842   1.431
 1376SOL    HW1 6482   2.531   0.923   1.414
 1376SOL    HW2 6483   2.534   0.762   1.434
 1377SOL     OW 6484   3.355   1.767   0.959
 1377SOL    HW1 6485   3.388   1.831   0.890
 1377SOL    HW2 6486   3.421   1.761   1.034
 1378SOL     OW 6487   2.578   0.565   1.708
 1378SOL    HW1 6488   2.597   0.630   1.782
 1378SOL    HW2 6489   2.638   0.485   1.717
 1379SOL     OW 6490   3.312   1.220   1.633
 1379SOL    HW1 6491   3.303   1.210   1.732
 1379SOL    HW2 6492   3.408   1.213   1.607
 1380SOL     OW 6493   2.252   1.741   1.560
 1380SOL    HW1 6494   2.161   1.782   1.558
 1380SOL    HW2 6495   2.245   1.647   1.592
 1381SOL     OW 6496   3.536   0.883   1.254
 1381SOL    HW1 6497   3.509   0.794   1.217
 1381SOL    HW2 6498   3.537   0.951   1.181
 1382SOL     OW 6499   2.456   0.745   0.652
 1382SOL    HW1 6500   2.506   0.830   0.633
 1382SOL    HW2 6501   2.368   0.747   0.604
 1383SOL     OW 6502   3.592   0.934   1.517
 1383SOL    HW1 6503   3.630   1.025   1.532
 1383SOL    HW2 6504   3.584   0.917   1.418
 1384SOL     OW 6505   2.721   1.374   0.016
 1384SOL    HW1 6506   2.675   1.389   0.104
 1384SOL    HW2 6507   2.765   1.459  -0.014
 1385SOL     OW 6508   2.721   0.956   0.861
 1385SOL    HW1 6509   2.775   0.887   0.909
 1385SOL    HW2 6510   2.689   1.025   0.927
 1386SOL     OW 6511   2.945   0.984   0.087
 1386SOL    HW1 6512   2.922   1.037   0.005
 1386SOL    HW2 6513   3.026   0.928   0.068
 1387SOL     OW 6514   3.723   1.569   0.851
 1387SOL    HW1 6515   3.652   1.557   0.781
 1387SOL    HW2 6516   3.724   1.490   0.911
 1388SOL     OW 6517   2.534   1.391   1.624
 1388SOL    HW1 6518   2.456   1.341   1.662
 1388SOL    HW2 6519   2.531   1.486   1.655
 1389SOL     OW 6520   3.686   0.192   1.227
 1389SOL    HW1 6521   3.682   0.102   1.271
 1389SOL    HW2 6522   3.689   0.181   1.128
 1390SOL     OW 6523   2.290   0.424   0.520
 1390SOL    HW1 6524   2.320   0.352   0.458
 1390SOL    HW2 6525   2.251   0.384   0.603
 1391SOL     OW 6526   3.567   1.487   1.104
 1391SOL    HW1 6527   3.474   1.462   1.077
 1391SOL    HW2 6528   3.593   1.437   1.186
 1392SOL     OW 6529   2.179   0.547   1.280
 1392SOL    HW1 6530   2.217   0.488   1.352
 1392SOL    HW2 6531   2.219   0.521   1.192
 1393SOL     OW 6532   2.674   1.586   0.687
 1393SOL    HW1 6533   2.706   1.596   0.593
 1393SOL    HW2 6534   2.595   1.524   0.689
 1394SOL     OW 6535   3.286   0.214   1.112
 1394SOL    HW1 6536   3.338   0.149   1.167
 1394SOL    HW2 6537   3.237   0.277   1.173
 1395SOL     OW 6538   2.632   1.330   0.301
 1395SOL    HW1 6539   2.586   1.243   0.318
 1395SOL    HW2 6540   2.723   1.327   0.342
 1396SOL     OW 6541   2.480   1.567   1.284
 1396SOL    HW1 6542   2.475   1.649   1.341
 1396SOL    HW2 6543   2.569   1.564   1.239
 1397SOL     OW 6544   3.162   0.453   0.691
 1397SOL    HW1 6545   3.103   0.533   0.695
 1397SOL    HW2 6546   3.177   0.418   0.784
 1398SOL     OW 6547   3.455   0.221   0.882
 1398SOL    HW1 6548   3.371   0.220   0.936
 1398SOL    HW2 6549   3.457   0.304   0.826
 1399SOL     OW 6550   1.901   1.077   0.300
 1399SOL    HW1 6551   2.000   1.066   0.291
 1399SOL    HW2 6552   1.861   0.991   0.332
 1400SOL     OW 6553   2.737   1.646   0.337
 1400SOL    HW1 6554   2.660   1.611   0.283
 1400SOL    HW2 6555   2.705   1.717   0.399
 1401SOL     OW 6556   2.092   0.628   1.975
 1401SOL    HW1 6557   1.999   0.626   2.012
 1401SOL    HW2 6558   2.093   0.589   1.883
 1402SOL     OW 6559   2.087   0.275   2.858
 1402SOL    HW1 6560   2.122   0.258   2.950
 1402SOL    HW2 6561   1.999   0.230   2.846
 1403SOL     OW 6562   1.881   0.368   2.509
 1403SOL    HW1 6563   1.799   0.411   2.548
 1403SOL    HW2 6564   1.853   0.295   2.446
 1404SOL     OW 6565   2.431   1.275   3.027
 1404SOL    HW1 6566   2.338   1.268   2.990
 1404SOL    HW2 6567   2.442   1.364   3.071
 1405SOL     OW 6568   3.417   1.511   2.565
 1405SOL    HW1 6569   3.360   1.495   2.646
 1405SOL    HW2 6570   3.358   1.521   2.485
 1406SOL     OW 6571   2.997   0.703   2.579
 1406SOL    HW1 6572   3.054   0.781   2.554
 1406SOL    HW2 6573   2.937   0.729   2.655
 1407SOL     OW 6574   3.617   0.607   2.093
 1407SOL    HW1 6575   3.605   0.594   1.994
 1407SOL    HW2 6576   3.587   0.526   2.142
 1408SOL     OW 6577   2.547   1.012   2.527
 1408SOL    HW1 6578   2.616   0.996   2.597
 1408SOL    HW2 6579   2.474   1.069   2.565
 1409SOL     OW 6580   2.197   1.435   2.923
 1409SOL    HW1 6581   2.119   1.404   2.870
 1409SOL    HW2 6582   2.255   1.493   2.866
 1410SOL     OW 6583   3.322   1.505   3.201
 1410SOL    HW1 6584   3.346   1.599   3.227
 1410SOL    HW2 6585   3.306   1.451   3.283
 1411SOL     OW 6586   3.465   0.447   2.599
 1411SOL    HW1 6587   3.391   0.493   2.549
 1411SOL    HW2 6588   3.516   0.515   2.652
 1412SOL     OW 6589   2.093   1.713   2.345
 1412SOL    HW1 6590   2.127   1.790   2.399
 1412SOL    HW2 6591   2.137   1.713   2.255
 1413SOL     OW 6592   2.092   1.434   2.400
 1413SOL    HW1 6593   2.066   1.530   2.400
 1413SOL    HW2 6594   2.021   1.380   2.445
 1414SOL     OW 6595   2.482   1.786   3.301
 1414SOL    HW1 6596   2.390   1.769   3.336
 1414SOL    HW2 6597   2.510   1.878   3.327
 1415SOL     OW 6598   2.468   0.964   1.985
 1415SOL    HW1 6599   2.475   1.048   1.931
 1415SOL    HW2 6600   2.514   0.977   2.073
 1416SOL     OW 6601   3.456   0.114   3.342
 1416SOL    HW1 6602   3.438   0.181   3.270
 1416SOL    HW2 6603   3.453   0.160   3.431
 1417SOL     OW 6604   3.704   1.767   2.221
 1417SOL    HW1 6605   3.758   1.738   2.301
 1417SOL    HW2 6606   3.734   1.857   2.192
 1418SOL     OW 6607   1.975   0.737   3.459
 1418SOL    HW1 6608   2.063   0.724   3.504
 1418SOL    HW2 6609   1.962   0.834   3.437
 1419SOL     OW 6610   2.671   0.004   2.364
 1419SOL    HW1 6611   2.711   0.095   2.355
 1419SOL    HW2 6612   2.571   0.012   2.370
 1420SOL     OW 6613   3.387   0.999   2.052
 1420SOL    HW1 6614   3.324   0.923   2.065
 1420SOL    HW2 6615   3.435   1.017   2.138
 1421SOL     OW 6616   3.049   1.792   3.478
 1421SOL    HW1 6617   3.073   1.852   3.402
 1421SOL    HW2 6618   3.056   1.697   3.448
 1422SOL     OW 6619   2.179   0.251   3.663
 1422SOL    HW1 6620   2.250   0.322   3.669
 1422SOL    HW2 6621   2.091   0.290   3.691
 1423SOL     OW 6622   3.328   1.417   2.815
 1423SOL    HW1 6623   3.269   1.423   2.895
 1423SOL    HW2 6624   3.313   1.329   2.769
 1424SOL     OW 6625   3.529   1.714   2.434
 1424SOL    HW1 6626   3.488   1.691   2.346
 1424SOL    HW2 6627   3.511   1.640   2.499
 1425SOL     OW 6628   2.460   0.729   2.132
 1425SOL    HW1 6629   2.484   0.798   2.064
 1425SOL    HW2 6630   2.382   0.762   2.186
 1426SOL     OW 6631   3.143   0.345   2.806
 1426SOL    HW1 6632   3.057   0.295   2.793
 1426SOL    HW2 6633   3.205   0.291   2.862
 1427SOL     OW 6634   3.438   1.662   2.169
 1427SOL    HW1 6635   3.527   1.708   2.172
 1427SOL    HW2 6636   3.417   1.638   2.074
 1428SOL     OW 6637   2.669   0.605   3.327
 1428SOL    HW1 6638   2.622   0.602   3.416
 1428SOL    HW2 6639   2.618   0.550   3.261
 1429SOL     OW 6640   2.835   0.890   3.434
 1429SOL    HW1 6641   2.881   0.806   3.405
 1429SOL    HW2 6642   2.779   0.924   3.359
 1430SOL     OW 6643   2.903   0.701   2.291
 1430SOL    HW1 6644   2.929   0.697   2.387
 1430SOL    HW2 6645   2.818   0.650   2.277
 1431SOL     OW 6646   1.992   1.821   3.433
 1431SOL    HW1 6647   1.982   1.806   3.532
 1431SOL    HW2 6648   1.906   1.857   3.397
 1432SOL     OW 6649   2.727   0.348   2.057
 1432SOL    HW1 6650   2.786   0.411   2.008
 1432SOL    HW2 6651   2.746   0.254   2.028
 1433SOL     OW 6652   2.412   0.196   2.747
 1433SOL    HW1 6653   2.407   0.191   2.847
 1433SOL    HW2 6654   2.414   0.292   2.718
 1434SOL     OW 6655   2.213   1.801   2.715
 1434SOL    HW1 6656   2.263   1.715   2.721
 1434SOL    HW2 6657   2.278   1.878   2.712
 1435SOL     OW 6658   3.089   1.550   3.368
 1435SOL    HW1 6659   3.095   1.473   3.432
 1435SOL    HW2 6660   3.037   1.524   3.288
 1436SOL     OW 6661   2.183   0.943   2.104
 1436SOL    HW1 6662   2.265   0.982   2.062
 1436SOL    HW2 6663   2.156   0.861   2.055
 1437SOL     OW 6664   2.323   1.266   3.589
 1437SOL    HW1 6665   2.273   1.267   3.503
 1437SOL    HW2 6666   2.260   1.248   3.665
 1438SOL     OW 6667   2.064   0.285   3.360
 1438SOL    HW1 6668   1.984   0.345   3.347
 1438SOL    HW2 6669   2.054   0.236   3.446
 1439SOL     OW 6670   3.494   1.377   1.943
 1439SOL    HW1 6671   3.462   1.471   1.933
 1439SOL    HW2 6672   3.418   1.314   1.931
 1440SOL     OW 6673   2.326   1.743   2.185
 1440SOL    HW1 6674   2.359   1.782   2.271
 1440SOL    HW2 6675   2.402   1.736   2.120
 1441SOL     OW 6676   3.262   0.107   2.288
 1441SOL    HW1 6677   3.238   0.070   2.198
 1441SOL    HW2 6678   3.361   0.123   2.292
 1442SOL     OW 6679   2.111   1.785   3.103
 1442SOL    HW1 6680   2.168   1.720   3.153
 1442SOL    HW2 6681   2.095   1.752   3.010
 1443SOL     OW 6682   2.802   1.698   2.766
 1443SOL    HW1 6683   2.882   1.641   2.787
 1443SOL    HW2 6684   2.753   1.658   2.689
 1444SOL     OW 6685   3.409   0.222   3.591
 1444SOL    HW1 6686   3.404   0.259   3.683
 1444SOL    HW2 6687   3.337   0.153   3.579
 1445SOL     OW 6688   2.476   0.122   1.979
 1445SOL    HW1 6689   2.574   0.100   1.986
 1445SOL    HW2 6690   2.445   0.105   1.886
 1446SOL     OW 6691   2.750   1.514   3.057
 1446SOL    HW1 6692   2.727   1.489   2.963
 1446SOL    HW2 6693   2.811   1.445   3.096
 1447SOL     OW 6694   2.784   0.503   2.761
 1447SOL    HW1 6695   2.759   0.494   2.665
 1447SOL    HW2 6696   2.832   0.421   2.792
 1448SOL     OW 6697   2.401   0.064   2.374
 1448SOL    HW1 6698   2.320   0.065   2.432
 1448SOL    HW2 6699   2.404   0.147   2.319
 1449SOL     OW 6700   3.296   1.188   1.903
 1449SOL    HW1 6701   3.328   1.112   1.960
 1449SOL    HW2 6702   3.204   1.215   1.933
 1450SOL     OW 6703   2.159   0.035   2.033
 1450SOL    HW1 6704   2.208   0.119   2.012
 1450SOL    HW2 6705   2.221  -0.030   2.078
 1451SOL     OW 6706   2.797   0.236   2.342
 1451SOL    HW1 6707   2.749   0.277   2.264
 1451SOL    HW2 6708   2.896   0.234   2.323
 1452SOL     OW 6709   3.089   1.570   2.655
 1452SOL    HW1 6710   3.110   1.644   2.590
 1452SOL    HW2 6711   3.157   1.570   2.728
 1453SOL     OW 6712   2.321   1.152   2.603
 1453SOL    HW1 6713   2.250   1.125   2.668
 1453SOL    HW2 6714   2.295   1.124   2.510
 1454SOL     OW 6715   3.133   1.797   2.453
 1454SOL    HW1 6716   3.177   1.861   2.389
 1454SOL    HW2 6717   3.083   1.849   2.523
 1455SOL     OW 6718   2.894   0.549   1.878
 1455SOL    HW1 6719   2.853   0.631   1.839
 1455SOL    HW2 6720   2.958   0.575   1.951
 1456SOL     OW 6721   1.940   0.556   3.248
 1456SOL    HW1 6722   2.032   0.555   3.207
 1456SOL    HW2 6723   1.934   0.630   3.315
 1457SOL     OW 6724   2.423   0.222   3.009
 1457SOL    HW1 6725   2.461   0.138   3.046
 1457SOL    HW2 6726   2.335   0.241   3.053
 1458SOL     OW 6727   2.728   0.454   2.504
 1458SOL    HW1 6728   2.696   0.526   2.442
 1458SOL    HW2 6729   2.752   0.373   2.451
 1459SOL     OW 6730   2.879   0.039   2.615
 1459SOL    HW1 6731   2.807   0.044   2.546
 1459SOL    HW2 6732   2.855  -0.030   2.684
 1460SOL     OW 6733   3.291   1.173   2.729
 1460SOL    HW1 6734   3.236   1.089   2.722
 1460SOL    HW2 6735   3.317   1.202   2.637
 1461SOL     OW 6736   2.350   1.385   2.036
 1461SOL    HW1 6737   2.263   1.370   2.083
 1461SOL    HW2 6738   2.333   1.411   1.941
 1462SOL     OW 6739   3.252   0.575   1.940
 1462SOL    HW1 6740   3.198   0.554   2.021
 1462SOL    HW2 6741   3.343   0.534   1.949
 1463SOL     OW 6742   2.389   0.256   2.190
 1463SOL    HW1 6743   2.416   0.197   2.115
 1463SOL    HW2 6744   2.389   0.351   2.159
 1464SOL     OW 6745   3.616   1.223   3.450
 1464SOL    HW1 6746   3.707   1.184   3.437
 1464SOL    HW2 6747   3.624   1.319   3.474
 1465SOL     OW 6748   2.926   1.347   3.202
 1465SOL    HW1 6749   2.846   1.324   3.257
 1465SOL    HW2 6750   3.009   1.321   3.251
 1466SOL     OW 6751   3.500   1.099   2.941
 1466SOL    HW1 6752   3.505   1.180   3.000
 1466SOL    HW2 6753   3.414   1.101   2.890
 1467SOL     OW 6754   2.567   1.050   2.230
 1467SOL    HW1 6755   2.553   1.057   2.329
 1467SOL    HW2 6756   2.651   0.999   2.212
 1468SOL     OW 6757   2.229   1.100   2.363
 1468SOL    HW1 6758   2.222   1.183   2.307
 1468SOL    HW2 6759   2.233   1.020   2.303
 1469SOL     OW 6760   3.114   1.348   2.250
 1469SOL    HW1 6761   3.164   1.425   2.290
 1469SOL    HW2 6762   3.019   1.350   2.282
 1470SOL     OW 6763   3.134   1.445   3.004
 1470SOL    HW1 6764   3.181   1.458   3.091
 1470SOL    HW2 6765   3.068   1.371   3.013
 1471SOL     OW 6766   2.216   1.510   3.191
 1471SOL    HW1 6767   2.195   1.466   3.104
 1471SOL    HW2 6768   2.313   1.536   3.194
 1472SOL     OW 6769   2.264   0.751   3.460
 1472SOL    HW1 6770   2.332   0.806   3.413
 1472SOL    HW2 6771   2.304   0.663   3.487
 1473SOL     OW 6772   2.875   0.105   3.632
 1473SOL    HW1 6773   2.881   0.190   3.580
 1473SOL    HW2 6774   2.907   0.029   3.575
 1474SOL     OW 6775   2.366   0.050   3.602
 1474SOL    HW1 6776   2.324  -0.007   3.532
 1474SOL    HW2 6777   2.300   0.119   3.634
 1475SOL     OW 6778   3.222   0.862   2.907
 1475SOL    HW1 6779   3.147   0.862   2.841
 1475SOL    HW2 6780   3.259   0.770   2.916
 1476SOL     OW 6781   3.071   0.525   2.137
 1476SOL    HW1 6782   3.084   0.441   2.191
 1476SOL    HW2 6783   3.042   0.599   2.197
 1477SOL     OW 6784   2.169   0.213   3.093
 1477SOL    HW1 6785   2.146   0.250   3.183
 1477SOL    HW2 6786   2.139   0.118   3.087
 1478SOL     OW 6787   2.169   0.063   2.480
 1478SOL    HW1 6788   2.158   0.157   2.513
 1478SOL    HW2 6789   2.164   0.000   2.557
 1479SOL     OW 6790   3.484   0.367   2.236
 1479SOL    HW1 6791   3.486   0.291   2.300
 1479SOL    HW2 6792   3.436   0.444   2.276
 1480SOL     OW 6793   2.885   0.766   2.828
 1480SOL    HW1 6794   2.900   0.787   2.924
 1480SOL    HW2 6795   2.855   0.671   2.819
 1481SOL     OW 6796   2.842   1.573   3.562
 1481SOL    HW1 6797   2.822   1.617   3.474
 1481SOL    HW2 6798   2.881   1.482   3.546
 1482SOL     OW 6799   3.721   1.518   3.467
 1482SOL    HW1 6800   3.735   1.545   3.372
 1482SOL    HW2 6801   3.804   1.540   3.520
 1483SOL     OW 6802   2.212   0.898   3.666
 1483SOL    HW1 6803   2.288   0.942   3.714
 1483SOL    HW2 6804   2.247   0.851   3.584
 1484SOL     OW 6805   3.165   0.838   1.904
 1484SOL    HW1 6806   3.199   0.745   1.919
 1484SOL    HW2 6807   3.183   0.865   1.809
 1485SOL     OW 6808   3.000   0.380   3.540
 1485SOL    HW1 6809   2.955   0.443   3.604
 1485SOL    HW2 6810   3.093   0.411   3.523
 1486SOL     OW 6811   1.950   1.801   2.789
 1486SOL    HW1 6812   1.908   1.715   2.762
 1486SOL    HW2 6813   2.044   1.804   2.755
 1487SOL     OW 6814   1.902   0.544   2.976
 1487SOL    HW1 6815   1.987   0.511   2.935
 1487SOL    HW2 6816   1.915   0.559   3.074
 1488SOL     OW 6817   2.051   0.520   3.584
 1488SOL    HW1 6818   2.110   0.480   3.514
 1488SOL    HW2 6819   1.993   0.591   3.543
 1489SOL     OW 6820   2.677   0.572   2.187
 1489SOL    HW1 6821   2.684   0.483   2.141
 1489SOL    HW2 6822   2.583   0.606   2.179
 1490SOL     OW 6823   2.114   1.564   3.606
 1490SOL    HW1 6824   2.084   1.621   3.682
 1490SOL    HW2 6825   2.107   1.467   3.632
 1491SOL     OW 6826   2.533   0.464   3.131
 1491SOL    HW1 6827   2.499   0.375   3.101
 1491SOL    HW2 6828   2.559   0.518   3.051
 1492SOL     OW 6829   2.792   1.678   3.327
 1492SOL    HW1 6830   2.768   1.660   3.232
 1492SOL    HW2 6831   2.822   1.772   3.337
 1493SOL     OW 6832   2.335   0.500   2.053
 1493SOL    HW1 6833   2.396   0.580   2.057
 1493SOL    HW2 6834   2.240   0.531   2.060
 1494SOL     OW 6835   2.021   1.137   3.328
 1494SOL    HW1 6836   2.043   1.076   3.404
 1494SOL    HW2 6837   2.031   1.088   3.242
 1495SOL     OW 6838   3.164   0.855   2.171
 1495SOL    HW1 6839   3.078   0.824   2.213
 1495SOL    HW2 6840   3.160   0.841   2.072
 1496SOL     OW 6841   3.621   1.747   3.016
 1496SOL    HW1 6842   3.682   1.777   2.943
 1496SOL    HW2 6843   3.583   1.658   2.994
 1497SOL     OW 6844   3.114   1.731   2.990
 1497SOL    HW1 6845   3.198   1.736   2.936
 1497SOL    HW2 6846   3.091   1.635   3.008
 1498SOL     OW 6847   1.945   1.258   2.884
 1498SOL    HW1 6848   1.940   1.257   2.984
 1498SOL    HW2 6849   1.862   1.217   2.846
 1499SOL     OW 6850   2.550   1.662   3.578
 1499SOL    HW1 6851   2.494   1.743   3.587
 1499SOL    HW2 6852   2.602   1.666   3.492
 1500SOL     OW 6853   3.588   0.135   2.385
 1500SOL    HW1 6854   3.661   0.118   2.318
 1500SOL    HW2 6855   3.557   0.048   2.423
 1501SOL     OW 6856   3.250   1.573   2.339
 1501SOL    HW1 6857   3.317   1.585   2.265
 1501SOL    HW2 6858   3.210   1.662   2.362
 1502SOL     OW 6859   1.992   1.794   3.713
 1502SOL    HW1 6860   1.951   1.720   3.766
 1502SOL    HW2 6861   2.056   1.845   3.771
 1503SOL     OW 6862   2.534   1.616   2.016
 1503SOL    HW1 6863   2.543   1.626   1.917
 1503SOL    HW2 6864   2.494   1.527   2.037
 1504SOL     OW 6865   3.512   1.720   3.256
 1504SOL    HW1 6866   3.565   1.730   3.172
 1504SOL    HW2 6867   3.485   1.810   3.290
 1505SOL     OW 6868   3.703   0.175   2.825
 1505SOL    HW1 6869   3.742   0.090   2.789
 1505SOL    HW2 6870   3.605   0.177   2.806
 1506SOL     OW 6871   2.125   0.326   2.582
 1506SOL    HW1 6872   2.046   0.377   2.548
 1506SOL    HW2 6873   2.116   0.311   2.680
 1507SOL     OW 6874   3.056   1.612   1.893
 1507SOL    HW1 6875   3.062   1.519   1.930
 1507SOL    HW2 6876   2.997   1.612   1.813
 1508SOL     OW 6877   2.778   0.910   2.153
 1508SOL    HW1 6878   2.841   0.948   2.085
 1508SOL    HW2 6879   2.818   0.827   2.192
 1509SOL     OW 6880   3.366   1.607   1.906
 1509SOL    HW1 6881   3.274   1.644   1.913
 1509SOL    HW2 6882   3.404   1.627   1.816
 1510SOL     OW 6883   2.234   1.288   3.352
 1510SOL    HW1 6884   2.221   1.381   3.318
 1510SOL    HW2 6885   2.150   1.236   3.339
 1511SOL     OW 6886   3.476   1.292   3.151
 1511SOL    HW1 6887   3.536   1.295   3.231
 1511SOL    HW2 6888   3.401   1.356   3.164
 1512SOL     OW 6889   2.876   0.236   2.833
 1512SOL    HW1 6890   2.868   0.200   2.740
 1512SOL    HW2 6891   2.874   0.160   2.898
 1513SOL     OW 6892   2.117   1.348   2.152
 1513SOL    HW1 6893   2.021   1.349   2.125
 1513SOL    HW2 6894   2.129   1.401   2.236
 1514SOL     OW 6895   1.967   1.013   3.588
 1514SOL    HW1 6896   1.890   0.980   3.642
 1514SOL    HW2 6897   2.052   0.983   3.630
 1515SOL     OW 6898   1.937   0.345   1.895
 1515SOL    HW1 6899   1.845   0.317   1.866
 1515SOL    HW2 6900   1.968   0.422   1.839
 1516SOL     OW 6901   1.934   0.166   2.180
 1516SOL    HW1 6902   1.917   0.249   2.126
 1516SOL    HW2 6903   2.024   0.129   2.158
 1517SOL     OW 6904   3.045   1.335   1.981
 1517SOL    HW1 6905   2.946   1.324   1.983
 1517SOL    HW2 6906   3.079   1.350   2.074
 1518SOL     OW 6907   3.355   1.767   2.821
 1518SOL    HW1 6908   3.388   1.831   2.752
 1518SOL    HW2 6909   3.421   1.761   2.896
 1519SOL     OW 6910   2.578   0.565   3.570
 1519SOL    HW1 6911   2.597   0.630   3.644
 1519SOL    HW2 6912   2.638   0.485   3.579
 1520SOL     OW 6913   3.312   1.220   3.495
 1520SOL    HW1 6914   3.303   1.210   3.594
 1520SOL    HW2 6915   3.408   1.213   3.469
 1521SOL     OW 6916   2.252   1.741   3.422
 1521SOL    HW1 6917   2.161   1.782   3.420
 1521SOL    HW2 6918   2.245   1.647   3.454
 1522SOL     OW 6919   3.087   0.325   2.311
 1522SOL    HW1 6920   3.152   0.251   2.300
 1522SOL    HW2 6921   3.107   0.375   2.395
 1523SOL     OW 6922   3.592   0.934   3.379
 1523SOL    HW1 6923   3.630   1.025   3.394
 1523SOL    HW2 6924   3.584   0.917   3.280
 1524SOL     OW 6925   2.721   1.374   1.878
 1524SOL    HW1 6926   2.675   1.389   1.966
 1524SOL    HW2 6927   2.765   1.459   1.848
 1525SOL     OW 6928   2.523   1.790   2.815
 1525SOL    HW1 6929   2.477   1.878   2.802
 1525SOL    HW2 6930   2.622   1.802   2.808
 1526SOL     OW 6931   2.721   0.956   2.723
 1526SOL    HW1 6932   2.775   0.887   2.771
 1526SOL    HW2 6933   2.689   1.025   2.789
 1527SOL     OW 6934   3.723   1.569   2.713
 1527SOL    HW1 6935   3.652   1.557   2.643
 1527SOL    HW2 6936   3.724   1.490   2.773
 1528SOL     OW 6937   2.083   1.314   3.706
 1528SOL    HW1 6938   2.018   1.241   3.685
 1528SOL    HW2 6939   2.087   1.328   3.804
 1529SOL     OW 6940   1.941   1.240   2.515
 1529SOL    HW1 6941   1.940   1.193   2.603
 1529SOL    HW2 6942   2.023   1.212   2.464
 1530SOL     OW 6943   2.534   1.391   3.486
 1530SOL    HW1 6944   2.456   1.341   3.524
 1530SOL    HW2 6945   2.531   1.486   3.517
 1531SOL     OW 6946   3.686   0.192   3.089
 1531SOL    HW1 6947   3.682   0.102   3.133
 1531SOL    HW2 6948   3.689   0.181   2.990
 1532SOL     OW 6949   2.290   0.424   2.382
 1532SOL    HW1 6950   2.320   0.352   2.320
 1532SOL    HW2 6951   2.251   0.384   2.465
 1533SOL     OW 6952   3.567   1.487   2.966
 1533SOL    HW1 6953   3.474   1.462   2.939
 1533SOL    HW2 6954   3.593   1.437   3.048
 1534SOL     OW 6955   2.179   0.547   3.142
 1534SOL    HW1 6956   2.217   0.488   3.214
 1534SOL    HW2 6957   2.219   0.521   3.054
 1535SOL     OW 6958   3.286   0.214   2.974
 1535SOL    HW1 6959   3.338   0.149   3.029
 1535SOL    HW2 6960   3.237   0.277   3.035
 1536SOL     OW 6961   2.863   0.034   3.016
 1536SOL    HW1 6962   2.800  -0.038   2.985
 1536SOL    HW2 6963   2.956  -0.002   3.016
 1537SOL     OW 6964   2.480   1.567   3.146
 1537SOL    HW1 6965   2.475   1.649   3.203
 1537SOL    HW2 6966   2.569   1.564   3.101
 1538SOL     OW 6967   3.214   0.052   2.030
 1538SOL    HW1 6968   3.249   0.011   1.946
 1538SOL    HW2 6969   3.124   0.014   2.050
 1539SOL     OW 6970   3.162   0.453   2.553
 1539SOL    HW1 6971   3.103   0.533   2.557
 1539SOL    HW2 6972   3.177   0.418   2.646
 1540SOL     OW 6973   3.455   0.221   2.744
 1540SOL    HW1 6974   3.371   0.220   2.798
 1540SOL    HW2 6975   3.457   0.304   2.688
 1541SOL     OW 6976   1.901   1.077   2.162
 1541SOL    HW1 6977   2.000   1.066   2.153
 1541SOL    HW2 6978   1.861   0.991   2.194
 1542SOL     OW 6979   2.737   1.646   2.199
 1542SOL    HW1 6980   2.660   1.611   2.145
 1542SOL    HW2 6981   2.705   1.717   2.261
 1543SOL     OW 6982   2.092   0.628   3.837
 1543SOL    HW1 6983   1.999   0.626   3.874
 1543SOL    HW2 6984   2.093   0.589   3.745
 1544SOL     OW 6985   2.087   0.275   4.720
 1544SOL    HW1 6986   2.122   0.258   4.812
 1544SOL    HW2 6987   1.999   0.230   4.708
 1545SOL     OW 6988   1.881   0.368   4.371
 1545SOL    HW1 6989   1.799   0.411   4.410
 1545SOL    HW2 6990   1.853   0.295   4.308
 1546SOL     OW 6991   2.431   1.275   4.889
 1546SOL    HW1 6992   2.338   1.268   4.852
 1546SOL    HW2 6993   2.442   1.364   4.933
 1547SOL     OW 6994   3.417   1.511   4.427
 1547SOL    HW1 6995   3.360   1.495   4.508
 1547SOL    HW2 6996   3.358   1.521   4.347
 1548SOL     OW 6997   2.997   0.703   4.441
 1548SOL    HW1 6998   3.054   0.781   4.416
 1548SOL    HW2 6999   2.937   0.729   4.517
 1549SOL     OW 7000   3.617   0.607   3.955
 1549SOL    HW1 7001   3.605   0.594   3.856
 1549SOL    HW2 7002   3.587   0.526   4.004
 1550SOL     OW 7003   2.630   1.144   4.747
 1550SOL    HW1 7004   2.552   1.161   4.807
 1550SOL    HW2 7005   2.664   1.231   4.711
 1551SOL     OW 7006   2.547   1.012   4.389
 1551SOL    HW1 7007   2.616   0.996   4.459
 1551SOL    HW2 7008   2.474   1.069   4.427
 1552SOL     OW 7009   2.197   1.435   4.785
 1552SOL    HW1 7010   2.119   1.404   4.732
 1552SOL    HW2 7011   2.255   1.493   4.728
 1553SOL     OW 7012   3.465   0.447   4.461
 1553SOL    HW1 7013   3.391   0.493   4.411
 1553SOL    HW2 7014   3.516   0.515   4.514
 1554SOL     OW 7015   2.093   1.713   4.207
 1554SOL    HW1 7016   2.127   1.790   4.261
 1554SOL    HW2 7017   2.137   1.713   4.117
 1555SOL     OW 7018   2.092   1.434   4.262
 1555SOL    HW1 7019   2.066   1.530   4.262
 1555SOL    HW2 7020   2.021   1.380   4.307
 1556SOL     OW 7021   2.482   1.786   5.163
 1556SOL    HW1 7022   2.390   1.769   5.198
 1556SOL    HW2 7023   2.510   1.878   5.189
 1557SOL     OW 7024   2.468   0.964   3.847
 1557SOL    HW1 7025   2.475   1.048   3.793
 1557SOL    HW2 7026   2.514   0.977   3.935
 1558SOL     OW 7027   1.984   0.643   4.287
 1558SOL    HW1 7028   1.939   0.555   4.304
 1558SOL    HW2 7029   1.983   0.697   4.371
 1559SOL     OW 7030   3.704   1.767   4.083
 1559SOL    HW1 7031   3.758   1.738   4.163
 1559SOL    HW2 7032   3.734   1.857   4.054
 1560SOL     OW 7033   1.889   1.596   3.841
 1560SOL    HW1 7034   1.870   1.500   3.862
 1560SOL    HW2 7035   1.856   1.654   3.916
 1561SOL     OW 7036   3.551   0.922   4.336
 1561SOL    HW1 7037   3.646   0.893   4.344
 1561SOL    HW2 7038   3.543   0.987   4.261
 1562SOL     OW 7039   3.503   1.108   4.156
 1562SOL    HW1 7040   3.589   1.110   4.104
 1562SOL    HW2 7041   3.517   1.155   4.244
 1563SOL     OW 7042   2.475   1.365   4.450
 1563SOL    HW1 7043   2.426   1.278   4.459
 1563SOL    HW2 7044   2.452   1.408   4.363
 1564SOL     OW 7045   2.671   0.004   4.226
 1564SOL    HW1 7046   2.711   0.095   4.217
 1564SOL    HW2 7047   2.571   0.012   4.232
 1565SOL     OW 7048   3.387   0.999   3.914
 1565SOL    HW1 7049   3.324   0.923   3.927
 1565SOL    HW2 7050   3.435   1.017   4.000
 1566SOL     OW 7051   3.328   1.417   4.677
 1566SOL    HW1 7052   3.269   1.423   4.757
 1566SOL    HW2 7053   3.313   1.329   4.631
 1567SOL     OW 7054   3.529   1.714   4.296
 1567SOL    HW1 7055   3.488   1.691   4.208
 1567SOL    HW2 7056   3.511   1.640   4.361
 1568SOL     OW 7057   2.460   0.729   3.994
 1568SOL    HW1 7058   2.484   0.798   3.926
 1568SOL    HW2 7059   2.382   0.762   4.048
 1569SOL     OW 7060   3.143   0.345   4.668
 1569SOL    HW1 7061   3.057   0.295   4.655
 1569SOL    HW2 7062   3.205   0.291   4.724
 1570SOL     OW 7063   3.438   1.662   4.031
 1570SOL    HW1 7064   3.527   1.708   4.034
 1570SOL    HW2 7065   3.417   1.638   3.936
 1571SOL     OW 7066   2.853   0.410   4.966
 1571SOL    HW1 7067   2.776   0.444   5.020
 1571SOL    HW2 7068   2.819   0.359   4.887
 1572SOL     OW 7069   2.903   0.701   4.153
 1572SOL    HW1 7070   2.929   0.697   4.249
 1572SOL    HW2 7071   2.818   0.650   4.139
 1573SOL     OW 7072   1.938   0.811   4.513
 1573SOL    HW1 7073   2.037   0.799   4.522
 1573SOL    HW2 7074   1.914   0.906   4.534
 1574SOL     OW 7075   2.727   0.348   3.919
 1574SOL    HW1 7076   2.786   0.411   3.870
 1574SOL    HW2 7077   2.746   0.254   3.890
 1575SOL     OW 7078   3.224   1.144   4.269
 1575SOL    HW1 7079   3.307   1.115   4.221
 1575SOL    HW2 7080   3.175   1.211   4.213
 1576SOL     OW 7081   2.412   0.196   4.609
 1576SOL    HW1 7082   2.407   0.191   4.709
 1576SOL    HW2 7083   2.414   0.292   4.580
 1577SOL     OW 7084   2.183   0.943   3.966
 1577SOL    HW1 7085   2.265   0.982   3.924
 1577SOL    HW2 7086   2.156   0.861   3.917
 1578SOL     OW 7087   3.320   0.735   4.452
 1578SOL    HW1 7088   3.315   0.670   4.527
 1578SOL    HW2 7089   3.400   0.794   4.465
 1579SOL     OW 7090   3.494   1.377   3.805
 1579SOL    HW1 7091   3.462   1.471   3.795
 1579SOL    HW2 7092   3.418   1.314   3.793
 1580SOL     OW 7093   2.326   1.743   4.047
 1580SOL    HW1 7094   2.359   1.782   4.133
 1580SOL    HW2 7095   2.402   1.736   3.982
 1581SOL     OW 7096   2.111   1.785   4.965
 1581SOL    HW1 7097   2.168   1.720   5.015
 1581SOL    HW2 7098   2.095   1.752   4.872
 1582SOL     OW 7099   2.802   1.698   4.628
 1582SOL    HW1 7100   2.882   1.641   4.649
 1582SOL    HW2 7101   2.753   1.658   4.551
 1583SOL     OW 7102   2.244   0.700   4.204
 1583SOL    HW1 7103   2.289   0.610   4.201
 1583SOL    HW2 7104   2.150   0.689   4.237
 1584SOL     OW 7105   2.476   0.122   3.841
 1584SOL    HW1 7106   2.574   0.100   3.848
 1584SOL    HW2 7107   2.445   0.105   3.748
 1585SOL     OW 7108   2.665   1.402   4.648
 1585SOL    HW1 7109   2.755   1.416   4.606
 1585SOL    HW2 7110   2.594   1.404   4.577
 1586SOL     OW 7111   2.784   0.503   4.623
 1586SOL    HW1 7112   2.759   0.494   4.527
 1586SOL    HW2 7113   2.832   0.421   4.654
 1587SOL     OW 7114   2.401   0.064   4.236
 1587SOL    HW1 7115   2.320   0.065   4.294
 1587SOL    HW2 7116   2.404   0.147   4.181
 1588SOL     OW 7117   2.159   0.035   3.895
 1588SOL    HW1 7118   2.208   0.119   3.874
 1588SOL    HW2 7119   2.221  -0.030   3.940
 1589SOL     OW 7120   2.797   0.236   4.204
 1589SOL    HW1 7121   2.749   0.277   4.126
 1589SOL    HW2 7122   2.896   0.234   4.185
 1590SOL     OW 7123   3.089   1.570   4.517
 1590SOL    HW1 7124   3.110   1.644   4.452
 1590SOL    HW2 7125   3.157   1.570   4.590
 1591SOL     OW 7126   2.321   1.152   4.465
 1591SOL    HW1 7127   2.250   1.125   4.530
 1591SOL    HW2 7128   2.295   1.124   4.372
 1592SOL     OW 7129   3.133   1.797   4.315
 1592SOL    HW1 7130   3.177   1.861   4.251
 1592SOL    HW2 7131   3.083   1.849   4.385
 1593SOL     OW 7132   2.894   0.549   3.740
 1593SOL    HW1 7133   2.853   0.631   3.701
 1593SOL    HW2 7134   2.958   0.575   3.813
 1594SOL     OW 7135   2.423   0.222   4.871
 1594SOL    HW1 7136   2.461   0.138   4.908
 1594SOL    HW2 7137   2.335   0.241   4.915
 1595SOL     OW 7138   2.728   0.454   4.366
 1595SOL    HW1 7139   2.696   0.526   4.304
 1595SOL    HW2 7140   2.752   0.373   4.313
 1596SOL     OW 7141   3.291   1.173   4.591
 1596SOL    HW1 7142   3.236   1.089   4.584
 1596SOL    HW2 7143   3.317   1.202   4.499
 1597SOL     OW 7144   3.719   0.833   4.101
 1597SOL    HW1 7145   3.761   0.769   4.165
 1597SOL    HW2 7146   3.681   0.782   4.023
 1598SOL     OW 7147   2.350   1.385   3.898
 1598SOL    HW1 7148   2.263   1.370   3.945
 1598SOL    HW2 7149   2.333   1.411   3.803
 1599SOL     OW 7150   3.526   1.280   4.381
 1599SOL    HW1 7151   3.625   1.288   4.395
 1599SOL    HW2 7152   3.481   1.364   4.412
 1600SOL     OW 7153   3.252   0.575   3.802
 1600SOL    HW1 7154   3.198   0.554   3.883
 1600SOL    HW2 7155   3.343   0.534   3.811
 1601SOL     OW 7156   2.389   0.256   4.052
 1601SOL    HW1 7157   2.416   0.197   3.977
 1601SOL    HW2 7158   2.389   0.351   4.021
 1602SOL     OW 7159   2.272   0.813   4.975
 1602SOL    HW1 7160   2.358   0.825   5.025
 1602SOL    HW2 7161   2.230   0.726   5.002
 1603SOL     OW 7162   2.229   1.100   4.225
 1603SOL    HW1 7163   2.222   1.183   4.169
 1603SOL    HW2 7164   2.233   1.020   4.165
 1604SOL     OW 7165   2.428   0.537   4.589
 1604SOL    HW1 7166   2.440   0.603   4.515
 1604SOL    HW2 7167   2.474   0.571   4.672
 1605SOL     OW 7168   3.114   1.348   4.112
 1605SOL    HW1 7169   3.164   1.425   4.152
 1605SOL    HW2 7170   3.019   1.350   4.144
 1606SOL     OW 7171   3.134   1.445   4.866
 1606SOL    HW1 7172   3.181   1.458   4.953
 1606SOL    HW2 7173   3.068   1.371   4.875
 1607SOL     OW 7174   3.444   0.639   4.196
 1607SOL    HW1 7175   3.413   0.700   4.269
 1607SOL    HW2 7176   3.494   0.691   4.127
 1608SOL     OW 7177   2.435   0.870   4.753
 1608SOL    HW1 7178   2.479   0.959   4.744
 1608SOL    HW2 7179   2.372   0.870   4.830
 1609SOL     OW 7180   3.222   0.862   4.769
 1609SOL    HW1 7181   3.147   0.862   4.703
 1609SOL    HW2 7182   3.259   0.770   4.778
 1610SOL     OW 7183   3.071   0.525   3.999
 1610SOL    HW1 7184   3.084   0.441   4.053
 1610SOL    HW2 7185   3.042   0.599   4.059
 1611SOL     OW 7186   2.169   0.213   4.955
 1611SOL    HW1 7187   2.146   0.250   5.045
 1611SOL    HW2 7188   2.139   0.118   4.949
 1612SOL     OW 7189   2.594   0.634   4.788
 1612SOL    HW1 7190   2.653   0.608   4.712
 1612SOL    HW2 7191   2.566   0.730   4.777
 1613SOL     OW 7192   2.169   0.063   4.342
 1613SOL    HW1 7193   2.158   0.157   4.375
 1613SOL    HW2 7194   2.164   0.000   4.419
 1614SOL     OW 7195   3.484   0.367   4.098
 1614SOL    HW1 7196   3.486   0.291   4.162
 1614SOL    HW2 7197   3.436   0.444   4.138
 1615SOL     OW 7198   2.885   0.766   4.690
 1615SOL    HW1 7199   2.900   0.787   4.786
 1615SOL    HW2 7200   2.855   0.671   4.681
 1616SOL     OW 7201   3.402   0.274   3.849
 1616SOL    HW1 7202   3.341   0.199   3.872
 1616SOL    HW2 7203   3.424   0.326   3.932
 1617SOL     OW 7204   2.930   1.333   4.573
 1617SOL    HW1 7205   2.937   1.249   4.518
 1617SOL    HW2 7206   2.992   1.402   4.537
 1618SOL     OW 7207   2.181   0.810   4.673
 1618SOL    HW1 7208   2.274   0.846   4.678
 1618SOL    HW2 7209   2.175   0.725   4.725
 1619SOL     OW 7210   2.201   0.509   4.730
 1619SOL    HW1 7211   2.149   0.426   4.713
 1619SOL    HW2 7212   2.278   0.514   4.666
 1620SOL     OW 7213   1.870   1.326   3.924
 1620SOL    HW1 7214   1.777   1.347   3.893
 1620SOL    HW2 7215   1.880   1.227   3.937
 1621SOL     OW 7216   2.366   1.568   4.634
 1621SOL    HW1 7217   2.432   1.642   4.643
 1621SOL    HW2 7218   2.410   1.489   4.592
 1622SOL     OW 7219   2.864   0.796   4.962
 1622SOL    HW1 7220   2.905   0.764   5.048
 1622SOL    HW2 7221   2.768   0.769   4.959
 1623SOL     OW 7222   1.902   0.544   4.838
 1623SOL    HW1 7223   1.987   0.511   4.797
 1623SOL    HW2 7224   1.915   0.559   4.936
 1624SOL     OW 7225   2.677   0.572   4.049
 1624SOL    HW1 7226   2.684   0.483   4.003
 1624SOL    HW2 7227   2.583   0.606   4.041
 1625SOL     OW 7228   3.519   0.604   4.930
 1625SOL    HW1 7229   3.481   0.535   4.992
 1625SOL    HW2 7230   3.601   0.568   4.886
 1626SOL     OW 7231   2.792   1.678   5.189
 1626SOL    HW1 7232   2.768   1.660   5.094
 1626SOL    HW2 7233   2.822   1.772   5.199
 1627SOL     OW 7234   2.335   0.500   3.915
 1627SOL    HW1 7235   2.396   0.580   3.919
 1627SOL    HW2 7236   2.240   0.531   3.922
 1628SOL     OW 7237   3.164   0.855   4.033
 1628SOL    HW1 7238   3.078   0.824   4.075
 1628SOL    HW2 7239   3.160   0.841   3.934
 1629SOL     OW 7240   3.621   1.747   4.878
 1629SOL    HW1 7241   3.682   1.777   4.805
 1629SOL    HW2 7242   3.583   1.658   4.856
 1630SOL     OW 7243   3.114   1.731   4.852
 1630SOL    HW1 7244   3.198   1.736   4.798
 1630SOL    HW2 7245   3.091   1.635   4.870
 1631SOL     OW 7246   1.945   1.258   4.746
 1631SOL    HW1 7247   1.940   1.257   4.846
 1631SOL    HW2 7248   1.862   1.217   4.708
 1632SOL     OW 7249   3.588   0.135   4.247
 1632SOL    HW1 7250   3.661   0.118   4.180
 1632SOL    HW2 7251   3.557   0.048   4.285
 1633SOL     OW 7252   3.250   1.573   4.201
 1633SOL    HW1 7253   3.317   1.585   4.127
 1633SOL    HW2 7254   3.210   1.662   4.224
 1634SOL     OW 7255   3.142   0.927   4.396
 1634SOL    HW1 7256   3.202   0.846   4.398
 1634SOL    HW2 7257   3.182   0.996   4.336
 1635SOL     OW 7258   2.534   1.616   3.878
 1635SOL    HW1 7259   2.543   1.626   3.779
 1635SOL    HW2 7260   2.494   1.527   3.899
 1636SOL     OW 7261   3.512   1.720   5.118
 1636SOL    HW1 7262   3.565   1.730   5.034
 1636SOL    HW2 7263   3.485   1.810   5.152
 1637SOL     OW 7264   3.703   0.175   4.687
 1637SOL    HW1 7265   3.742   0.090   4.651
 1637SOL    HW2 7266   3.605   0.177   4.668
 1638SOL     OW 7267   2.125   0.326   4.444
 1638SOL    HW1 7268   2.046   0.377   4.410
 1638SOL    HW2 7269   2.116   0.311   4.542
 1639SOL     OW 7270   2.684   1.002   5.096
 1639SOL    HW1 7271   2.724   1.001   5.004
 1639SOL    HW2 7272   2.694   1.094   5.136
 1640SOL     OW 7273   2.901   1.098   4.420
 1640SOL    HW1 7274   2.831   1.051   4.474
 1640SOL    HW2 7275   2.960   1.030   4.377
 1641SOL     OW 7276   2.876   0.236   4.695
 1641SOL    HW1 7277   2.868   0.200   4.602
 1641SOL    HW2 7278   2.874   0.160   4.760
 1642SOL     OW 7279   2.452   1.487   4.215
 1642SOL    HW1 7280   2.494   1.429   4.145
 1642SOL    HW2 7281   2.408   1.566   4.171
 1643SOL     OW 7282   2.117   1.348   4.014
 1643SOL    HW1 7283   2.021   1.349   3.987
 1643SOL    HW2 7284   2.129   1.401   4.098
 1644SOL     OW 7285   1.937   0.345   3.757
 1644SOL    HW1 7286   1.845   0.317   3.728
 1644SOL    HW2 7287   1.968   0.422   3.701
 1645SOL     OW 7288   1.934   0.166   4.042
 1645SOL    HW1 7289   1.917   0.249   3.988
 1645SOL    HW2 7290   2.024   0.129   4.020
 1646SOL     OW 7291   3.355   1.767   4.683
 1646SOL    HW1 7292   3.388   1.831   4.614
 1646SOL    HW2 7293   3.421   1.761   4.758
 1647SOL     OW 7294   3.312   1.220   5.357
 1647SOL    HW1 7295   3.303   1.210   5.456
 1647SOL    HW2 7296   3.408   1.213   5.331
 1648SOL     OW 7297   3.087   0.325   4.173
 1648SOL    HW1 7298   3.152   0.251   4.162
 1648SOL    HW2 7299   3.107   0.375   4.257
 1649SOL     OW 7300   2.456   0.745   4.376
 1649SOL    HW1 7301   2.506   0.830   4.357
 1649SOL    HW2 7302   2.368   0.747   4.328
 1650SOL     OW 7303   3.592   0.934   5.241
 1650SOL    HW1 7304   3.630   1.025   5.256
 1650SOL    HW2 7305   3.584   0.917   5.142
 1651SOL     OW 7306   2.721   1.374   3.740
 1651SOL    HW1 7307   2.675   1.389   3.828
 1651SOL    HW2 7308   2.765   1.459   3.710
 1652SOL     OW 7309   2.523   1.790   4.677
 1652SOL    HW1 7310   2.477   1.878   4.664
 1652SOL    HW2 7311   2.622   1.802   4.670
 1653SOL     OW 7312   2.721   0.956   4.585
 1653SOL    HW1 7313   2.775   0.887   4.633
 1653SOL    HW2 7314   2.689   1.025   4.651
 1654SOL     OW 7315   3.723   1.569   4.575
 1654SOL    HW1 7316   3.652   1.557   4.505
 1654SOL    HW2 7317   3.724   1.490   4.635
 1655SOL     OW 7318   1.941   1.240   4.377
 1655SOL    HW1 7319   1.940   1.193   4.465
 1655SOL    HW2 7320   2.023   1.212   4.326
 1656SOL     OW 7321   3.686   0.192   4.951
 1656SOL    HW1 7322   3.682   0.102   4.995
 1656SOL    HW2 7323   3.689   0.181   4.852
 1657SOL     OW 7324   2.290   0.424   4.244
 1657SOL    HW1 7325   2.320   0.352   4.182
 1657SOL    HW2 7326   2.251   0.384   4.327
 1658SOL     OW 7327   3.567   1.487   4.828
 1658SOL    HW1 7328   3.474   1.462   4.801
 1658SOL    HW2 7329   3.593   1.437   4.910
 1659SOL     OW 7330   2.863   0.034   4.878
 1659SOL    HW1 7331   2.800  -0.038   4.847
 1659SOL    HW2 7332   2.956  -0.002   4.878
 1660SOL     OW 7333   3.162   0.453   4.415
 1660SOL    HW1 7334   3.103   0.533   4.419
 1660SOL    HW2 7335   3.177   0.418   4.508
 1661SOL     OW 7336   1.901   1.077   4.024
 1661SOL    HW1 7337   2.000   1.066   4.015
 1661SOL    HW2 7338   1.861   0.991   4.056
 1662SOL     OW 7339   2.737   1.646   4.061
 1662SOL    HW1 7340   2.660   1.611   4.007
 1662SOL    HW2 7341   2.705   1.717   4.123
 1663SOL     OW 7342   2.092   2.490   0.113
 1663SOL    HW1 7343   1.999   2.488   0.150
 1663SOL    HW2 7344   2.093   2.451   0.021
 1664SOL     OW 7345   2.087   2.137   0.996
 1664SOL    HW1 7346   2.122   2.120   1.088
 1664SOL    HW2 7347   1.999   2.092   0.984
 1665SOL     OW 7348   1.881   2.230   0.647
 1665SOL    HW1 7349   1.799   2.273   0.686
 1665SOL    HW2 7350   1.853   2.157   0.584
 1666SOL     OW 7351   2.431   3.137   1.165
 1666SOL    HW1 7352   2.338   3.130   1.128
 1666SOL    HW2 7353   2.442   3.226   1.209
 1667SOL     OW 7354   3.417   3.373   0.703
 1667SOL    HW1 7355   3.360   3.357   0.784
 1667SOL    HW2 7356   3.358   3.383   0.623
 1668SOL     OW 7357   2.997   2.565   0.717
 1668SOL    HW1 7358   3.054   2.643   0.692
 1668SOL    HW2 7359   2.937   2.591   0.793
 1669SOL     OW 7360   3.617   2.469   0.231
 1669SOL    HW1 7361   3.605   2.456   0.132
 1669SOL    HW2 7362   3.587   2.388   0.280
 1670SOL     OW 7363   2.630   3.006   1.023
 1670SOL    HW1 7364   2.552   3.023   1.083
 1670SOL    HW2 7365   2.664   3.093   0.987
 1671SOL     OW 7366   2.712   2.660   1.823
 1671SOL    HW1 7367   2.708   2.736   1.888
 1671SOL    HW2 7368   2.734   2.696   1.732
 1672SOL     OW 7369   2.547   2.874   0.665
 1672SOL    HW1 7370   2.616   2.858   0.735
 1672SOL    HW2 7371   2.474   2.931   0.703
 1673SOL     OW 7372   2.548   3.023   1.803
 1673SOL    HW1 7373   2.608   3.102   1.817
 1673SOL    HW2 7374   2.462   3.054   1.762
 1674SOL     OW 7375   3.322   3.367   1.339
 1674SOL    HW1 7376   3.346   3.461   1.365
 1674SOL    HW2 7377   3.306   3.313   1.421
 1675SOL     OW 7378   2.300   2.254   1.499
 1675SOL    HW1 7379   2.382   2.198   1.508
 1675SOL    HW2 7380   2.219   2.196   1.503
 1676SOL     OW 7381   3.465   2.309   0.737
 1676SOL    HW1 7382   3.391   2.355   0.687
 1676SOL    HW2 7383   3.516   2.377   0.790
 1677SOL     OW 7384   2.093   3.575   0.483
 1677SOL    HW1 7385   2.127   3.652   0.537
 1677SOL    HW2 7386   2.137   3.575   0.393
 1678SOL     OW 7387   2.989   3.203   1.690
 1678SOL    HW1 7388   3.036   3.203   1.778
 1678SOL    HW2 7389   2.941   3.116   1.679
 1679SOL     OW 7390   2.092   3.296   0.538
 1679SOL    HW1 7391   2.066   3.392   0.538
 1679SOL    HW2 7392   2.021   3.242   0.583
 1680SOL     OW 7393   2.102   2.953   0.886
 1680SOL    HW1 7394   2.116   2.869   0.938
 1680SOL    HW2 7395   2.047   3.017   0.941
 1681SOL     OW 7396   2.468   2.826   0.123
 1681SOL    HW1 7397   2.475   2.910   0.069
 1681SOL    HW2 7398   2.514   2.839   0.211
 1682SOL     OW 7399   3.456   1.976   1.480
 1682SOL    HW1 7400   3.438   2.043   1.408
 1682SOL    HW2 7401   3.453   2.022   1.569
 1683SOL     OW 7402   1.984   2.505   0.563
 1683SOL    HW1 7403   1.939   2.417   0.580
 1683SOL    HW2 7404   1.983   2.559   0.647
 1684SOL     OW 7405   1.889   3.458   0.117
 1684SOL    HW1 7406   1.870   3.362   0.138
 1684SOL    HW2 7407   1.856   3.516   0.192
 1685SOL     OW 7408   3.551   2.784   0.612
 1685SOL    HW1 7409   3.646   2.755   0.620
 1685SOL    HW2 7410   3.543   2.849   0.537
 1686SOL     OW 7411   3.503   2.970   0.432
 1686SOL    HW1 7412   3.589   2.972   0.380
 1686SOL    HW2 7413   3.517   3.017   0.520
 1687SOL     OW 7414   1.975   2.599   1.597
 1687SOL    HW1 7415   2.063   2.586   1.642
 1687SOL    HW2 7416   1.962   2.696   1.575
 1688SOL     OW 7417   2.475   3.227   0.726
 1688SOL    HW1 7418   2.426   3.140   0.735
 1688SOL    HW2 7419   2.452   3.270   0.639
 1689SOL     OW 7420   3.155   3.090   1.423
 1689SOL    HW1 7421   3.192   3.017   1.365
 1689SOL    HW2 7422   3.207   3.095   1.508
 1690SOL     OW 7423   2.671   1.866   0.502
 1690SOL    HW1 7424   2.711   1.957   0.493
 1690SOL    HW2 7425   2.571   1.874   0.508
 1691SOL     OW 7426   2.059   2.838   1.264
 1691SOL    HW1 7427   2.148   2.793   1.250
 1691SOL    HW2 7428   1.986   2.773   1.245
 1692SOL     OW 7429   3.387   2.861   0.190
 1692SOL    HW1 7430   3.324   2.785   0.203
 1692SOL    HW2 7431   3.435   2.879   0.276
 1693SOL     OW 7432   2.179   2.113   1.801
 1693SOL    HW1 7433   2.250   2.184   1.807
 1693SOL    HW2 7434   2.091   2.152   1.829
 1694SOL     OW 7435   3.529   3.576   0.572
 1694SOL    HW1 7436   3.488   3.553   0.484
 1694SOL    HW2 7437   3.511   3.502   0.637
 1695SOL     OW 7438   2.460   2.591   0.270
 1695SOL    HW1 7439   2.484   2.660   0.202
 1695SOL    HW2 7440   2.382   2.624   0.324
 1696SOL     OW 7441   3.143   2.207   0.944
 1696SOL    HW1 7442   3.057   2.157   0.931
 1696SOL    HW2 7443   3.205   2.153   1.000
 1697SOL     OW 7444   3.438   3.524   0.307
 1697SOL    HW1 7445   3.527   3.570   0.310
 1697SOL    HW2 7446   3.417   3.500   0.212
 1698SOL     OW 7447   2.669   2.467   1.465
 1698SOL    HW1 7448   2.622   2.464   1.554
 1698SOL    HW2 7449   2.618   2.412   1.399
 1699SOL     OW 7450   2.835   2.752   1.572
 1699SOL    HW1 7451   2.881   2.668   1.543
 1699SOL    HW2 7452   2.779   2.786   1.497
 1700SOL     OW 7453   2.853   2.272   1.242
 1700SOL    HW1 7454   2.776   2.306   1.296
 1700SOL    HW2 7455   2.819   2.221   1.163
 1701SOL     OW 7456   2.903   2.563   0.429
 1701SOL    HW1 7457   2.929   2.559   0.525
 1701SOL    HW2 7458   2.818   2.512   0.415
 1702SOL     OW 7459   1.938   2.673   0.789
 1702SOL    HW1 7460   2.037   2.661   0.798
 1702SOL    HW2 7461   1.914   2.768   0.810
 1703SOL     OW 7462   1.992   3.683   1.571
 1703SOL    HW1 7463   1.982   3.668   1.670
 1703SOL    HW2 7464   1.906   3.719   1.535
 1704SOL     OW 7465   2.727   2.210   0.195
 1704SOL    HW1 7466   2.786   2.273   0.146
 1704SOL    HW2 7467   2.746   2.116   0.166
 1705SOL     OW 7468   3.581   2.447   1.831
 1705SOL    HW1 7469   3.555   2.536   1.795
 1705SOL    HW2 7470   3.579   2.379   1.758
 1706SOL     OW 7471   3.224   3.006   0.545
 1706SOL    HW1 7472   3.307   2.977   0.497
 1706SOL    HW2 7473   3.175   3.073   0.489
 1707SOL     OW 7474   2.870   3.318   0.477
 1707SOL    HW1 7475   2.824   3.390   0.425
 1707SOL    HW2 7476   2.866   3.338   0.575
 1708SOL     OW 7477   3.657   2.928   0.873
 1708SOL    HW1 7478   3.595   2.913   0.797
 1708SOL    HW2 7479   3.605   2.939   0.958
 1709SOL     OW 7480   3.089   3.412   1.506
 1709SOL    HW1 7481   3.095   3.335   1.570
 1709SOL    HW2 7482   3.037   3.386   1.426
 1710SOL     OW 7483   2.183   2.805   0.242
 1710SOL    HW1 7484   2.265   2.844   0.200
 1710SOL    HW2 7485   2.156   2.723   0.193
 1711SOL     OW 7486   3.320   2.597   0.728
 1711SOL    HW1 7487   3.315   2.532   0.803
 1711SOL    HW2 7488   3.400   2.656   0.741
 1712SOL     OW 7489   2.973   3.638   0.237
 1712SOL    HW1 7490   2.913   3.576   0.287
 1712SOL    HW2 7491   3.004   3.594   0.152
 1713SOL     OW 7492   2.064   2.147   1.498
 1713SOL    HW1 7493   1.984   2.207   1.485
 1713SOL    HW2 7494   2.054   2.098   1.584
 1714SOL     OW 7495   3.494   3.239   0.081
 1714SOL    HW1 7496   3.462   3.333   0.071
 1714SOL    HW2 7497   3.418   3.176   0.069
 1715SOL     OW 7498   2.326   3.605   0.323
 1715SOL    HW1 7499   2.359   3.644   0.409
 1715SOL    HW2 7500   2.402   3.598   0.258
 1716SOL     OW 7501   3.262   1.969   0.426
 1716SOL    HW1 7502   3.238   1.932   0.336
 1716SOL    HW2 7503   3.361   1.985   0.430
 1717SOL     OW 7504   2.802   3.560   0.904
 1717SOL    HW1 7505   2.882   3.503   0.925
 1717SOL    HW2 7506   2.753   3.520   0.827
 1718SOL     OW 7507   2.244   2.562   0.480
 1718SOL    HW1 7508   2.289   2.472   0.477
 1718SOL    HW2 7509   2.150   2.551   0.513
 1719SOL     OW 7510   3.409   2.084   1.729
 1719SOL    HW1 7511   3.404   2.121   1.821
 1719SOL    HW2 7512   3.337   2.015   1.717
 1720SOL     OW 7513   2.643   2.126   1.749
 1720SOL    HW1 7514   2.710   2.065   1.792
 1720SOL    HW2 7515   2.570   2.145   1.814
 1721SOL     OW 7516   2.750   3.376   1.195
 1721SOL    HW1 7517   2.727   3.351   1.101
 1721SOL    HW2 7518   2.811   3.307   1.234
 1722SOL     OW 7519   2.665   3.264   0.924
 1722SOL    HW1 7520   2.755   3.278   0.882
 1722SOL    HW2 7521   2.594   3.266   0.853
 1723SOL     OW 7522   2.784   2.365   0.899
 1723SOL    HW1 7523   2.759   2.356   0.803
 1723SOL    HW2 7524   2.832   2.283   0.930
 1724SOL     OW 7525   3.296   3.050   0.041
 1724SOL    HW1 7526   3.328   2.974   0.098
 1724SOL    HW2 7527   3.204   3.077   0.071
 1725SOL     OW 7528   2.159   1.897   0.171
 1725SOL    HW1 7529   2.208   1.981   0.150
 1725SOL    HW2 7530   2.221   1.832   0.216
 1726SOL     OW 7531   2.797   2.098   0.480
 1726SOL    HW1 7532   2.749   2.139   0.402
 1726SOL    HW2 7533   2.896   2.096   0.461
 1727SOL     OW 7534   2.938   2.545   1.464
 1727SOL    HW1 7535   2.858   2.484   1.467
 1727SOL    HW2 7536   3.019   2.492   1.440
 1728SOL     OW 7537   3.089   3.432   0.793
 1728SOL    HW1 7538   3.110   3.506   0.728
 1728SOL    HW2 7539   3.157   3.432   0.866
 1729SOL     OW 7540   2.321   3.014   0.741
 1729SOL    HW1 7541   2.250   2.987   0.806
 1729SOL    HW2 7542   2.295   2.986   0.648
 1730SOL     OW 7543   3.133   3.659   0.591
 1730SOL    HW1 7544   3.177   3.723   0.527
 1730SOL    HW2 7545   3.083   3.711   0.661
 1731SOL     OW 7546   2.894   2.411   0.016
 1731SOL    HW1 7547   2.853   2.493  -0.023
 1731SOL    HW2 7548   2.958   2.437   0.089
 1732SOL     OW 7549   1.940   2.418   1.386
 1732SOL    HW1 7550   2.032   2.417   1.345
 1732SOL    HW2 7551   1.934   2.492   1.453
 1733SOL     OW 7552   2.728   2.316   0.642
 1733SOL    HW1 7553   2.696   2.388   0.580
 1733SOL    HW2 7554   2.752   2.235   0.589
 1734SOL     OW 7555   3.328   2.452   0.992
 1734SOL    HW1 7556   3.298   2.357   0.999
 1734SOL    HW2 7557   3.401   2.468   1.058
 1735SOL     OW 7558   3.719   2.695   0.377
 1735SOL    HW1 7559   3.761   2.631   0.441
 1735SOL    HW2 7560   3.681   2.644   0.299
 1736SOL     OW 7561   2.350   3.247   0.174
 1736SOL    HW1 7562   2.263   3.232   0.221
 1736SOL    HW2 7563   2.333   3.273   0.079
 1737SOL     OW 7564   3.526   3.142   0.657
 1737SOL    HW1 7565   3.625   3.150   0.671
 1737SOL    HW2 7566   3.481   3.226   0.688
 1738SOL     OW 7567   2.389   2.118   0.328
 1738SOL    HW1 7568   2.416   2.059   0.253
 1738SOL    HW2 7569   2.389   2.213   0.297
 1739SOL     OW 7570   3.616   3.085   1.588
 1739SOL    HW1 7571   3.707   3.046   1.575
 1739SOL    HW2 7572   3.624   3.181   1.612
 1740SOL     OW 7573   3.454   3.491   1.625
 1740SOL    HW1 7574   3.481   3.525   1.535
 1740SOL    HW2 7575   3.533   3.453   1.671
 1741SOL     OW 7576   3.500   2.961   1.079
 1741SOL    HW1 7577   3.505   3.042   1.138
 1741SOL    HW2 7578   3.414   2.963   1.028
 1742SOL     OW 7579   2.777   1.951   1.402
 1742SOL    HW1 7580   2.802   1.931   1.307
 1742SOL    HW2 7581   2.849   2.007   1.444
 1743SOL     OW 7582   2.842   2.978   1.719
 1743SOL    HW1 7583   2.743   2.984   1.729
 1743SOL    HW2 7584   2.865   2.898   1.663
 1744SOL     OW 7585   2.567   2.912   0.368
 1744SOL    HW1 7586   2.553   2.919   0.467
 1744SOL    HW2 7587   2.651   2.861   0.350
 1745SOL     OW 7588   2.272   2.675   1.251
 1745SOL    HW1 7589   2.358   2.687   1.301
 1745SOL    HW2 7590   2.230   2.588   1.278
 1746SOL     OW 7591   3.136   2.248   1.262
 1746SOL    HW1 7592   3.157   2.322   1.326
 1746SOL    HW2 7593   3.047   2.265   1.219
 1747SOL     OW 7594   2.229   2.962   0.501
 1747SOL    HW1 7595   2.222   3.045   0.445
 1747SOL    HW2 7596   2.233   2.882   0.441
 1748SOL     OW 7597   2.428   2.399   0.865
 1748SOL    HW1 7598   2.440   2.465   0.791
 1748SOL    HW2 7599   2.474   2.433   0.948
 1749SOL     OW 7600   3.114   3.210   0.388
 1749SOL    HW1 7601   3.164   3.287   0.428
 1749SOL    HW2 7602   3.019   3.212   0.420
 1750SOL     OW 7603   3.444   2.501   0.472
 1750SOL    HW1 7604   3.413   2.562   0.545
 1750SOL    HW2 7605   3.494   2.553   0.403
 1751SOL     OW 7606   2.216   3.372   1.329
 1751SOL    HW1 7607   2.195   3.328   1.242
 1751SOL    HW2 7608   2.313   3.398   1.332
 1752SOL     OW 7609   2.264   2.613   1.598
 1752SOL    HW1 7610   2.332   2.668   1.551
 1752SOL    HW2 7611   2.304   2.525   1.625
 1753SOL     OW 7612   3.449   2.641   1.670
 1753SOL    HW1 7613   3.357   2.679   1.665
 1753SOL    HW2 7614   3.509   2.688   1.605
 1754SOL     OW 7615   2.875   1.967   1.770
 1754SOL    HW1 7616   2.881   2.052   1.718
 1754SOL    HW2 7617   2.907   1.891   1.713
 1755SOL     OW 7618   2.366   1.912   1.740
 1755SOL    HW1 7619   2.324   1.855   1.670
 1755SOL    HW2 7620   2.300   1.981   1.772
 1756SOL     OW 7621   2.435   2.732   1.029
 1756SOL    HW1 7622   2.479   2.821   1.020
 1756SOL    HW2 7623   2.372   2.732   1.106
 1757SOL     OW 7624   3.071   2.387   0.275
 1757SOL    HW1 7625   3.084   2.303   0.329
 1757SOL    HW2 7626   3.042   2.461   0.335
 1758SOL     OW 7627   2.169   2.075   1.231
 1758SOL    HW1 7628   2.146   2.112   1.321
 1758SOL    HW2 7629   2.139   1.980   1.225
 1759SOL     OW 7630   2.594   2.496   1.064
 1759SOL    HW1 7631   2.653   2.470   0.988
 1759SOL    HW2 7632   2.566   2.592   1.053
 1760SOL     OW 7633   3.590   2.797   1.854
 1760SOL    HW1 7634   3.544   2.790   1.765
 1760SOL    HW2 7635   3.528   2.841   1.920
 1761SOL     OW 7636   3.484   2.229   0.374
 1761SOL    HW1 7637   3.486   2.153   0.438
 1761SOL    HW2 7638   3.436   2.306   0.414
 1762SOL     OW 7639   2.885   2.628   0.966
 1762SOL    HW1 7640   2.900   2.649   1.062
 1762SOL    HW2 7641   2.855   2.533   0.957
 1763SOL     OW 7642   3.721   3.380   1.605
 1763SOL    HW1 7643   3.735   3.407   1.510
 1763SOL    HW2 7644   3.804   3.402   1.658
 1764SOL     OW 7645   2.212   2.760   1.804
 1764SOL    HW1 7646   2.288   2.804   1.852
 1764SOL    HW2 7647   2.247   2.713   1.722
 1765SOL     OW 7648   3.402   2.136   0.125
 1765SOL    HW1 7649   3.341   2.061   0.148
 1765SOL    HW2 7650   3.424   2.188   0.208
 1766SOL     OW 7651   2.930   3.195   0.849
 1766SOL    HW1 7652   2.937   3.111   0.794
 1766SOL    HW2 7653   2.992   3.264   0.813
 1767SOL     OW 7654   2.181   2.672   0.949
 1767SOL    HW1 7655   2.274   2.708   0.954
 1767SOL    HW2 7656   2.175   2.587   1.001
 1768SOL     OW 7657   2.201   2.371   1.006
 1768SOL    HW1 7658   2.149   2.288   0.989
 1768SOL    HW2 7659   2.278   2.376   0.942
 1769SOL     OW 7660   1.902   2.406   1.114
 1769SOL    HW1 7661   1.987   2.373   1.073
 1769SOL    HW2 7662   1.915   2.421   1.212
 1770SOL     OW 7663   2.051   2.382   1.722
 1770SOL    HW1 7664   2.110   2.342   1.652
 1770SOL    HW2 7665   1.993   2.453   1.681
 1771SOL     OW 7666   3.231   2.812   1.660
 1771SOL    HW1 7667   3.270   2.901   1.680
 1771SOL    HW2 7668   3.241   2.792   1.563
 1772SOL     OW 7669   2.677   2.434   0.325
 1772SOL    HW1 7670   2.684   2.345   0.279
 1772SOL    HW2 7671   2.583   2.468   0.317
 1773SOL     OW 7672   3.519   2.466   1.206
 1773SOL    HW1 7673   3.481   2.397   1.268
 1773SOL    HW2 7674   3.601   2.430   1.162
 1774SOL     OW 7675   2.533   2.326   1.269
 1774SOL    HW1 7676   2.499   2.237   1.239
 1774SOL    HW2 7677   2.559   2.380   1.189
 1775SOL     OW 7678   2.335   2.362   0.191
 1775SOL    HW1 7679   2.396   2.442   0.195
 1775SOL    HW2 7680   2.240   2.393   0.198
 1776SOL     OW 7681   2.021   2.999   1.466
 1776SOL    HW1 7682   2.043   2.938   1.542
 1776SOL    HW2 7683   2.031   2.950   1.380
 1777SOL     OW 7684   3.164   2.717   0.309
 1777SOL    HW1 7685   3.078   2.686   0.351
 1777SOL    HW2 7686   3.160   2.703   0.210
 1778SOL     OW 7687   1.945   3.120   1.022
 1778SOL    HW1 7688   1.940   3.119   1.122
 1778SOL    HW2 7689   1.862   3.079   0.984
 1779SOL     OW 7690   2.765   1.948   0.133
 1779SOL    HW1 7691   2.816   1.949   0.047
 1779SOL    HW2 7692   2.821   1.906   0.204
 1780SOL     OW 7693   3.588   1.997   0.523
 1780SOL    HW1 7694   3.661   1.980   0.456
 1780SOL    HW2 7695   3.557   1.910   0.561
 1781SOL     OW 7696   3.250   3.435   0.477
 1781SOL    HW1 7697   3.317   3.447   0.403
 1781SOL    HW2 7698   3.210   3.524   0.500
 1782SOL     OW 7699   2.692   3.135   1.422
 1782SOL    HW1 7700   2.687   3.168   1.517
 1782SOL    HW2 7701   2.606   3.154   1.376
 1783SOL     OW 7702   2.534   3.478   0.154
 1783SOL    HW1 7703   2.543   3.488   0.055
 1783SOL    HW2 7704   2.494   3.389   0.175
 1784SOL     OW 7705   3.512   3.582   1.394
 1784SOL    HW1 7706   3.565   3.592   1.310
 1784SOL    HW2 7707   3.485   3.672   1.428
 1785SOL     OW 7708   3.703   2.037   0.963
 1785SOL    HW1 7709   3.742   1.952   0.927
 1785SOL    HW2 7710   3.605   2.039   0.944
 1786SOL     OW 7711   2.125   2.188   0.720
 1786SOL    HW1 7712   2.046   2.239   0.686
 1786SOL    HW2 7713   2.116   2.173   0.818
 1787SOL     OW 7714   3.056   3.474   0.031
 1787SOL    HW1 7715   3.062   3.381   0.068
 1787SOL    HW2 7716   2.997   3.474  -0.049
 1788SOL     OW 7717   2.778   2.772   0.291
 1788SOL    HW1 7718   2.841   2.810   0.223
 1788SOL    HW2 7719   2.818   2.689   0.330
 1789SOL     OW 7720   3.366   3.469   0.044
 1789SOL    HW1 7721   3.274   3.506   0.051
 1789SOL    HW2 7722   3.404   3.489  -0.046
 1790SOL     OW 7723   2.234   3.150   1.490
 1790SOL    HW1 7724   2.221   3.243   1.456
 1790SOL    HW2 7725   2.150   3.098   1.477
 1791SOL     OW 7726   3.476   3.154   1.289
 1791SOL    HW1 7727   3.536   3.157   1.369
 1791SOL    HW2 7728   3.401   3.218   1.302
 1792SOL     OW 7729   2.876   2.098   0.971
 1792SOL    HW1 7730   2.868   2.062   0.878
 1792SOL    HW2 7731   2.874   2.022   1.036
 1793SOL     OW 7732   2.452   3.349   0.491
 1793SOL    HW1 7733   2.494   3.291   0.421
 1793SOL    HW2 7734   2.408   3.428   0.447
 1794SOL     OW 7735   3.571   2.247   1.381
 1794SOL    HW1 7736   3.644   2.316   1.385
 1794SOL    HW2 7737   3.599   2.172   1.322
 1795SOL     OW 7738   2.117   3.210   0.290
 1795SOL    HW1 7739   2.021   3.211   0.263
 1795SOL    HW2 7740   2.129   3.263   0.374
 1796SOL     OW 7741   1.967   2.875   1.726
 1796SOL    HW1 7742   1.890   2.842   1.780
 1796SOL    HW2 7743   2.052   2.845   1.768
 1797SOL     OW 7744   2.534   2.065   1.489
 1797SOL    HW1 7745   2.624   2.049   1.449
 1797SOL    HW2 7746   2.542   2.070   1.588
 1798SOL     OW 7747   3.302   2.718   1.398
 1798SOL    HW1 7748   3.245   2.770   1.335
 1798SOL    HW2 7749   3.398   2.730   1.374
 1799SOL     OW 7750   1.934   2.028   0.318
 1799SOL    HW1 7751   1.917   2.111   0.264
 1799SOL    HW2 7752   2.024   1.991   0.296
 1800SOL     OW 7753   3.045   3.197   0.119
 1800SOL    HW1 7754   2.946   3.186   0.121
 1800SOL    HW2 7755   3.079   3.212   0.212
 1801SOL     OW 7756   2.475   2.704   1.431
 1801SOL    HW1 7757   2.531   2.785   1.414
 1801SOL    HW2 7758   2.534   2.624   1.434
 1802SOL     OW 7759   3.355   3.629   0.959
 1802SOL    HW1 7760   3.388   3.693   0.890
 1802SOL    HW2 7761   3.421   3.623   1.034
 1803SOL     OW 7762   2.578   2.427   1.708
 1803SOL    HW1 7763   2.597   2.492   1.782
 1803SOL    HW2 7764   2.638   2.347   1.717
 1804SOL     OW 7765   3.312   3.082   1.633
 1804SOL    HW1 7766   3.303   3.072   1.732
 1804SOL    HW2 7767   3.408   3.075   1.607
 1805SOL     OW 7768   3.536   2.745   1.254
 1805SOL    HW1 7769   3.509   2.656   1.217
 1805SOL    HW2 7770   3.537   2.813   1.181
 1806SOL     OW 7771   3.087   2.187   0.449
 1806SOL    HW1 7772   3.152   2.113   0.438
 1806SOL    HW2 7773   3.107   2.237   0.533
 1807SOL     OW 7774   2.456   2.607   0.652
 1807SOL    HW1 7775   2.506   2.692   0.633
 1807SOL    HW2 7776   2.368   2.609   0.604
 1808SOL     OW 7777   3.639   2.204   1.642
 1808SOL    HW1 7778   3.622   2.235   1.548
 1808SOL    HW2 7779   3.555   2.167   1.680
 1809SOL     OW 7780   3.592   2.796   1.517
 1809SOL    HW1 7781   3.630   2.887   1.532
 1809SOL    HW2 7782   3.584   2.779   1.418
 1810SOL     OW 7783   2.721   3.236   0.016
 1810SOL    HW1 7784   2.675   3.251   0.104
 1810SOL    HW2 7785   2.765   3.321  -0.014
 1811SOL     OW 7786   2.523   3.652   0.953
 1811SOL    HW1 7787   2.477   3.740   0.940
 1811SOL    HW2 7788   2.622   3.664   0.946
 1812SOL     OW 7789   2.945   2.846   0.087
 1812SOL    HW1 7790   2.922   2.899   0.005
 1812SOL    HW2 7791   3.026   2.790   0.068
 1813SOL     OW 7792   3.723   3.431   0.851
 1813SOL    HW1 7793   3.652   3.419   0.781
 1813SOL    HW2 7794   3.724   3.352   0.911
 1814SOL     OW 7795   2.083   3.176   1.844
 1814SOL    HW1 7796   2.018   3.103   1.823
 1814SOL    HW2 7797   2.087   3.190   1.942
 1815SOL     OW 7798   1.941   3.102   0.653
 1815SOL    HW1 7799   1.940   3.055   0.741
 1815SOL    HW2 7800   2.023   3.074   0.602
 1816SOL     OW 7801   2.534   3.253   1.624
 1816SOL    HW1 7802   2.456   3.203   1.662
 1816SOL    HW2 7803   2.531   3.348   1.655
 1817SOL     OW 7804   3.686   2.054   1.227
 1817SOL    HW1 7805   3.682   1.964   1.271
 1817SOL    HW2 7806   3.689   2.043   1.128
 1818SOL     OW 7807   2.290   2.286   0.520
 1818SOL    HW1 7808   2.320   2.214   0.458
 1818SOL    HW2 7809   2.251   2.246   0.603
 1819SOL     OW 7810   3.567   3.349   1.104
 1819SOL    HW1 7811   3.474   3.324   1.077
 1819SOL    HW2 7812   3.593   3.299   1.186
 1820SOL     OW 7813   2.179   2.409   1.280
 1820SOL    HW1 7814   2.217   2.350   1.352
 1820SOL    HW2 7815   2.219   2.383   1.192
 1821SOL     OW 7816   2.674   3.448   0.687
 1821SOL    HW1 7817   2.706   3.458   0.593
 1821SOL    HW2 7818   2.595   3.386   0.689
 1822SOL     OW 7819   3.286   2.076   1.112
 1822SOL    HW1 7820   3.338   2.011   1.167
 1822SOL    HW2 7821   3.237   2.139   1.173
 1823SOL     OW 7822   2.863   1.896   1.154
 1823SOL    HW1 7823   2.800   1.824   1.123
 1823SOL    HW2 7824   2.956   1.860   1.154
 1824SOL     OW 7825   2.632   3.192   0.301
 1824SOL    HW1 7826   2.586   3.105   0.318
 1824SOL    HW2 7827   2.723   3.189   0.342
 1825SOL     OW 7828   2.480   3.429   1.284
 1825SOL    HW1 7829   2.475   3.511   1.341
 1825SOL    HW2 7830   2.569   3.426   1.239
 1826SOL     OW 7831   3.214   1.914   0.168
 1826SOL    HW1 7832   3.249   1.873   0.084
 1826SOL    HW2 7833   3.124   1.876   0.188
 1827SOL     OW 7834   3.162   2.315   0.691
 1827SOL    HW1 7835   3.103   2.395   0.695
 1827SOL    HW2 7836   3.177   2.280   0.784
 1828SOL     OW 7837   3.455   2.083   0.882
 1828SOL    HW1 7838   3.371   2.082   0.936
 1828SOL    HW2 7839   3.457   2.166   0.826
 1829SOL     OW 7840   1.901   2.939   0.300
 1829SOL    HW1 7841   2.000   2.928   0.291
 1829SOL    HW2 7842   1.861   2.853   0.332
 1830SOL     OW 7843   2.737   3.508   0.337
 1830SOL    HW1 7844   2.660   3.473   0.283
 1830SOL    HW2 7845   2.705   3.579   0.399
 1831SOL     OW 7846   2.092   2.490   1.975
 1831SOL    HW1 7847   1.999   2.488   2.012
 1831SOL    HW2 7848   2.093   2.451   1.883
 1832SOL     OW 7849   2.087   2.137   2.858
 1832SOL    HW1 7850   2.122   2.120   2.950
 1832SOL    HW2 7851   1.999   2.092   2.846
 1833SOL     OW 7852   1.881   2.230   2.509
 1833SOL    HW1 7853   1.799   2.273   2.548
 1833SOL    HW2 7854   1.853   2.157   2.446
 1834SOL     OW 7855   3.617   2.469   2.093
 1834SOL    HW1 7856   3.605   2.456   1.994
 1834SOL    HW2 7857   3.587   2.388   2.142
 1835SOL     OW 7858   2.630   3.006   2.885
 1835SOL    HW1 7859   2.552   3.023   2.945
 1835SOL    HW2 7860   2.664   3.093   2.849
 1836SOL     OW 7861   2.712   2.660   3.685
 1836SOL    HW1 7862   2.708   2.736   3.750
 1836SOL    HW2 7863   2.734   2.696   3.594
 1837SOL     OW 7864   2.197   3.297   2.923
 1837SOL    HW1 7865   2.119   3.266   2.870
 1837SOL    HW2 7866   2.255   3.355   2.866
 1838SOL     OW 7867   3.322   3.367   3.201
 1838SOL    HW1 7868   3.346   3.461   3.227
 1838SOL    HW2 7869   3.306   3.313   3.283
 1839SOL     OW 7870   2.300   2.254   3.361
 1839SOL    HW1 7871   2.382   2.198   3.370
 1839SOL    HW2 7872   2.219   2.196   3.365
 1840SOL     OW 7873   3.465   2.309   2.599
 1840SOL    HW1 7874   3.391   2.355   2.549
 1840SOL    HW2 7875   3.516   2.377   2.652
 1841SOL     OW 7876   2.093   3.575   2.345
 1841SOL    HW1 7877   2.127   3.652   2.399
 1841SOL    HW2 7878   2.137   3.575   2.255
 1842SOL     OW 7879   2.989   3.203   3.552
 1842SOL    HW1 7880   3.036   3.203   3.640
 1842SOL    HW2 7881   2.941   3.116   3.541
 1843SOL     OW 7882   2.092   3.296   2.400
 1843SOL    HW1 7883   2.066   3.392   2.400
 1843SOL    HW2 7884   2.021   3.242   2.445
 1844SOL     OW 7885   2.102   2.953   2.748
 1844SOL    HW1 7886   2.116   2.869   2.800
 1844SOL    HW2 7887   2.047   3.017   2.803
 1845SOL     OW 7888   2.482   3.648   3.301
 1845SOL    HW1 7889   2.390   3.631   3.336
 1845SOL    HW2 7890   2.510   3.740   3.327
 1846SOL     OW 7891   2.468   2.826   1.985
 1846SOL    HW1 7892   2.475   2.910   1.931
 1846SOL    HW2 7893   2.514   2.839   2.073
 1847SOL     OW 7894   3.456   1.976   3.342
 1847SOL    HW1 7895   3.438   2.043   3.270
 1847SOL    HW2 7896   3.453   2.022   3.431
 1848SOL     OW 7897   3.704   3.629   2.221
 1848SOL    HW1 7898   3.758   3.600   2.301
 1848SOL    HW2 7899   3.734   3.719   2.192
 1849SOL     OW 7900   1.889   3.458   1.979
 1849SOL    HW1 7901   1.870   3.362   2.000
 1849SOL    HW2 7902   1.856   3.516   2.054
 1850SOL     OW 7903   3.551   2.784   2.474
 1850SOL    HW1 7904   3.646   2.755   2.482
 1850SOL    HW2 7905   3.543   2.849   2.399
 1851SOL     OW 7906   3.503   2.970   2.294
 1851SOL    HW1 7907   3.589   2.972   2.242
 1851SOL    HW2 7908   3.517   3.017   2.382
 1852SOL     OW 7909   1.975   2.599   3.459
 1852SOL    HW1 7910   2.063   2.586   3.504
 1852SOL    HW2 7911   1.962   2.696   3.437
 1853SOL     OW 7912   2.475   3.227   2.588
 1853SOL    HW1 7913   2.426   3.140   2.597
 1853SOL    HW2 7914   2.452   3.270   2.501
 1854SOL     OW 7915   3.155   3.090   3.285
 1854SOL    HW1 7916   3.192   3.017   3.227
 1854SOL    HW2 7917   3.207   3.095   3.370
 1855SOL     OW 7918   2.671   1.866   2.364
 1855SOL    HW1 7919   2.711   1.957   2.355
 1855SOL    HW2 7920   2.571   1.874   2.370
 1856SOL     OW 7921   3.387   2.861   2.052
 1856SOL    HW1 7922   3.324   2.785   2.065
 1856SOL    HW2 7923   3.435   2.879   2.138
 1857SOL     OW 7924   3.049   3.654   3.478
 1857SOL    HW1 7925   3.073   3.714   3.402
 1857SOL    HW2 7926   3.056   3.559   3.448
 1858SOL     OW 7927   2.179   2.113   3.663
 1858SOL    HW1 7928   2.250   2.184   3.669
 1858SOL    HW2 7929   2.091   2.152   3.691
 1859SOL     OW 7930   3.328   3.279   2.815
 1859SOL    HW1 7931   3.269   3.285   2.895
 1859SOL    HW2 7932   3.313   3.191   2.769
 1860SOL     OW 7933   2.460   2.591   2.132
 1860SOL    HW1 7934   2.484   2.660   2.064
 1860SOL    HW2 7935   2.382   2.624   2.186
 1861SOL     OW 7936   3.143   2.207   2.806
 1861SOL    HW1 7937   3.057   2.157   2.793
 1861SOL    HW2 7938   3.205   2.153   2.862
 1862SOL     OW 7939   3.438   3.524   2.169
 1862SOL    HW1 7940   3.527   3.570   2.172
 1862SOL    HW2 7941   3.417   3.500   2.074
 1863SOL     OW 7942   2.669   2.467   3.327
 1863SOL    HW1 7943   2.622   2.464   3.416
 1863SOL    HW2 7944   2.618   2.412   3.261
 1864SOL     OW 7945   3.256   2.331   3.536
 1864SOL    HW1 7946   3.236   2.374   3.624
 1864SOL    HW2 7947   3.334   2.269   3.545
 1865SOL     OW 7948   2.835   2.752   3.434
 1865SOL    HW1 7949   2.881   2.668   3.405
 1865SOL    HW2 7950   2.779   2.786   3.359
 1866SOL     OW 7951   2.853   2.272   3.104
 1866SOL    HW1 7952   2.776   2.306   3.158
 1866SOL    HW2 7953   2.819   2.221   3.025
 1867SOL     OW 7954   2.903   2.563   2.291
 1867SOL    HW1 7955   2.929   2.559   2.387
 1867SOL    HW2 7956   2.818   2.512   2.277
 1868SOL     OW 7957   1.938   2.673   2.651
 1868SOL    HW1 7958   2.037   2.661   2.660
 1868SOL    HW2 7959   1.914   2.768   2.672
 1869SOL     OW 7960   1.992   3.683   3.433
 1869SOL    HW1 7961   1.982   3.668   3.532
 1869SOL    HW2 7962   1.906   3.719   3.397
 1870SOL     OW 7963   2.727   2.210   2.057
 1870SOL    HW1 7964   2.786   2.273   2.008
 1870SOL    HW2 7965   2.746   2.116   2.028
 1871SOL     OW 7966   3.581   2.447   3.693
 1871SOL    HW1 7967   3.555   2.536   3.657
 1871SOL    HW2 7968   3.579   2.379   3.620
 1872SOL     OW 7969   2.412   2.058   2.747
 1872SOL    HW1 7970   2.407   2.053   2.847
 1872SOL    HW2 7971   2.414   2.154   2.718
 1873SOL     OW 7972   2.870   3.318   2.339
 1873SOL    HW1 7973   2.824   3.390   2.287
 1873SOL    HW2 7974   2.866   3.338   2.437
 1874SOL     OW 7975   2.213   3.663   2.715
 1874SOL    HW1 7976   2.263   3.577   2.721
 1874SOL    HW2 7977   2.278   3.740   2.712
 1875SOL     OW 7978   3.657   2.928   2.735
 1875SOL    HW1 7979   3.595   2.913   2.659
 1875SOL    HW2 7980   3.605   2.939   2.820
 1876SOL     OW 7981   3.089   3.412   3.368
 1876SOL    HW1 7982   3.095   3.335   3.432
 1876SOL    HW2 7983   3.037   3.386   3.288
 1877SOL     OW 7984   2.183   2.805   2.104
 1877SOL    HW1 7985   2.265   2.844   2.062
 1877SOL    HW2 7986   2.156   2.723   2.055
 1878SOL     OW 7987   3.320   2.597   2.590
 1878SOL    HW1 7988   3.315   2.532   2.665
 1878SOL    HW2 7989   3.400   2.656   2.603
 1879SOL     OW 7990   2.973   3.638   2.099
 1879SOL    HW1 7991   2.913   3.576   2.149
 1879SOL    HW2 7992   3.004   3.594   2.014
 1880SOL     OW 7993   2.064   2.147   3.360
 1880SOL    HW1 7994   1.984   2.207   3.347
 1880SOL    HW2 7995   2.054   2.098   3.446
 1881SOL     OW 7996   3.494   3.239   1.943
 1881SOL    HW1 7997   3.462   3.333   1.933
 1881SOL    HW2 7998   3.418   3.176   1.931
 1882SOL     OW 7999   2.111   3.647   3.103
 1882SOL    HW1 8000   2.168   3.582   3.153
 1882SOL    HW2 8001   2.095   3.614   3.010
 1883SOL     OW 8002   2.802   3.560   2.766
 1883SOL    HW1 8003   2.882   3.503   2.787
 1883SOL    HW2 8004   2.753   3.520   2.689
 1884SOL     OW 8005   2.244   2.562   2.342
 1884SOL    HW1 8006   2.289   2.472   2.339
 1884SOL    HW2 8007   2.150   2.551   2.375
 1885SOL     OW 8008   3.409   2.084   3.591
 1885SOL    HW1 8009   3.404   2.121   3.683
 1885SOL    HW2 8010   3.337   2.015   3.579
 1886SOL     OW 8011   2.476   1.984   1.979
 1886SOL    HW1 8012   2.574   1.962   1.986
 1886SOL    HW2 8013   2.445   1.967   1.886
 1887SOL     OW 8014   2.643   2.126   3.611
 1887SOL    HW1 8015   2.710   2.065   3.654
 1887SOL    HW2 8016   2.570   2.145   3.676
 1888SOL     OW 8017   3.213   2.452   3.295
 1888SOL    HW1 8018   3.241   2.409   3.380
 1888SOL    HW2 8019   3.238   2.548   3.296
 1889SOL     OW 8020   2.665   3.264   2.786
 1889SOL    HW1 8021   2.755   3.278   2.744
 1889SOL    HW2 8022   2.594   3.266   2.715
 1890SOL     OW 8023   2.401   1.926   2.374
 1890SOL    HW1 8024   2.320   1.927   2.432
 1890SOL    HW2 8025   2.404   2.009   2.319
 1891SOL     OW 8026   3.296   3.050   1.903
 1891SOL    HW1 8027   3.328   2.974   1.960
 1891SOL    HW2 8028   3.204   3.077   1.933
 1892SOL     OW 8029   2.159   1.897   2.033
 1892SOL    HW1 8030   2.208   1.981   2.012
 1892SOL    HW2 8031   2.221   1.832   2.078
 1893SOL     OW 8032   2.938   2.545   3.326
 1893SOL    HW1 8033   2.858   2.484   3.329
 1893SOL    HW2 8034   3.019   2.492   3.302
 1894SOL     OW 8035   2.321   3.014   2.603
 1894SOL    HW1 8036   2.250   2.987   2.668
 1894SOL    HW2 8037   2.295   2.986   2.510
 1895SOL     OW 8038   3.133   3.659   2.453
 1895SOL    HW1 8039   3.177   3.723   2.389
 1895SOL    HW2 8040   3.083   3.711   2.523
 1896SOL     OW 8041   2.894   2.411   1.878
 1896SOL    HW1 8042   2.853   2.493   1.839
 1896SOL    HW2 8043   2.958   2.437   1.951
 1897SOL     OW 8044   1.940   2.418   3.248
 1897SOL    HW1 8045   2.032   2.417   3.207
 1897SOL    HW2 8046   1.934   2.492   3.315
 1898SOL     OW 8047   2.423   2.084   3.009
 1898SOL    HW1 8048   2.461   2.000   3.046
 1898SOL    HW2 8049   2.335   2.103   3.053
 1899SOL     OW 8050   2.879   1.901   2.615
 1899SOL    HW1 8051   2.807   1.906   2.546
 1899SOL    HW2 8052   2.855   1.832   2.684
 1900SOL     OW 8053   3.291   3.035   2.729
 1900SOL    HW1 8054   3.236   2.951   2.722
 1900SOL    HW2 8055   3.317   3.064   2.637
 1901SOL     OW 8056   3.328   2.452   2.854
 1901SOL    HW1 8057   3.298   2.357   2.861
 1901SOL    HW2 8058   3.401   2.468   2.920
 1902SOL     OW 8059   3.719   2.695   2.239
 1902SOL    HW1 8060   3.761   2.631   2.303
 1902SOL    HW2 8061   3.681   2.644   2.161
 1903SOL     OW 8062   3.526   3.142   2.519
 1903SOL    HW1 8063   3.625   3.150   2.533
 1903SOL    HW2 8064   3.481   3.226   2.550
 1904SOL     OW 8065   2.389   2.118   2.190
 1904SOL    HW1 8066   2.416   2.059   2.115
 1904SOL    HW2 8067   2.389   2.213   2.159
 1905SOL     OW 8068   3.616   3.085   3.450
 1905SOL    HW1 8069   3.707   3.046   3.437
 1905SOL    HW2 8070   3.624   3.181   3.474
 1906SOL     OW 8071   3.454   3.491   3.487
 1906SOL    HW1 8072   3.481   3.525   3.397
 1906SOL    HW2 8073   3.533   3.453   3.533
 1907SOL     OW 8074   2.973   3.057   2.962
 1907SOL    HW1 8075   2.933   3.101   3.043
 1907SOL    HW2 8076   2.932   3.094   2.879
 1908SOL     OW 8077   3.500   2.961   2.941
 1908SOL    HW1 8078   3.505   3.042   3.000
 1908SOL    HW2 8079   3.414   2.963   2.890
 1909SOL     OW 8080   2.777   1.951   3.264
 1909SOL    HW1 8081   2.802   1.931   3.169
 1909SOL    HW2 8082   2.849   2.007   3.306
 1910SOL     OW 8083   3.136   2.248   3.124
 1910SOL    HW1 8084   3.157   2.322   3.188
 1910SOL    HW2 8085   3.047   2.265   3.081
 1911SOL     OW 8086   1.926   3.426   3.193
 1911SOL    HW1 8087   1.880   3.508   3.159
 1911SOL    HW2 8088   2.024   3.445   3.202
 1912SOL     OW 8089   2.229   2.962   2.363
 1912SOL    HW1 8090   2.222   3.045   2.307
 1912SOL    HW2 8091   2.233   2.882   2.303
 1913SOL     OW 8092   3.134   3.307   3.004
 1913SOL    HW1 8093   3.181   3.320   3.091
 1913SOL    HW2 8094   3.068   3.233   3.013
 1914SOL     OW 8095   3.444   2.501   2.334
 1914SOL    HW1 8096   3.413   2.562   2.407
 1914SOL    HW2 8097   3.494   2.553   2.265
 1915SOL     OW 8098   2.216   3.372   3.191
 1915SOL    HW1 8099   2.195   3.328   3.104
 1915SOL    HW2 8100   2.313   3.398   3.194
 1916SOL     OW 8101   2.264   2.613   3.460
 1916SOL    HW1 8102   2.332   2.668   3.413
 1916SOL    HW2 8103   2.304   2.525   3.487
 1917SOL     OW 8104   3.449   2.641   3.532
 1917SOL    HW1 8105   3.357   2.679   3.527
 1917SOL    HW2 8106   3.509   2.688   3.467
 1918SOL     OW 8107   2.875   1.967   3.632
 1918SOL    HW1 8108   2.881   2.052   3.580
 1918SOL    HW2 8109   2.907   1.891   3.575
 1919SOL     OW 8110   2.366   1.912   3.602
 1919SOL    HW1 8111   2.324   1.855   3.532
 1919SOL    HW2 8112   2.300   1.981   3.634
 1920SOL     OW 8113   2.435   2.732   2.891
 1920SOL    HW1 8114   2.479   2.821   2.882
 1920SOL    HW2 8115   2.372   2.732   2.968
 1921SOL     OW 8116   3.222   2.724   2.907
 1921SOL    HW1 8117   3.147   2.724   2.841
 1921SOL    HW2 8118   3.259   2.632   2.916
 1922SOL     OW 8119   2.169   2.075   3.093
 1922SOL    HW1 8120   2.146   2.112   3.183
 1922SOL    HW2 8121   2.139   1.980   3.087
 1923SOL     OW 8122   1.899   3.172   3.144
 1923SOL    HW1 8123   1.952   3.123   3.212
 1923SOL    HW2 8124   1.921   3.270   3.149
 1924SOL     OW 8125   3.590   2.797   3.716
 1924SOL    HW1 8126   3.544   2.790   3.627
 1924SOL    HW2 8127   3.528   2.841   3.782
 1925SOL     OW 8128   2.169   1.925   2.480
 1925SOL    HW1 8129   2.158   2.019   2.513
 1925SOL    HW2 8130   2.164   1.862   2.557
 1926SOL     OW 8131   3.484   2.229   2.236
 1926SOL    HW1 8132   3.486   2.153   2.300
 1926SOL    HW2 8133   3.436   2.306   2.276
 1927SOL     OW 8134   2.885   2.628   2.828
 1927SOL    HW1 8135   2.900   2.649   2.924
 1927SOL    HW2 8136   2.855   2.533   2.819
 1928SOL     OW 8137   2.842   3.435   3.562
 1928SOL    HW1 8138   2.822   3.479   3.474
 1928SOL    HW2 8139   2.881   3.344   3.546
 1929SOL     OW 8140   3.721   3.380   3.467
 1929SOL    HW1 8141   3.735   3.407   3.372
 1929SOL    HW2 8142   3.804   3.402   3.520
 1930SOL     OW 8143   3.402   2.136   1.987
 1930SOL    HW1 8144   3.341   2.061   2.010
 1930SOL    HW2 8145   3.424   2.188   2.070
 1931SOL     OW 8146   3.165   2.700   1.904
 1931SOL    HW1 8147   3.199   2.607   1.919
 1931SOL    HW2 8148   3.183   2.727   1.809
 1932SOL     OW 8149   2.181   2.672   2.811
 1932SOL    HW1 8150   2.274   2.708   2.816
 1932SOL    HW2 8151   2.175   2.587   2.863
 1933SOL     OW 8152   2.201   2.371   2.868
 1933SOL    HW1 8153   2.149   2.288   2.851
 1933SOL    HW2 8154   2.278   2.376   2.804
 1934SOL     OW 8155   3.000   2.242   3.540
 1934SOL    HW1 8156   2.955   2.305   3.604
 1934SOL    HW2 8157   3.093   2.273   3.523
 1935SOL     OW 8158   3.022   2.069   3.339
 1935SOL    HW1 8159   3.022   2.133   3.416
 1935SOL    HW2 8160   3.050   2.117   3.256
 1936SOL     OW 8161   1.870   3.188   2.062
 1936SOL    HW1 8162   1.777   3.209   2.031
 1936SOL    HW2 8163   1.880   3.089   2.075
 1937SOL     OW 8164   1.950   3.663   2.789
 1937SOL    HW1 8165   1.908   3.577   2.762
 1937SOL    HW2 8166   2.044   3.666   2.755
 1938SOL     OW 8167   2.366   3.430   2.772
 1938SOL    HW1 8168   2.432   3.504   2.781
 1938SOL    HW2 8169   2.410   3.351   2.730
 1939SOL     OW 8170   2.864   2.658   3.100
 1939SOL    HW1 8171   2.905   2.626   3.186
 1939SOL    HW2 8172   2.768   2.631   3.097
 1940SOL     OW 8173   1.902   2.406   2.976
 1940SOL    HW1 8174   1.987   2.373   2.935
 1940SOL    HW2 8175   1.915   2.421   3.074
 1941SOL     OW 8176   2.051   2.382   3.584
 1941SOL    HW1 8177   2.110   2.342   3.514
 1941SOL    HW2 8178   1.993   2.453   3.543
 1942SOL     OW 8179   3.231   2.812   3.522
 1942SOL    HW1 8180   3.270   2.901   3.542
 1942SOL    HW2 8181   3.241   2.792   3.425
 1943SOL     OW 8182   2.677   2.434   2.187
 1943SOL    HW1 8183   2.684   2.345   2.141
 1943SOL    HW2 8184   2.583   2.468   2.179
 1944SOL     OW 8185   3.519   2.466   3.068
 1944SOL    HW1 8186   3.481   2.397   3.130
 1944SOL    HW2 8187   3.601   2.430   3.024
 1945SOL     OW 8188   2.114   3.426   3.606
 1945SOL    HW1 8189   2.084   3.483   3.682
 1945SOL    HW2 8190   2.107   3.329   3.632
 1946SOL     OW 8191   2.533   2.326   3.131
 1946SOL    HW1 8192   2.499   2.237   3.101
 1946SOL    HW2 8193   2.559   2.380   3.051
 1947SOL     OW 8194   2.335   2.362   2.053
 1947SOL    HW1 8195   2.396   2.442   2.057
 1947SOL    HW2 8196   2.240   2.393   2.060
 1948SOL     OW 8197   2.021   2.999   3.328
 1948SOL    HW1 8198   2.043   2.938   3.404
 1948SOL    HW2 8199   2.031   2.950   3.242
 1949SOL     OW 8200   3.209   2.921   3.096
 1949SOL    HW1 8201   3.233   2.858   3.022
 1949SOL    HW2 8202   3.119   2.961   3.078
 1950SOL     OW 8203   3.164   2.717   2.171
 1950SOL    HW1 8204   3.078   2.686   2.213
 1950SOL    HW2 8205   3.160   2.703   2.072
 1951SOL     OW 8206   3.621   3.609   3.016
 1951SOL    HW1 8207   3.682   3.639   2.943
 1951SOL    HW2 8208   3.583   3.520   2.994
 1952SOL     OW 8209   3.114   3.593   2.990
 1952SOL    HW1 8210   3.198   3.598   2.936
 1952SOL    HW2 8211   3.091   3.497   3.008
 1953SOL     OW 8212   1.945   3.120   2.884
 1953SOL    HW1 8213   1.940   3.119   2.984
 1953SOL    HW2 8214   1.862   3.079   2.846
 1954SOL     OW 8215   2.550   3.524   3.578
 1954SOL    HW1 8216   2.494   3.605   3.587
 1954SOL    HW2 8217   2.602   3.528   3.492
 1955SOL     OW 8218   3.588   1.997   2.385
 1955SOL    HW1 8219   3.661   1.980   2.318
 1955SOL    HW2 8220   3.557   1.910   2.423
 1956SOL     OW 8221   1.992   3.656   3.713
 1956SOL    HW1 8222   1.951   3.582   3.766
 1956SOL    HW2 8223   2.056   3.707   3.771
 1957SOL     OW 8224   3.142   2.789   2.534
 1957SOL    HW1 8225   3.202   2.708   2.536
 1957SOL    HW2 8226   3.182   2.858   2.474
 1958SOL     OW 8227   3.512   3.582   3.256
 1958SOL    HW1 8228   3.565   3.592   3.172
 1958SOL    HW2 8229   3.485   3.672   3.290
 1959SOL     OW 8230   3.703   2.037   2.825
 1959SOL    HW1 8231   3.742   1.952   2.789
 1959SOL    HW2 8232   3.605   2.039   2.806
 1960SOL     OW 8233   2.778   2.772   2.153
 1960SOL    HW1 8234   2.841   2.810   2.085
 1960SOL    HW2 8235   2.818   2.689   2.192
 1961SOL     OW 8236   3.366   3.469   1.906
 1961SOL    HW1 8237   3.274   3.506   1.913
 1961SOL    HW2 8238   3.404   3.489   1.816
 1962SOL     OW 8239   3.476   3.154   3.151
 1962SOL    HW1 8240   3.536   3.157   3.231
 1962SOL    HW2 8241   3.401   3.218   3.164
 1963SOL     OW 8242   2.901   2.960   2.558
 1963SOL    HW1 8243   2.831   2.913   2.612
 1963SOL    HW2 8244   2.960   2.892   2.515
 1964SOL     OW 8245   2.876   2.098   2.833
 1964SOL    HW1 8246   2.868   2.062   2.740
 1964SOL    HW2 8247   2.874   2.022   2.898
 1965SOL     OW 8248   3.571   2.247   3.243
 1965SOL    HW1 8249   3.644   2.316   3.247
 1965SOL    HW2 8250   3.599   2.172   3.184
 1966SOL     OW 8251   2.117   3.210   2.152
 1966SOL    HW1 8252   2.021   3.211   2.125
 1966SOL    HW2 8253   2.129   3.263   2.236
 1967SOL     OW 8254   1.967   2.875   3.588
 1967SOL    HW1 8255   1.890   2.842   3.642
 1967SOL    HW2 8256   2.052   2.845   3.630
 1968SOL     OW 8257   2.534   2.065   3.351
 1968SOL    HW1 8258   2.624   2.049   3.311
 1968SOL    HW2 8259   2.542   2.070   3.450
 1969SOL     OW 8260   1.937   2.207   1.895
 1969SOL    HW1 8261   1.845   2.179   1.866
 1969SOL    HW2 8262   1.968   2.284   1.839
 1970SOL     OW 8263   3.302   2.718   3.260
 1970SOL    HW1 8264   3.245   2.770   3.197
 1970SOL    HW2 8265   3.398   2.730   3.236
 1971SOL     OW 8266   2.475   2.704   3.293
 1971SOL    HW1 8267   2.531   2.785   3.276
 1971SOL    HW2 8268   2.534   2.624   3.296
 1972SOL     OW 8269   2.578   2.427   3.570
 1972SOL    HW1 8270   2.597   2.492   3.644
 1972SOL    HW2 8271   2.638   2.347   3.579
 1973SOL     OW 8272   3.312   3.082   3.495
 1973SOL    HW1 8273   3.303   3.072   3.594
 1973SOL    HW2 8274   3.408   3.075   3.469
 1974SOL     OW 8275   2.252   3.603   3.422
 1974SOL    HW1 8276   2.161   3.644   3.420
 1974SOL    HW2 8277   2.245   3.509   3.454
 1975SOL     OW 8278   3.536   2.745   3.116
 1975SOL    HW1 8279   3.509   2.656   3.079
 1975SOL    HW2 8280   3.537   2.813   3.043
 1976SOL     OW 8281   3.639   2.204   3.504
 1976SOL    HW1 8282   3.622   2.235   3.410
 1976SOL    HW2 8283   3.555   2.167   3.542
 1977SOL     OW 8284   3.592   2.796   3.379
 1977SOL    HW1 8285   3.630   2.887   3.394
 1977SOL    HW2 8286   3.584   2.779   3.280
 1978SOL     OW 8287   2.523   3.652   2.815
 1978SOL    HW1 8288   2.477   3.740   2.802
 1978SOL    HW2 8289   2.622   3.664   2.808
 1979SOL     OW 8290   2.945   2.846   1.949
 1979SOL    HW1 8291   2.922   2.899   1.867
 1979SOL    HW2 8292   3.026   2.790   1.930
 1980SOL     OW 8293   3.723   3.431   2.713
 1980SOL    HW1 8294   3.652   3.419   2.643
 1980SOL    HW2 8295   3.724   3.352   2.773
 1981SOL     OW 8296   2.083   3.176   3.706
 1981SOL    HW1 8297   2.018   3.103   3.685
 1981SOL    HW2 8298   2.087   3.190   3.804
 1982SOL     OW 8299   1.941   3.102   2.515
 1982SOL    HW1 8300   1.940   3.055   2.603
 1982SOL    HW2 8301   2.023   3.074   2.464
 1983SOL     OW 8302   3.686   2.054   3.089
 1983SOL    HW1 8303   3.682   1.964   3.133
 1983SOL    HW2 8304   3.689   2.043   2.990
 1984SOL     OW 8305   3.567   3.349   2.966
 1984SOL    HW1 8306   3.474   3.324   2.939
 1984SOL    HW2 8307   3.593   3.299   3.048
 1985SOL     OW 8308   2.179   2.409   3.142
 1985SOL    HW1 8309   2.217   2.350   3.214
 1985SOL    HW2 8310   2.219   2.383   3.054
 1986SOL     OW 8311   2.674   3.448   2.549
 1986SOL    HW1 8312   2.706   3.458   2.455
 1986SOL    HW2 8313   2.595   3.386   2.551
 1987SOL     OW 8314   3.286   2.076   2.974
 1987SOL    HW1 8315   3.338   2.011   3.029
 1987SOL    HW2 8316   3.237   2.139   3.035
 1988SOL     OW 8317   2.863   1.896   3.016
 1988SOL    HW1 8318   2.800   1.824   2.985
 1988SOL    HW2 8319   2.956   1.860   3.016
 1989SOL     OW 8320   2.480   3.429   3.146
 1989SOL    HW1 8321   2.475   3.511   3.203
 1989SOL    HW2 8322   2.569   3.426   3.101
 1990SOL     OW 8323   3.455   2.083   2.744
 1990SOL    HW1 8324   3.371   2.082   2.798
 1990SOL    HW2 8325   3.457   2.166   2.688
 1991SOL     OW 8326   2.737   3.508   2.199
 1991SOL    HW1 8327   2.660   3.473   2.145
 1991SOL    HW2 8328   2.705   3.579   2.261
 1992SOL     OW 8329   2.092   2.490   3.837
 1992SOL    HW1 8330   1.999   2.488   3.874
 1992SOL    HW2 8331   2.093   2.451   3.745
 1993SOL     OW 8332   2.087   2.137   4.720
 1993SOL    HW1 8333   2.122   2.120   4.812
 1993SOL    HW2 8334   1.999   2.092   4.708
 1994SOL     OW 8335   2.997   2.565   4.441
 1994SOL    HW1 8336   3.054   2.643   4.416
 1994SOL    HW2 8337   2.937   2.591   4.517
 1995SOL     OW 8338   3.617   2.469   3.955
 1995SOL    HW1 8339   3.605   2.456   3.856
 1995SOL    HW2 8340   3.587   2.388   4.004
 1996SOL     OW 8341   2.093   3.575   4.207
 1996SOL    HW1 8342   2.127   3.652   4.261
 1996SOL    HW2 8343   2.137   3.575   4.117
 1997SOL     OW 8344   2.092   3.296   4.262
 1997SOL    HW1 8345   2.066   3.392   4.262
 1997SOL    HW2 8346   2.021   3.242   4.307
 1998SOL     OW 8347   2.482   3.648   5.163
 1998SOL    HW1 8348   2.390   3.631   5.198
 1998SOL    HW2 8349   2.510   3.740   5.189
 1999SOL     OW 8350   2.468   2.826   3.847
 1999SOL    HW1 8351   2.475   2.910   3.793
 1999SOL    HW2 8352   2.514   2.839   3.935
 2000SOL     OW 8353   3.704   3.629   4.083
 2000SOL    HW1 8354   3.758   3.600   4.163
 2000SOL    HW2 8355   3.734   3.719   4.054
 2001SOL     OW 8356   1.889   3.458   3.841
 2001SOL    HW1 8357   1.870   3.362   3.862
 2001SOL    HW2 8358   1.856   3.516   3.916
 2002SOL     OW 8359   3.551   2.784   4.336
 2002SOL    HW1 8360   3.646   2.755   4.344
 2002SOL    HW2 8361   3.543   2.849   4.261
 2003SOL     OW 8362   2.671   1.866   4.226
 2003SOL    HW1 8363   2.711   1.957   4.217
 2003SOL    HW2 8364   2.571   1.874   4.232
 2004SOL     OW 8365   3.387   2.861   3.914
 2004SOL    HW1 8366   3.324   2.785   3.927
 2004SOL    HW2 8367   3.435   2.879   4.000
 2005SOL     OW 8368   3.529   3.576   4.296
 2005SOL    HW1 8369   3.488   3.553   4.208
 2005SOL    HW2 8370   3.511   3.502   4.361
 2006SOL     OW 8371   2.460   2.591   3.994
 2006SOL    HW1 8372   2.484   2.660   3.926
 2006SOL    HW2 8373   2.382   2.624   4.048
 2007SOL     OW 8374   3.143   2.207   4.668
 2007SOL    HW1 8375   3.057   2.157   4.655
 2007SOL    HW2 8376   3.205   2.153   4.724
 2008SOL     OW 8377   3.438   3.524   4.031
 2008SOL    HW1 8378   3.527   3.570   4.034
 2008SOL    HW2 8379   3.417   3.500   3.936
 2009SOL     OW 8380   2.853   2.272   4.966
 2009SOL    HW1 8381   2.776   2.306   5.020
 2009SOL    HW2 8382   2.819   2.221   4.887
 2010SOL     OW 8383   2.903   2.563   4.153
 2010SOL    HW1 8384   2.929   2.559   4.249
 2010SOL    HW2 8385   2.818   2.512   4.139
 2011SOL     OW 8386   2.727   2.210   3.919
 2011SOL    HW1 8387   2.786   2.273   3.870
 2011SOL    HW2 8388   2.746   2.116   3.890
 2012SOL     OW 8389   3.224   3.006   4.269
 2012SOL    HW1 8390   3.307   2.977   4.221
 2012SOL    HW2 8391   3.175   3.073   4.213
 2013SOL     OW 8392   2.412   2.058   4.609
 2013SOL    HW1 8393   2.407   2.053   4.709
 2013SOL    HW2 8394   2.414   2.154   4.580
 2014SOL     OW 8395   2.870   3.318   4.201
 2014SOL    HW1 8396   2.824   3.390   4.149
 2014SOL    HW2 8397   2.866   3.338   4.299
 2015SOL     OW 8398   2.213   3.663   4.577
 2015SOL    HW1 8399   2.263   3.577   4.583
 2015SOL    HW2 8400   2.278   3.740   4.574
 2016SOL     OW 8401   2.183   2.805   3.966
 2016SOL    HW1 8402   2.265   2.844   3.924
 2016SOL    HW2 8403   2.156   2.723   3.917
 2017SOL     OW 8404   2.973   3.638   3.961
 2017SOL    HW1 8405   2.913   3.576   4.011
 2017SOL    HW2 8406   3.004   3.594   3.876
 2018SOL     OW 8407   3.494   3.239   3.805
 2018SOL    HW1 8408   3.462   3.333   3.795
 2018SOL    HW2 8409   3.418   3.176   3.793
 2019SOL     OW 8410   2.326   3.605   4.047
 2019SOL    HW1 8411   2.359   3.644   4.133
 2019SOL    HW2 8412   2.402   3.598   3.982
 2020SOL     OW 8413   2.111   3.647   4.965
 2020SOL    HW1 8414   2.168   3.582   5.015
 2020SOL    HW2 8415   2.095   3.614   4.872
 2021SOL     OW 8416   2.802   3.560   4.628
 2021SOL    HW1 8417   2.882   3.503   4.649
 2021SOL    HW2 8418   2.753   3.520   4.551
 2022SOL     OW 8419   2.476   1.984   3.841
 2022SOL    HW1 8420   2.574   1.962   3.848
 2022SOL    HW2 8421   2.445   1.967   3.748
 2023SOL     OW 8422   2.665   3.264   4.648
 2023SOL    HW1 8423   2.755   3.278   4.606
 2023SOL    HW2 8424   2.594   3.266   4.577
 2024SOL     OW 8425   2.784   2.365   4.623
 2024SOL    HW1 8426   2.759   2.356   4.527
 2024SOL    HW2 8427   2.832   2.283   4.654
 2025SOL     OW 8428   2.401   1.926   4.236
 2025SOL    HW1 8429   2.320   1.927   4.294
 2025SOL    HW2 8430   2.404   2.009   4.181
 2026SOL     OW 8431   3.296   3.050   3.765
 2026SOL    HW1 8432   3.328   2.974   3.822
 2026SOL    HW2 8433   3.204   3.077   3.795
 2027SOL     OW 8434   2.159   1.897   3.895
 2027SOL    HW1 8435   2.208   1.981   3.874
 2027SOL    HW2 8436   2.221   1.832   3.940
 2028SOL     OW 8437   2.797   2.098   4.204
 2028SOL    HW1 8438   2.749   2.139   4.126
 2028SOL    HW2 8439   2.896   2.096   4.185
 2029SOL     OW 8440   3.133   3.659   4.315
 2029SOL    HW1 8441   3.177   3.723   4.251
 2029SOL    HW2 8442   3.083   3.711   4.385
 2030SOL     OW 8443   2.894   2.411   3.740
 2030SOL    HW1 8444   2.853   2.493   3.701
 2030SOL    HW2 8445   2.958   2.437   3.813
 2031SOL     OW 8446   2.423   2.084   4.871
 2031SOL    HW1 8447   2.461   2.000   4.908
 2031SOL    HW2 8448   2.335   2.103   4.915
 2032SOL     OW 8449   2.728   2.316   4.366
 2032SOL    HW1 8450   2.696   2.388   4.304
 2032SOL    HW2 8451   2.752   2.235   4.313
 2033SOL     OW 8452   2.879   1.901   4.477
 2033SOL    HW1 8453   2.807   1.906   4.408
 2033SOL    HW2 8454   2.855   1.832   4.546
 2034SOL     OW 8455   3.719   2.695   4.101
 2034SOL    HW1 8456   3.761   2.631   4.165
 2034SOL    HW2 8457   3.681   2.644   4.023
 2035SOL     OW 8458   3.252   2.437   3.802
 2035SOL    HW1 8459   3.198   2.416   3.883
 2035SOL    HW2 8460   3.343   2.396   3.811
 2036SOL     OW 8461   2.389   2.118   4.052
 2036SOL    HW1 8462   2.416   2.059   3.977
 2036SOL    HW2 8463   2.389   2.213   4.021
 2037SOL     OW 8464   2.973   3.057   4.824
 2037SOL    HW1 8465   2.933   3.101   4.905
 2037SOL    HW2 8466   2.932   3.094   4.741
 2038SOL     OW 8467   2.272   2.675   4.975
 2038SOL    HW1 8468   2.358   2.687   5.025
 2038SOL    HW2 8469   2.230   2.588   5.002
 2039SOL     OW 8470   2.229   2.962   4.225
 2039SOL    HW1 8471   2.222   3.045   4.169
 2039SOL    HW2 8472   2.233   2.882   4.165
 2040SOL     OW 8473   2.428   2.399   4.589
 2040SOL    HW1 8474   2.440   2.465   4.515
 2040SOL    HW2 8475   2.474   2.433   4.672
 2041SOL     OW 8476   3.114   3.210   4.112
 2041SOL    HW1 8477   3.164   3.287   4.152
 2041SOL    HW2 8478   3.019   3.212   4.144
 2042SOL     OW 8479   3.134   3.307   4.866
 2042SOL    HW1 8480   3.181   3.320   4.953
 2042SOL    HW2 8481   3.068   3.233   4.875
 2043SOL     OW 8482   3.071   2.387   3.999
 2043SOL    HW1 8483   3.084   2.303   4.053
 2043SOL    HW2 8484   3.042   2.461   4.059
 2044SOL     OW 8485   2.169   2.075   4.955
 2044SOL    HW1 8486   2.146   2.112   5.045
 2044SOL    HW2 8487   2.139   1.980   4.949
 2045SOL     OW 8488   1.899   3.172   5.006
 2045SOL    HW1 8489   1.952   3.123   5.074
 2045SOL    HW2 8490   1.921   3.270   5.011
 2046SOL     OW 8491   2.594   2.496   4.788
 2046SOL    HW1 8492   2.653   2.470   4.712
 2046SOL    HW2 8493   2.566   2.592   4.777
 2047SOL     OW 8494   2.169   1.925   4.342
 2047SOL    HW1 8495   2.158   2.019   4.375
 2047SOL    HW2 8496   2.164   1.862   4.419
 2048SOL     OW 8497   3.484   2.229   4.098
 2048SOL    HW1 8498   3.486   2.153   4.162
 2048SOL    HW2 8499   3.436   2.306   4.138
 2049SOL     OW 8500   3.402   2.136   3.849
 2049SOL    HW1 8501   3.341   2.061   3.872
 2049SOL    HW2 8502   3.424   2.188   3.932
 2050SOL     OW 8503   3.165   2.700   3.766
 2050SOL    HW1 8504   3.199   2.607   3.781
 2050SOL    HW2 8505   3.183   2.727   3.671
 2051SOL     OW 8506   2.930   3.195   4.573
 2051SOL    HW1 8507   2.937   3.111   4.518
 2051SOL    HW2 8508   2.992   3.264   4.537
 2052SOL     OW 8509   2.201   2.371   4.730
 2052SOL    HW1 8510   2.149   2.288   4.713
 2052SOL    HW2 8511   2.278   2.376   4.666
 2053SOL     OW 8512   3.022   2.069   5.201
 2053SOL    HW1 8513   3.022   2.133   5.278
 2053SOL    HW2 8514   3.050   2.117   5.118
 2054SOL     OW 8515   1.870   3.188   3.924
 2054SOL    HW1 8516   1.777   3.209   3.893
 2054SOL    HW2 8517   1.880   3.089   3.937
 2055SOL     OW 8518   1.950   3.663   4.651
 2055SOL    HW1 8519   1.908   3.577   4.624
 2055SOL    HW2 8520   2.044   3.666   4.617
 2056SOL     OW 8521   2.366   3.430   4.634
 2056SOL    HW1 8522   2.432   3.504   4.643
 2056SOL    HW2 8523   2.410   3.351   4.592
 2057SOL     OW 8524   1.902   2.406   4.838
 2057SOL    HW1 8525   1.987   2.373   4.797
 2057SOL    HW2 8526   1.915   2.421   4.936
 2058SOL     OW 8527   2.677   2.434   4.049
 2058SOL    HW1 8528   2.684   2.345   4.003
 2058SOL    HW2 8529   2.583   2.468   4.041
 2059SOL     OW 8530   2.533   2.326   4.993
 2059SOL    HW1 8531   2.499   2.237   4.963
 2059SOL    HW2 8532   2.559   2.380   4.913
 2060SOL     OW 8533   2.792   3.540   5.189
 2060SOL    HW1 8534   2.768   3.522   5.094
 2060SOL    HW2 8535   2.822   3.634   5.199
 2061SOL     OW 8536   2.335   2.362   3.915
 2061SOL    HW1 8537   2.396   2.442   3.919
 2061SOL    HW2 8538   2.240   2.393   3.922
 2062SOL     OW 8539   3.209   2.921   4.958
 2062SOL    HW1 8540   3.233   2.858   4.884
 2062SOL    HW2 8541   3.119   2.961   4.940
 2063SOL     OW 8542   3.164   2.717   4.033
 2063SOL    HW1 8543   3.078   2.686   4.075
 2063SOL    HW2 8544   3.160   2.703   3.934
 2064SOL     OW 8545   3.621   3.609   4.878
 2064SOL    HW1 8546   3.682   3.639   4.805
 2064SOL    HW2 8547   3.583   3.520   4.856
 2065SOL     OW 8548   3.114   3.593   4.852
 2065SOL    HW1 8549   3.198   3.598   4.798
 2065SOL    HW2 8550   3.091   3.497   4.870
 2066SOL     OW 8551   3.588   1.997   4.247
 2066SOL    HW1 8552   3.661   1.980   4.180
 2066SOL    HW2 8553   3.557   1.910   4.285
 2067SOL     OW 8554   3.250   3.435   4.201
 2067SOL    HW1 8555   3.317   3.447   4.127
 2067SOL    HW2 8556   3.210   3.524   4.224
 2068SOL     OW 8557   3.142   2.789   4.396
 2068SOL    HW1 8558   3.202   2.708   4.398
 2068SOL    HW2 8559   3.182   2.858   4.336
 2069SOL     OW 8560   3.512   3.582   5.118
 2069SOL    HW1 8561   3.565   3.592   5.034
 2069SOL    HW2 8562   3.485   3.672   5.152
 2070SOL     OW 8563   3.703   2.037   4.687
 2070SOL    HW1 8564   3.742   1.952   4.651
 2070SOL    HW2 8565   3.605   2.039   4.668
 2071SOL     OW 8566   3.056   3.474   3.755
 2071SOL    HW1 8567   3.062   3.381   3.792
 2071SOL    HW2 8568   2.997   3.474   3.675
 2072SOL     OW 8569   2.684   2.864   5.096
 2072SOL    HW1 8570   2.724   2.863   5.004
 2072SOL    HW2 8571   2.694   2.956   5.136
 2073SOL     OW 8572   3.366   3.469   3.768
 2073SOL    HW1 8573   3.274   3.506   3.775
 2073SOL    HW2 8574   3.404   3.489   3.678
 2074SOL     OW 8575   2.901   2.960   4.420
 2074SOL    HW1 8576   2.831   2.913   4.474
 2074SOL    HW2 8577   2.960   2.892   4.377
 2075SOL     OW 8578   2.876   2.098   4.695
 2075SOL    HW1 8579   2.868   2.062   4.602
 2075SOL    HW2 8580   2.874   2.022   4.760
 2076SOL     OW 8581   2.452   3.349   4.215
 2076SOL    HW1 8582   2.494   3.291   4.145
 2076SOL    HW2 8583   2.408   3.428   4.171
 2077SOL     OW 8584   3.571   2.247   5.105
 2077SOL    HW1 8585   3.644   2.316   5.109
 2077SOL    HW2 8586   3.599   2.172   5.046
 2078SOL     OW 8587   2.117   3.210   4.014
 2078SOL    HW1 8588   2.021   3.211   3.987
 2078SOL    HW2 8589   2.129   3.263   4.098
 2079SOL     OW 8590   1.937   2.207   3.757
 2079SOL    HW1 8591   1.845   2.179   3.728
 2079SOL    HW2 8592   1.968   2.284   3.701
 2080SOL     OW 8593   1.934   2.028   4.042
 2080SOL    HW1 8594   1.917   2.111   3.988
 2080SOL    HW2 8595   2.024   1.991   4.020
 2081SOL     OW 8596   3.312   3.082   5.357
 2081SOL    HW1 8597   3.303   3.072   5.456
 2081SOL    HW2 8598   3.408   3.075   5.331
 2082SOL     OW 8599   3.536   2.745   4.978
 2082SOL    HW1 8600   3.509   2.656   4.941
 2082SOL    HW2 8601   3.537   2.813   4.905
 2083SOL     OW 8602   3.087   2.187   4.173
 2083SOL    HW1 8603   3.152   2.113   4.162
 2083SOL    HW2 8604   3.107   2.237   4.257
 2084SOL     OW 8605   2.456   2.607   4.376
 2084SOL    HW1 8606   2.506   2.692   4.357
 2084SOL    HW2 8607   2.368   2.609   4.328
 2085SOL     OW 8608   3.592   2.796   5.241
 2085SOL    HW1 8609   3.630   2.887   5.256
 2085SOL    HW2 8610   3.584   2.779   5.142
 2086SOL     OW 8611   2.523   3.652   4.677
 2086SOL    HW1 8612   2.477   3.740   4.664
 2086SOL    HW2 8613   2.622   3.664   4.670
 2087SOL     OW 8614   2.721   2.818   4.585
 2087SOL    HW1 8615   2.775   2.749   4.633
 2087SOL    HW2 8616   2.689   2.887   4.651
 2088SOL     OW 8617   1.941   3.102   4.377
 2088SOL    HW1 8618   1.940   3.055   4.465
 2088SOL    HW2 8619   2.023   3.074   4.326
 2089SOL     OW 8620   3.686   2.054   4.951
 2089SOL    HW1 8621   3.682   1.964   4.995
 2089SOL    HW2 8622   3.689   2.043   4.852
 2090SOL     OW 8623   2.290   2.286   4.244
 2090SOL    HW1 8624   2.320   2.214   4.182
 2090SOL    HW2 8625   2.251   2.246   4.327
 2091SOL     OW 8626   2.674   3.448   4.411
 2091SOL    HW1 8627   2.706   3.458   4.317
 2091SOL    HW2 8628   2.595   3.386   4.413
 2092SOL     OW 8629   3.286   2.076   4.836
 2092SOL    HW1 8630   3.338   2.011   4.891
 2092SOL    HW2 8631   3.237   2.139   4.897
 2093SOL     OW 8632   2.863   1.896   4.878
 2093SOL    HW1 8633   2.800   1.824   4.847
 2093SOL    HW2 8634   2.956   1.860   4.878
 2094SOL     OW 8635   3.162   2.315   4.415
 2094SOL    HW1 8636   3.103   2.395   4.419
 2094SOL    HW2 8637   3.177   2.280   4.508
 2095SOL     OW 8638   1.901   2.939   4.024
 2095SOL    HW1 8639   2.000   2.928   4.015
 2095SOL    HW2 8640   1.861   2.853   4.056
 2096SOL     OW 8641   2.737   3.508   4.061
 2096SOL    HW1 8642   2.660   3.473   4.007
 2096SOL    HW2 8643   2.705   3.579   4.123
 2097SOL     OW 8644   2.092   4.352   0.113
 2097SOL    HW1 8645   1.999   4.350   0.150
 2097SOL    HW2 8646   2.093   4.313   0.021
 2098SOL     OW 8647   2.087   3.999   0.996
 2098SOL    HW1 8648   2.122   3.982   1.088
 2098SOL    HW2 8649   1.999   3.954   0.984
 2099SOL     OW 8650   2.547   4.736   0.665
 2099SOL    HW1 8651   2.616   4.720   0.735
 2099SOL    HW2 8652   2.474   4.793   0.703
 2100SOL     OW 8653   2.548   4.885   1.803
 2100SOL    HW1 8654   2.608   4.964   1.817
 2100SOL    HW2 8655   2.462   4.916   1.762
 2101SOL     OW 8656   2.300   4.116   1.499
 2101SOL    HW1 8657   2.382   4.060   1.508
 2101SOL    HW2 8658   2.219   4.058   1.503
 2102SOL     OW 8659   2.102   4.815   0.886
 2102SOL    HW1 8660   2.116   4.731   0.938
 2102SOL    HW2 8661   2.047   4.879   0.941
 2103SOL     OW 8662   2.468   4.688   0.123
 2103SOL    HW1 8663   2.475   4.772   0.069
 2103SOL    HW2 8664   2.514   4.701   0.211
 2104SOL     OW 8665   3.456   3.838   1.480
 2104SOL    HW1 8666   3.438   3.905   1.408
 2104SOL    HW2 8667   3.453   3.884   1.569
 2105SOL     OW 8668   1.984   4.367   0.563
 2105SOL    HW1 8669   1.939   4.279   0.580
 2105SOL    HW2 8670   1.983   4.421   0.647
 2106SOL     OW 8671   3.551   4.646   0.612
 2106SOL    HW1 8672   3.646   4.617   0.620
 2106SOL    HW2 8673   3.543   4.711   0.537
 2107SOL     OW 8674   3.503   4.832   0.432
 2107SOL    HW1 8675   3.589   4.834   0.380
 2107SOL    HW2 8676   3.517   4.879   0.520
 2108SOL     OW 8677   1.975   4.461   1.597
 2108SOL    HW1 8678   2.063   4.448   1.642
 2108SOL    HW2 8679   1.962   4.558   1.575
 2109SOL     OW 8680   2.671   3.728   0.502
 2109SOL    HW1 8681   2.711   3.819   0.493
 2109SOL    HW2 8682   2.571   3.736   0.508
 2110SOL     OW 8683   2.179   3.975   1.801
 2110SOL    HW1 8684   2.250   4.046   1.807
 2110SOL    HW2 8685   2.091   4.014   1.829
 2111SOL     OW 8686   3.328   5.141   0.953
 2111SOL    HW1 8687   3.269   5.147   1.033
 2111SOL    HW2 8688   3.313   5.053   0.907
 2112SOL     OW 8689   2.460   4.453   0.270
 2112SOL    HW1 8690   2.484   4.522   0.202
 2112SOL    HW2 8691   2.382   4.486   0.324
 2113SOL     OW 8692   3.143   4.069   0.944
 2113SOL    HW1 8693   3.057   4.019   0.931
 2113SOL    HW2 8694   3.205   4.015   1.000
 2114SOL     OW 8695   2.669   4.329   1.465
 2114SOL    HW1 8696   2.622   4.326   1.554
 2114SOL    HW2 8697   2.618   4.274   1.399
 2115SOL     OW 8698   2.853   4.134   1.242
 2115SOL    HW1 8699   2.776   4.168   1.296
 2115SOL    HW2 8700   2.819   4.083   1.163
 2116SOL     OW 8701   2.903   4.425   0.429
 2116SOL    HW1 8702   2.929   4.421   0.525
 2116SOL    HW2 8703   2.818   4.374   0.415
 2117SOL     OW 8704   2.727   4.072   0.195
 2117SOL    HW1 8705   2.786   4.135   0.146
 2117SOL    HW2 8706   2.746   3.978   0.166
 2118SOL     OW 8707   3.581   4.309   1.831
 2118SOL    HW1 8708   3.555   4.398   1.795
 2118SOL    HW2 8709   3.579   4.241   1.758
 2119SOL     OW 8710   2.412   3.920   0.885
 2119SOL    HW1 8711   2.407   3.915   0.985
 2119SOL    HW2 8712   2.414   4.016   0.856
 2120SOL     OW 8713   3.657   4.790   0.873
 2120SOL    HW1 8714   3.595   4.775   0.797
 2120SOL    HW2 8715   3.605   4.801   0.958
 2121SOL     OW 8716   2.183   4.667   0.242
 2121SOL    HW1 8717   2.265   4.706   0.200
 2121SOL    HW2 8718   2.156   4.585   0.193
 2122SOL     OW 8719   3.320   4.459   0.728
 2122SOL    HW1 8720   3.315   4.394   0.803
 2122SOL    HW2 8721   3.400   4.518   0.741
 2123SOL     OW 8722   2.064   4.009   1.498
 2123SOL    HW1 8723   1.984   4.069   1.485
 2123SOL    HW2 8724   2.054   3.960   1.584
 2124SOL     OW 8725   3.262   3.831   0.426
 2124SOL    HW1 8726   3.238   3.794   0.336
 2124SOL    HW2 8727   3.361   3.847   0.430
 2125SOL     OW 8728   2.244   4.424   0.480
 2125SOL    HW1 8729   2.289   4.334   0.477
 2125SOL    HW2 8730   2.150   4.413   0.513
 2126SOL     OW 8731   3.409   3.946   1.729
 2126SOL    HW1 8732   3.404   3.983   1.821
 2126SOL    HW2 8733   3.337   3.877   1.717
 2127SOL     OW 8734   2.643   3.988   1.749
 2127SOL    HW1 8735   2.710   3.927   1.792
 2127SOL    HW2 8736   2.570   4.007   1.814
 2128SOL     OW 8737   2.159   3.759   0.171
 2128SOL    HW1 8738   2.208   3.843   0.150
 2128SOL    HW2 8739   2.221   3.694   0.216
 2129SOL     OW 8740   2.797   3.960   0.480
 2129SOL    HW1 8741   2.749   4.001   0.402
 2129SOL    HW2 8742   2.896   3.958   0.461
 2130SOL     OW 8743   2.938   4.407   1.464
 2130SOL    HW1 8744   2.858   4.346   1.467
 2130SOL    HW2 8745   3.019   4.354   1.440
 2131SOL     OW 8746   3.089   5.294   0.793
 2131SOL    HW1 8747   3.110   5.368   0.728
 2131SOL    HW2 8748   3.157   5.294   0.866
 2132SOL     OW 8749   2.321   4.876   0.741
 2132SOL    HW1 8750   2.250   4.849   0.806
 2132SOL    HW2 8751   2.295   4.848   0.648
 2133SOL     OW 8752   2.894   4.273   0.016
 2133SOL    HW1 8753   2.853   4.355  -0.023
 2133SOL    HW2 8754   2.958   4.299   0.089
 2134SOL     OW 8755   1.940   4.280   1.386
 2134SOL    HW1 8756   2.032   4.279   1.345
 2134SOL    HW2 8757   1.934   4.354   1.453
 2135SOL     OW 8758   2.423   3.946   1.147
 2135SOL    HW1 8759   2.461   3.862   1.184
 2135SOL    HW2 8760   2.335   3.965   1.191
 2136SOL     OW 8761   2.879   3.763   0.753
 2136SOL    HW1 8762   2.807   3.768   0.684
 2136SOL    HW2 8763   2.855   3.694   0.822
 2137SOL     OW 8764   3.291   4.897   0.867
 2137SOL    HW1 8765   3.236   4.813   0.860
 2137SOL    HW2 8766   3.317   4.926   0.775
 2138SOL     OW 8767   3.328   4.314   0.992
 2138SOL    HW1 8768   3.298   4.219   0.999
 2138SOL    HW2 8769   3.401   4.330   1.058
 2139SOL     OW 8770   3.719   4.557   0.377
 2139SOL    HW1 8771   3.761   4.493   0.441
 2139SOL    HW2 8772   3.681   4.506   0.299
 2140SOL     OW 8773   3.526   5.004   0.657
 2140SOL    HW1 8774   3.625   5.012   0.671
 2140SOL    HW2 8775   3.481   5.088   0.688
 2141SOL     OW 8776   3.252   4.299   0.078
 2141SOL    HW1 8777   3.198   4.278   0.159
 2141SOL    HW2 8778   3.343   4.258   0.087
 2142SOL     OW 8779   2.389   3.980   0.328
 2142SOL    HW1 8780   2.416   3.921   0.253
 2142SOL    HW2 8781   2.389   4.075   0.297
 2143SOL     OW 8782   3.500   4.823   1.079
 2143SOL    HW1 8783   3.505   4.904   1.138
 2143SOL    HW2 8784   3.414   4.825   1.028
 2144SOL     OW 8785   2.777   3.813   1.402
 2144SOL    HW1 8786   2.802   3.793   1.307
 2144SOL    HW2 8787   2.849   3.869   1.444
 2145SOL     OW 8788   2.567   4.774   0.368
 2145SOL    HW1 8789   2.553   4.781   0.467
 2145SOL    HW2 8790   2.651   4.723   0.350
 2146SOL     OW 8791   3.136   4.110   1.262
 2146SOL    HW1 8792   3.157   4.184   1.326
 2146SOL    HW2 8793   3.047   4.127   1.219
 2147SOL     OW 8794   2.229   4.824   0.501
 2147SOL    HW1 8795   2.222   4.907   0.445
 2147SOL    HW2 8796   2.233   4.744   0.441
 2148SOL     OW 8797   3.444   4.363   0.472
 2148SOL    HW1 8798   3.413   4.424   0.545
 2148SOL    HW2 8799   3.494   4.415   0.403
 2149SOL     OW 8800   2.264   4.475   1.598
 2149SOL    HW1 8801   2.332   4.530   1.551
 2149SOL    HW2 8802   2.304   4.387   1.625
 2150SOL     OW 8803   3.449   4.503   1.670
 2150SOL    HW1 8804   3.357   4.541   1.665
 2150SOL    HW2 8805   3.509   4.550   1.605
 2151SOL     OW 8806   2.875   3.829   1.770
 2151SOL    HW1 8807   2.881   3.914   1.718
 2151SOL    HW2 8808   2.907   3.753   1.713
 2152SOL     OW 8809   2.366   3.774   1.740
 2152SOL    HW1 8810   2.324   3.717   1.670
 2152SOL    HW2 8811   2.300   3.843   1.772
 2153SOL     OW 8812   3.222   4.586   1.045
 2153SOL    HW1 8813   3.147   4.586   0.979
 2153SOL    HW2 8814   3.259   4.494   1.054
 2154SOL     OW 8815   3.071   4.249   0.275
 2154SOL    HW1 8816   3.084   4.165   0.329
 2154SOL    HW2 8817   3.042   4.323   0.335
 2155SOL     OW 8818   2.594   4.358   1.064
 2155SOL    HW1 8819   2.653   4.332   0.988
 2155SOL    HW2 8820   2.566   4.454   1.053
 2156SOL     OW 8821   3.590   4.659   1.854
 2156SOL    HW1 8822   3.544   4.652   1.765
 2156SOL    HW2 8823   3.528   4.703   1.920
 2157SOL     OW 8824   3.484   4.091   0.374
 2157SOL    HW1 8825   3.486   4.015   0.438
 2157SOL    HW2 8826   3.436   4.168   0.414
 2158SOL     OW 8827   3.402   3.998   0.125
 2158SOL    HW1 8828   3.341   3.923   0.148
 2158SOL    HW2 8829   3.424   4.050   0.208
 2159SOL     OW 8830   3.165   4.562   0.042
 2159SOL    HW1 8831   3.199   4.469   0.057
 2159SOL    HW2 8832   3.183   4.589  -0.053
 2160SOL     OW 8833   3.000   4.104   1.678
 2160SOL    HW1 8834   2.955   4.167   1.742
 2160SOL    HW2 8835   3.093   4.135   1.661
 2161SOL     OW 8836   3.022   3.931   1.477
 2161SOL    HW1 8837   3.022   3.995   1.554
 2161SOL    HW2 8838   3.050   3.979   1.394
 2162SOL     OW 8839   2.864   4.520   1.238
 2162SOL    HW1 8840   2.905   4.488   1.324
 2162SOL    HW2 8841   2.768   4.493   1.235
 2163SOL     OW 8842   1.902   4.268   1.114
 2163SOL    HW1 8843   1.987   4.235   1.073
 2163SOL    HW2 8844   1.915   4.283   1.212
 2164SOL     OW 8845   2.051   4.244   1.722
 2164SOL    HW1 8846   2.110   4.204   1.652
 2164SOL    HW2 8847   1.993   4.315   1.681
 2165SOL     OW 8848   3.231   4.674   1.660
 2165SOL    HW1 8849   3.270   4.763   1.680
 2165SOL    HW2 8850   3.241   4.654   1.563
 2166SOL     OW 8851   2.677   4.296   0.325
 2166SOL    HW1 8852   2.684   4.207   0.279
 2166SOL    HW2 8853   2.583   4.330   0.317
 2167SOL     OW 8854   2.533   4.188   1.269
 2167SOL    HW1 8855   2.499   4.099   1.239
 2167SOL    HW2 8856   2.559   4.242   1.189
 2168SOL     OW 8857   2.335   4.224   0.191
 2168SOL    HW1 8858   2.396   4.304   0.195
 2168SOL    HW2 8859   2.240   4.255   0.198
 2169SOL     OW 8860   2.021   4.861   1.466
 2169SOL    HW1 8861   2.043   4.800   1.542
 2169SOL    HW2 8862   2.031   4.812   1.380
 2170SOL     OW 8863   3.164   4.579   0.309
 2170SOL    HW1 8864   3.078   4.548   0.351
 2170SOL    HW2 8865   3.160   4.565   0.210
 2171SOL     OW 8866   2.765   3.810   0.133
 2171SOL    HW1 8867   2.816   3.811   0.047
 2171SOL    HW2 8868   2.821   3.768   0.204
 2172SOL     OW 8869   3.142   4.651   0.672
 2172SOL    HW1 8870   3.202   4.570   0.674
 2172SOL    HW2 8871   3.182   4.720   0.612
 2173SOL     OW 8872   2.778   4.634   0.291
 2173SOL    HW1 8873   2.841   4.672   0.223
 2173SOL    HW2 8874   2.818   4.551   0.330
 2174SOL     OW 8875   2.234   5.012   1.490
 2174SOL    HW1 8876   2.221   5.105   1.456
 2174SOL    HW2 8877   2.150   4.960   1.477
 2175SOL     OW 8878   2.901   4.822   0.696
 2175SOL    HW1 8879   2.831   4.775   0.750
 2175SOL    HW2 8880   2.960   4.754   0.653
 2176SOL     OW 8881   2.876   3.960   0.971
 2176SOL    HW1 8882   2.868   3.924   0.878
 2176SOL    HW2 8883   2.874   3.884   1.036
 2177SOL     OW 8884   1.967   4.737   1.726
 2177SOL    HW1 8885   1.890   4.704   1.780
 2177SOL    HW2 8886   2.052   4.707   1.768
 2178SOL     OW 8887   2.534   3.927   1.489
 2178SOL    HW1 8888   2.624   3.911   1.449
 2178SOL    HW2 8889   2.542   3.932   1.588
 2179SOL     OW 8890   3.302   4.580   1.398
 2179SOL    HW1 8891   3.245   4.632   1.335
 2179SOL    HW2 8892   3.398   4.592   1.374
 2180SOL     OW 8893   1.934   3.890   0.318
 2180SOL    HW1 8894   1.917   3.973   0.264
 2180SOL    HW2 8895   2.024   3.853   0.296
 2181SOL     OW 8896   2.475   4.566   1.431
 2181SOL    HW1 8897   2.531   4.647   1.414
 2181SOL    HW2 8898   2.534   4.486   1.434
 2182SOL     OW 8899   2.578   4.289   1.708
 2182SOL    HW1 8900   2.597   4.354   1.782
 2182SOL    HW2 8901   2.638   4.209   1.717
 2183SOL     OW 8902   3.536   4.607   1.254
 2183SOL    HW1 8903   3.509   4.518   1.217
 2183SOL    HW2 8904   3.537   4.675   1.181
 2184SOL     OW 8905   3.087   4.049   0.449
 2184SOL    HW1 8906   3.152   3.975   0.438
 2184SOL    HW2 8907   3.107   4.099   0.533
 2185SOL     OW 8908   2.456   4.469   0.652
 2185SOL    HW1 8909   2.506   4.554   0.633
 2185SOL    HW2 8910   2.368   4.471   0.604
 2186SOL     OW 8911   3.639   4.066   1.642
 2186SOL    HW1 8912   3.622   4.097   1.548
 2186SOL    HW2 8913   3.555   4.029   1.680
 2187SOL     OW 8914   2.721   4.680   0.861
 2187SOL    HW1 8915   2.775   4.611   0.909
 2187SOL    HW2 8916   2.689   4.749   0.927
 2188SOL     OW 8917   2.945   4.708   0.087
 2188SOL    HW1 8918   2.922   4.761   0.005
 2188SOL    HW2 8919   3.026   4.652   0.068
 2189SOL     OW 8920   1.941   4.964   0.653
 2189SOL    HW1 8921   1.940   4.917   0.741
 2189SOL    HW2 8922   2.023   4.936   0.602
 2190SOL     OW 8923   2.290   4.148   0.520
 2190SOL    HW1 8924   2.320   4.076   0.458
 2190SOL    HW2 8925   2.251   4.108   0.603
 2191SOL     OW 8926   2.863   3.758   1.154
 2191SOL    HW1 8927   2.800   3.686   1.123
 2191SOL    HW2 8928   2.956   3.722   1.154
 2192SOL     OW 8929   2.632   5.054   0.301
 2192SOL    HW1 8930   2.586   4.967   0.318
 2192SOL    HW2 8931   2.723   5.051   0.342
 2193SOL     OW 8932   3.214   3.776   0.168
 2193SOL    HW1 8933   3.249   3.735   0.084
 2193SOL    HW2 8934   3.124   3.738   0.188
 2194SOL     OW 8935   3.162   4.177   0.691
 2194SOL    HW1 8936   3.103   4.257   0.695
 2194SOL    HW2 8937   3.177   4.142   0.784
 2195SOL     OW 8938   1.901   4.801   0.300
 2195SOL    HW1 8939   2.000   4.790   0.291
 2195SOL    HW2 8940   1.861   4.715   0.332
 2196SOL     OW 8941   2.092   4.352   1.975
 2196SOL    HW1 8942   1.999   4.350   2.012
 2196SOL    HW2 8943   2.093   4.313   1.883
 2197SOL     OW 8944   3.417   5.235   2.565
 2197SOL    HW1 8945   3.360   5.219   2.646
 2197SOL    HW2 8946   3.358   5.245   2.485
 2198SOL     OW 8947   2.997   4.427   2.579
 2198SOL    HW1 8948   3.054   4.505   2.554
 2198SOL    HW2 8949   2.937   4.453   2.655
 2199SOL     OW 8950   3.617   4.331   2.093
 2199SOL    HW1 8951   3.605   4.318   1.994
 2199SOL    HW2 8952   3.587   4.250   2.142
 2200SOL     OW 8953   2.712   4.522   3.685
 2200SOL    HW1 8954   2.708   4.598   3.750
 2200SOL    HW2 8955   2.734   4.558   3.594
 2201SOL     OW 8956   2.197   5.159   2.923
 2201SOL    HW1 8957   2.119   5.128   2.870
 2201SOL    HW2 8958   2.255   5.217   2.866
 2202SOL     OW 8959   2.300   4.116   3.361
 2202SOL    HW1 8960   2.382   4.060   3.370
 2202SOL    HW2 8961   2.219   4.058   3.365
 2203SOL     OW 8962   3.465   4.171   2.599
 2203SOL    HW1 8963   3.391   4.217   2.549
 2203SOL    HW2 8964   3.516   4.239   2.652
 2204SOL     OW 8965   2.102   4.815   2.748
 2204SOL    HW1 8966   2.116   4.731   2.800
 2204SOL    HW2 8967   2.047   4.879   2.803
 2205SOL     OW 8968   2.468   4.688   1.985
 2205SOL    HW1 8969   2.475   4.772   1.931
 2205SOL    HW2 8970   2.514   4.701   2.073
 2206SOL     OW 8971   3.456   3.838   3.342
 2206SOL    HW1 8972   3.438   3.905   3.270
 2206SOL    HW2 8973   3.453   3.884   3.431
 2207SOL     OW 8974   3.551   4.646   2.474
 2207SOL    HW1 8975   3.646   4.617   2.482
 2207SOL    HW2 8976   3.543   4.711   2.399
 2208SOL     OW 8977   3.503   4.832   2.294
 2208SOL    HW1 8978   3.589   4.834   2.242
 2208SOL    HW2 8979   3.517   4.879   2.382
 2209SOL     OW 8980   1.975   4.461   3.459
 2209SOL    HW1 8981   2.063   4.448   3.504
 2209SOL    HW2 8982   1.962   4.558   3.437
 2210SOL     OW 8983   3.155   4.952   3.285
 2210SOL    HW1 8984   3.192   4.879   3.227
 2210SOL    HW2 8985   3.207   4.957   3.370
 2211SOL     OW 8986   2.671   3.728   2.364
 2211SOL    HW1 8987   2.711   3.819   2.355
 2211SOL    HW2 8988   2.571   3.736   2.370
 2212SOL     OW 8989   2.059   4.700   3.126
 2212SOL    HW1 8990   2.148   4.655   3.112
 2212SOL    HW2 8991   1.986   4.635   3.107
 2213SOL     OW 8992   3.387   4.723   2.052
 2213SOL    HW1 8993   3.324   4.647   2.065
 2213SOL    HW2 8994   3.435   4.741   2.138
 2214SOL     OW 8995   2.179   3.975   3.663
 2214SOL    HW1 8996   2.250   4.046   3.669
 2214SOL    HW2 8997   2.091   4.014   3.691
 2215SOL     OW 8998   3.328   5.141   2.815
 2215SOL    HW1 8999   3.269   5.147   2.895
 2215SOL    HW2 9000   3.313   5.053   2.769
 2216SOL     OW 9001   3.143   4.069   2.806
 2216SOL    HW1 9002   3.057   4.019   2.793
 2216SOL    HW2 9003   3.205   4.015   2.862
 2217SOL     OW 9004   3.256   4.193   3.536
 2217SOL    HW1 9005   3.236   4.236   3.624
 2217SOL    HW2 9006   3.334   4.131   3.545
 2218SOL     OW 9007   2.835   4.614   3.434
 2218SOL    HW1 9008   2.881   4.530   3.405
 2218SOL    HW2 9009   2.779   4.648   3.359
 2219SOL     OW 9010   2.727   4.072   2.057
 2219SOL    HW1 9011   2.786   4.135   2.008
 2219SOL    HW2 9012   2.746   3.978   2.028
 2220SOL     OW 9013   3.581   4.309   3.693
 2220SOL    HW1 9014   3.555   4.398   3.657
 2220SOL    HW2 9015   3.579   4.241   3.620
 2221SOL     OW 9016   3.224   4.868   2.407
 2221SOL    HW1 9017   3.307   4.839   2.359
 2221SOL    HW2 9018   3.175   4.935   2.351
 2222SOL     OW 9019   2.412   3.920   2.747
 2222SOL    HW1 9020   2.407   3.915   2.847
 2222SOL    HW2 9021   2.414   4.016   2.718
 2223SOL     OW 9022   3.657   4.790   2.735
 2223SOL    HW1 9023   3.595   4.775   2.659
 2223SOL    HW2 9024   3.605   4.801   2.820
 2224SOL     OW 9025   3.320   4.459   2.590
 2224SOL    HW1 9026   3.315   4.394   2.665
 2224SOL    HW2 9027   3.400   4.518   2.603
 2225SOL     OW 9028   3.262   3.831   2.288
 2225SOL    HW1 9029   3.238   3.794   2.198
 2225SOL    HW2 9030   3.361   3.847   2.292
 2226SOL     OW 9031   3.409   3.946   3.591
 2226SOL    HW1 9032   3.404   3.983   3.683
 2226SOL    HW2 9033   3.337   3.877   3.579
 2227SOL     OW 9034   2.476   3.846   1.979
 2227SOL    HW1 9035   2.574   3.824   1.986
 2227SOL    HW2 9036   2.445   3.829   1.886
 2228SOL     OW 9037   3.213   4.314   3.295
 2228SOL    HW1 9038   3.241   4.271   3.380
 2228SOL    HW2 9039   3.238   4.410   3.296
 2229SOL     OW 9040   2.784   4.227   2.761
 2229SOL    HW1 9041   2.759   4.218   2.665
 2229SOL    HW2 9042   2.832   4.145   2.792
 2230SOL     OW 9043   2.401   3.788   2.374
 2230SOL    HW1 9044   2.320   3.789   2.432
 2230SOL    HW2 9045   2.404   3.871   2.319
 2231SOL     OW 9046   3.296   4.912   1.903
 2231SOL    HW1 9047   3.328   4.836   1.960
 2231SOL    HW2 9048   3.204   4.939   1.933
 2232SOL     OW 9049   2.797   3.960   2.342
 2232SOL    HW1 9050   2.749   4.001   2.264
 2232SOL    HW2 9051   2.896   3.958   2.323
 2233SOL     OW 9052   3.089   5.294   2.655
 2233SOL    HW1 9053   3.110   5.368   2.590
 2233SOL    HW2 9054   3.157   5.294   2.728
 2234SOL     OW 9055   2.321   4.876   2.603
 2234SOL    HW1 9056   2.250   4.849   2.668
 2234SOL    HW2 9057   2.295   4.848   2.510
 2235SOL     OW 9058   2.894   4.273   1.878
 2235SOL    HW1 9059   2.853   4.355   1.839
 2235SOL    HW2 9060   2.958   4.299   1.951
 2236SOL     OW 9061   1.940   4.280   3.248
 2236SOL    HW1 9062   2.032   4.279   3.207
 2236SOL    HW2 9063   1.934   4.354   3.315
 2237SOL     OW 9064   2.728   4.178   2.504
 2237SOL    HW1 9065   2.696   4.250   2.442
 2237SOL    HW2 9066   2.752   4.097   2.451
 2238SOL     OW 9067   2.879   3.763   2.615
 2238SOL    HW1 9068   2.807   3.768   2.546
 2238SOL    HW2 9069   2.855   3.694   2.684
 2239SOL     OW 9070   3.291   4.897   2.729
 2239SOL    HW1 9071   3.236   4.813   2.722
 2239SOL    HW2 9072   3.317   4.926   2.637
 2240SOL     OW 9073   3.328   4.314   2.854
 2240SOL    HW1 9074   3.298   4.219   2.861
 2240SOL    HW2 9075   3.401   4.330   2.920
 2241SOL     OW 9076   3.719   4.557   2.239
 2241SOL    HW1 9077   3.761   4.493   2.303
 2241SOL    HW2 9078   3.681   4.506   2.161
 2242SOL     OW 9079   3.526   5.004   2.519
 2242SOL    HW1 9080   3.625   5.012   2.533
 2242SOL    HW2 9081   3.481   5.088   2.550
 2243SOL     OW 9082   3.252   4.299   1.940
 2243SOL    HW1 9083   3.198   4.278   2.021
 2243SOL    HW2 9084   3.343   4.258   1.949
 2244SOL     OW 9085   2.389   3.980   2.190
 2244SOL    HW1 9086   2.416   3.921   2.115
 2244SOL    HW2 9087   2.389   4.075   2.159
 2245SOL     OW 9088   3.616   4.947   3.450
 2245SOL    HW1 9089   3.707   4.908   3.437
 2245SOL    HW2 9090   3.624   5.043   3.474
 2246SOL     OW 9091   3.500   4.823   2.941
 2246SOL    HW1 9092   3.505   4.904   3.000
 2246SOL    HW2 9093   3.414   4.825   2.890
 2247SOL     OW 9094   2.842   4.840   3.581
 2247SOL    HW1 9095   2.743   4.846   3.591
 2247SOL    HW2 9096   2.865   4.760   3.525
 2248SOL     OW 9097   2.272   4.537   3.113
 2248SOL    HW1 9098   2.358   4.549   3.163
 2248SOL    HW2 9099   2.230   4.450   3.140
 2249SOL     OW 9100   3.136   4.110   3.124
 2249SOL    HW1 9101   3.157   4.184   3.188
 2249SOL    HW2 9102   3.047   4.127   3.081
 2250SOL     OW 9103   2.229   4.824   2.363
 2250SOL    HW1 9104   2.222   4.907   2.307
 2250SOL    HW2 9105   2.233   4.744   2.303
 2251SOL     OW 9106   3.444   4.363   2.334
 2251SOL    HW1 9107   3.413   4.424   2.407
 2251SOL    HW2 9108   3.494   4.415   2.265
 2252SOL     OW 9109   2.264   4.475   3.460
 2252SOL    HW1 9110   2.332   4.530   3.413
 2252SOL    HW2 9111   2.304   4.387   3.487
 2253SOL     OW 9112   3.449   4.503   3.532
 2253SOL    HW1 9113   3.357   4.541   3.527
 2253SOL    HW2 9114   3.509   4.550   3.467
 2254SOL     OW 9115   2.875   3.829   3.632
 2254SOL    HW1 9116   2.881   3.914   3.580
 2254SOL    HW2 9117   2.907   3.753   3.575
 2255SOL     OW 9118   2.366   3.774   3.602
 2255SOL    HW1 9119   2.324   3.717   3.532
 2255SOL    HW2 9120   2.300   3.843   3.634
 2256SOL     OW 9121   3.071   4.249   2.137
 2256SOL    HW1 9122   3.084   4.165   2.191
 2256SOL    HW2 9123   3.042   4.323   2.197
 2257SOL     OW 9124   3.590   4.659   3.716
 2257SOL    HW1 9125   3.544   4.652   3.627
 2257SOL    HW2 9126   3.528   4.703   3.782
 2258SOL     OW 9127   2.169   3.787   2.480
 2258SOL    HW1 9128   2.158   3.881   2.513
 2258SOL    HW2 9129   2.164   3.724   2.557
 2259SOL     OW 9130   3.484   4.091   2.236
 2259SOL    HW1 9131   3.486   4.015   2.300
 2259SOL    HW2 9132   3.436   4.168   2.276
 2260SOL     OW 9133   2.885   4.490   2.828
 2260SOL    HW1 9134   2.900   4.511   2.924
 2260SOL    HW2 9135   2.855   4.395   2.819
 2261SOL     OW 9136   3.721   5.242   3.467
 2261SOL    HW1 9137   3.735   5.269   3.372
 2261SOL    HW2 9138   3.804   5.264   3.520
 2262SOL     OW 9139   2.212   4.622   3.666
 2262SOL    HW1 9140   2.288   4.666   3.714
 2262SOL    HW2 9141   2.247   4.575   3.584
 2263SOL     OW 9142   3.402   3.998   1.987
 2263SOL    HW1 9143   3.341   3.923   2.010
 2263SOL    HW2 9144   3.424   4.050   2.070
 2264SOL     OW 9145   3.165   4.562   1.904
 2264SOL    HW1 9146   3.199   4.469   1.919
 2264SOL    HW2 9147   3.183   4.589   1.809
 2265SOL     OW 9148   2.181   4.534   2.811
 2265SOL    HW1 9149   2.274   4.570   2.816
 2265SOL    HW2 9150   2.175   4.449   2.863
 2266SOL     OW 9151   2.201   4.233   2.868
 2266SOL    HW1 9152   2.149   4.150   2.851
 2266SOL    HW2 9153   2.278   4.238   2.804
 2267SOL     OW 9154   1.870   5.050   2.062
 2267SOL    HW1 9155   1.777   5.071   2.031
 2267SOL    HW2 9156   1.880   4.951   2.075
 2268SOL     OW 9157   2.864   4.520   3.100
 2268SOL    HW1 9158   2.905   4.488   3.186
 2268SOL    HW2 9159   2.768   4.493   3.097
 2269SOL     OW 9160   1.902   4.268   2.976
 2269SOL    HW1 9161   1.987   4.235   2.935
 2269SOL    HW2 9162   1.915   4.283   3.074
 2270SOL     OW 9163   2.051   4.244   3.584
 2270SOL    HW1 9164   2.110   4.204   3.514
 2270SOL    HW2 9165   1.993   4.315   3.543
 2271SOL     OW 9166   3.231   4.674   3.522
 2271SOL    HW1 9167   3.270   4.763   3.542
 2271SOL    HW2 9168   3.241   4.654   3.425
 2272SOL     OW 9169   2.677   4.296   2.187
 2272SOL    HW1 9170   2.684   4.207   2.141
 2272SOL    HW2 9171   2.583   4.330   2.179
 2273SOL     OW 9172   3.519   4.328   3.068
 2273SOL    HW1 9173   3.481   4.259   3.130
 2273SOL    HW2 9174   3.601   4.292   3.024
 2274SOL     OW 9175   2.533   4.188   3.131
 2274SOL    HW1 9176   2.499   4.099   3.101
 2274SOL    HW2 9177   2.559   4.242   3.051
 2275SOL     OW 9178   2.335   4.224   2.053
 2275SOL    HW1 9179   2.396   4.304   2.057
 2275SOL    HW2 9180   2.240   4.255   2.060
 2276SOL     OW 9181   2.021   4.861   3.328
 2276SOL    HW1 9182   2.043   4.800   3.404
 2276SOL    HW2 9183   2.031   4.812   3.242
 2277SOL     OW 9184   3.209   4.783   3.096
 2277SOL    HW1 9185   3.233   4.720   3.022
 2277SOL    HW2 9186   3.119   4.823   3.078
 2278SOL     OW 9187   1.945   4.982   2.884
 2278SOL    HW1 9188   1.940   4.981   2.984
 2278SOL    HW2 9189   1.862   4.941   2.846
 2279SOL     OW 9190   3.588   3.859   2.385
 2279SOL    HW1 9191   3.661   3.842   2.318
 2279SOL    HW2 9192   3.557   3.772   2.423
 2280SOL     OW 9193   3.142   4.651   2.534
 2280SOL    HW1 9194   3.202   4.570   2.536
 2280SOL    HW2 9195   3.182   4.720   2.474
 2281SOL     OW 9196   3.703   3.899   2.825
 2281SOL    HW1 9197   3.742   3.814   2.789
 2281SOL    HW2 9198   3.605   3.901   2.806
 2282SOL     OW 9199   2.125   4.050   2.582
 2282SOL    HW1 9200   2.046   4.101   2.548
 2282SOL    HW2 9201   2.116   4.035   2.680
 2283SOL     OW 9202   3.056   5.336   1.893
 2283SOL    HW1 9203   3.062   5.243   1.930
 2283SOL    HW2 9204   2.997   5.336   1.813
 2284SOL     OW 9205   2.684   4.726   3.234
 2284SOL    HW1 9206   2.724   4.725   3.142
 2284SOL    HW2 9207   2.694   4.818   3.274
 2285SOL     OW 9208   2.234   5.012   3.352
 2285SOL    HW1 9209   2.221   5.105   3.318
 2285SOL    HW2 9210   2.150   4.960   3.339
 2286SOL     OW 9211   3.476   5.016   3.151
 2286SOL    HW1 9212   3.536   5.019   3.231
 2286SOL    HW2 9213   3.401   5.080   3.164
 2287SOL     OW 9214   3.571   4.109   3.243
 2287SOL    HW1 9215   3.644   4.178   3.247
 2287SOL    HW2 9216   3.599   4.034   3.184
 2288SOL     OW 9217   1.967   4.737   3.588
 2288SOL    HW1 9218   1.890   4.704   3.642
 2288SOL    HW2 9219   2.052   4.707   3.630
 2289SOL     OW 9220   2.534   3.927   3.351
 2289SOL    HW1 9221   2.624   3.911   3.311
 2289SOL    HW2 9222   2.542   3.932   3.450
 2290SOL     OW 9223   1.937   4.069   1.895
 2290SOL    HW1 9224   1.845   4.041   1.866
 2290SOL    HW2 9225   1.968   4.146   1.839
 2291SOL     OW 9226   3.302   4.580   3.260
 2291SOL    HW1 9227   3.245   4.632   3.197
 2291SOL    HW2 9228   3.398   4.592   3.236
 2292SOL     OW 9229   1.934   3.890   2.180
 2292SOL    HW1 9230   1.917   3.973   2.126
 2292SOL    HW2 9231   2.024   3.853   2.158
 2293SOL     OW 9232   2.475   4.566   3.293
 2293SOL    HW1 9233   2.531   4.647   3.276
 2293SOL    HW2 9234   2.534   4.486   3.296
 2294SOL     OW 9235   3.312   4.944   3.495
 2294SOL    HW1 9236   3.303   4.934   3.594
 2294SOL    HW2 9237   3.408   4.937   3.469
 2295SOL     OW 9238   3.536   4.607   3.116
 2295SOL    HW1 9239   3.509   4.518   3.079
 2295SOL    HW2 9240   3.537   4.675   3.043
 2296SOL     OW 9241   3.087   4.049   2.311
 2296SOL    HW1 9242   3.152   3.975   2.300
 2296SOL    HW2 9243   3.107   4.099   2.395
 2297SOL     OW 9244   3.639   4.066   3.504
 2297SOL    HW1 9245   3.622   4.097   3.410
 2297SOL    HW2 9246   3.555   4.029   3.542
 2298SOL     OW 9247   3.592   4.658   3.379
 2298SOL    HW1 9248   3.630   4.749   3.394
 2298SOL    HW2 9249   3.584   4.641   3.280
 2299SOL     OW 9250   1.941   4.964   2.515
 2299SOL    HW1 9251   1.940   4.917   2.603
 2299SOL    HW2 9252   2.023   4.936   2.464
 2300SOL     OW 9253   3.686   3.916   3.089
 2300SOL    HW1 9254   3.682   3.826   3.133
 2300SOL    HW2 9255   3.689   3.905   2.990
 2301SOL     OW 9256   2.290   4.148   2.382
 2301SOL    HW1 9257   2.320   4.076   2.320
 2301SOL    HW2 9258   2.251   4.108   2.465
 2302SOL     OW 9259   2.179   4.271   3.142
 2302SOL    HW1 9260   2.217   4.212   3.214
 2302SOL    HW2 9261   2.219   4.245   3.054
 2303SOL     OW 9262   3.286   3.938   2.974
 2303SOL    HW1 9263   3.338   3.873   3.029
 2303SOL    HW2 9264   3.237   4.001   3.035
 2304SOL     OW 9265   3.214   3.776   2.030
 2304SOL    HW1 9266   3.249   3.735   1.946
 2304SOL    HW2 9267   3.124   3.738   2.050
 2305SOL     OW 9268   3.162   4.177   2.553
 2305SOL    HW1 9269   3.103   4.257   2.557
 2305SOL    HW2 9270   3.177   4.142   2.646
 2306SOL     OW 9271   3.455   3.945   2.744
 2306SOL    HW1 9272   3.371   3.944   2.798
 2306SOL    HW2 9273   3.457   4.028   2.688
 2307SOL     OW 9274   2.092   4.352   3.837
 2307SOL    HW1 9275   1.999   4.350   3.874
 2307SOL    HW2 9276   2.093   4.313   3.745
 2308SOL     OW 9277   2.087   3.999   4.720
 2308SOL    HW1 9278   2.122   3.982   4.812
 2308SOL    HW2 9279   1.999   3.954   4.708
 2309SOL     OW 9280   1.881   4.092   4.371
 2309SOL    HW1 9281   1.799   4.135   4.410
 2309SOL    HW2 9282   1.853   4.019   4.308
 2310SOL     OW 9283   2.431   4.999   4.889
 2310SOL    HW1 9284   2.338   4.992   4.852
 2310SOL    HW2 9285   2.442   5.088   4.933
 2311SOL     OW 9286   2.997   4.427   4.441
 2311SOL    HW1 9287   3.054   4.505   4.416
 2311SOL    HW2 9288   2.937   4.453   4.517
 2312SOL     OW 9289   3.617   4.331   3.955
 2312SOL    HW1 9290   3.605   4.318   3.856
 2312SOL    HW2 9291   3.587   4.250   4.004
 2313SOL     OW 9292   2.630   4.868   4.747
 2313SOL    HW1 9293   2.552   4.885   4.807
 2313SOL    HW2 9294   2.664   4.955   4.711
 2314SOL     OW 9295   2.197   5.159   4.785
 2314SOL    HW1 9296   2.119   5.128   4.732
 2314SOL    HW2 9297   2.255   5.217   4.728
 2315SOL     OW 9298   3.465   4.171   4.461
 2315SOL    HW1 9299   3.391   4.217   4.411
 2315SOL    HW2 9300   3.516   4.239   4.514
 2316SOL     OW 9301   2.102   4.815   4.610
 2316SOL    HW1 9302   2.116   4.731   4.662
 2316SOL    HW2 9303   2.047   4.879   4.665
 2317SOL     OW 9304   2.468   4.688   3.847
 2317SOL    HW1 9305   2.475   4.772   3.793
 2317SOL    HW2 9306   2.514   4.701   3.935
 2318SOL     OW 9307   1.984   4.367   4.287
 2318SOL    HW1 9308   1.939   4.279   4.304
 2318SOL    HW2 9309   1.983   4.421   4.371
 2319SOL     OW 9310   3.551   4.646   4.336
 2319SOL    HW1 9311   3.646   4.617   4.344
 2319SOL    HW2 9312   3.543   4.711   4.261
 2320SOL     OW 9313   3.503   4.832   4.156
 2320SOL    HW1 9314   3.589   4.834   4.104
 2320SOL    HW2 9315   3.517   4.879   4.244
 2321SOL     OW 9316   2.671   3.728   4.226
 2321SOL    HW1 9317   2.711   3.819   4.217
 2321SOL    HW2 9318   2.571   3.736   4.232
 2322SOL     OW 9319   2.059   4.700   4.988
 2322SOL    HW1 9320   2.148   4.655   4.974
 2322SOL    HW2 9321   1.986   4.635   4.969
 2323SOL     OW 9322   3.387   4.723   3.914
 2323SOL    HW1 9323   3.324   4.647   3.927
 2323SOL    HW2 9324   3.435   4.741   4.000
 2324SOL     OW 9325   2.460   4.453   3.994
 2324SOL    HW1 9326   2.484   4.522   3.926
 2324SOL    HW2 9327   2.382   4.486   4.048
 2325SOL     OW 9328   3.143   4.069   4.668
 2325SOL    HW1 9329   3.057   4.019   4.655
 2325SOL    HW2 9330   3.205   4.015   4.724
 2326SOL     OW 9331   2.853   4.134   4.966
 2326SOL    HW1 9332   2.776   4.168   5.020
 2326SOL    HW2 9333   2.819   4.083   4.887
 2327SOL     OW 9334   2.903   4.425   4.153
 2327SOL    HW1 9335   2.929   4.421   4.249
 2327SOL    HW2 9336   2.818   4.374   4.139
 2328SOL     OW 9337   1.938   4.535   4.513
 2328SOL    HW1 9338   2.037   4.523   4.522
 2328SOL    HW2 9339   1.914   4.630   4.534
 2329SOL     OW 9340   2.727   4.072   3.919
 2329SOL    HW1 9341   2.786   4.135   3.870
 2329SOL    HW2 9342   2.746   3.978   3.890
 2330SOL     OW 9343   2.412   3.920   4.609
 2330SOL    HW1 9344   2.407   3.915   4.709
 2330SOL    HW2 9345   2.414   4.016   4.580
 2331SOL     OW 9346   3.657   4.790   4.597
 2331SOL    HW1 9347   3.595   4.775   4.521
 2331SOL    HW2 9348   3.605   4.801   4.682
 2332SOL     OW 9349   2.183   4.667   3.966
 2332SOL    HW1 9350   2.265   4.706   3.924
 2332SOL    HW2 9351   2.156   4.585   3.917
 2333SOL     OW 9352   3.320   4.459   4.452
 2333SOL    HW1 9353   3.315   4.394   4.527
 2333SOL    HW2 9354   3.400   4.518   4.465
 2334SOL     OW 9355   3.494   5.101   3.805
 2334SOL    HW1 9356   3.462   5.195   3.795
 2334SOL    HW2 9357   3.418   5.038   3.793
 2335SOL     OW 9358   3.262   3.831   4.150
 2335SOL    HW1 9359   3.238   3.794   4.060
 2335SOL    HW2 9360   3.361   3.847   4.154
 2336SOL     OW 9361   2.476   3.846   3.841
 2336SOL    HW1 9362   2.574   3.824   3.848
 2336SOL    HW2 9363   2.445   3.829   3.748
 2337SOL     OW 9364   2.665   5.126   4.648
 2337SOL    HW1 9365   2.755   5.140   4.606
 2337SOL    HW2 9366   2.594   5.128   4.577
 2338SOL     OW 9367   2.159   3.759   3.895
 2338SOL    HW1 9368   2.208   3.843   3.874
 2338SOL    HW2 9369   2.221   3.694   3.940
 2339SOL     OW 9370   2.797   3.960   4.204
 2339SOL    HW1 9371   2.749   4.001   4.126
 2339SOL    HW2 9372   2.896   3.958   4.185
 2340SOL     OW 9373   3.089   5.294   4.517
 2340SOL    HW1 9374   3.110   5.368   4.452
 2340SOL    HW2 9375   3.157   5.294   4.590
 2341SOL     OW 9376   2.894   4.273   3.740
 2341SOL    HW1 9377   2.853   4.355   3.701
 2341SOL    HW2 9378   2.958   4.299   3.813
 2342SOL     OW 9379   2.423   3.946   4.871
 2342SOL    HW1 9380   2.461   3.862   4.908
 2342SOL    HW2 9381   2.335   3.965   4.915
 2343SOL     OW 9382   2.879   3.763   4.477
 2343SOL    HW1 9383   2.807   3.768   4.408
 2343SOL    HW2 9384   2.855   3.694   4.546
 2344SOL     OW 9385   3.328   4.314   4.716
 2344SOL    HW1 9386   3.298   4.219   4.723
 2344SOL    HW2 9387   3.401   4.330   4.782
 2345SOL     OW 9388   3.719   4.557   4.101
 2345SOL    HW1 9389   3.761   4.493   4.165
 2345SOL    HW2 9390   3.681   4.506   4.023
 2346SOL     OW 9391   3.252   4.299   3.802
 2346SOL    HW1 9392   3.198   4.278   3.883
 2346SOL    HW2 9393   3.343   4.258   3.811
 2347SOL     OW 9394   3.500   4.823   4.803
 2347SOL    HW1 9395   3.505   4.904   4.862
 2347SOL    HW2 9396   3.414   4.825   4.752
 2348SOL     OW 9397   2.567   4.774   4.092
 2348SOL    HW1 9398   2.553   4.781   4.191
 2348SOL    HW2 9399   2.651   4.723   4.074
 2349SOL     OW 9400   2.272   4.537   4.975
 2349SOL    HW1 9401   2.358   4.549   5.025
 2349SOL    HW2 9402   2.230   4.450   5.002
 2350SOL     OW 9403   3.136   4.110   4.986
 2350SOL    HW1 9404   3.157   4.184   5.050
 2350SOL    HW2 9405   3.047   4.127   4.943
 2351SOL     OW 9406   3.444   4.363   4.196
 2351SOL    HW1 9407   3.413   4.424   4.269
 2351SOL    HW2 9408   3.494   4.415   4.127
 2352SOL     OW 9409   3.222   4.586   4.769
 2352SOL    HW1 9410   3.147   4.586   4.703
 2352SOL    HW2 9411   3.259   4.494   4.778
 2353SOL     OW 9412   3.071   4.249   3.999
 2353SOL    HW1 9413   3.084   4.165   4.053
 2353SOL    HW2 9414   3.042   4.323   4.059
 2354SOL     OW 9415   2.169   3.937   4.955
 2354SOL    HW1 9416   2.146   3.974   5.045
 2354SOL    HW2 9417   2.139   3.842   4.949
 2355SOL     OW 9418   2.169   3.787   4.342
 2355SOL    HW1 9419   2.158   3.881   4.375
 2355SOL    HW2 9420   2.164   3.724   4.419
 2356SOL     OW 9421   3.484   4.091   4.098
 2356SOL    HW1 9422   3.486   4.015   4.162
 2356SOL    HW2 9423   3.436   4.168   4.138
 2357SOL     OW 9424   2.885   4.490   4.690
 2357SOL    HW1 9425   2.900   4.511   4.786
 2357SOL    HW2 9426   2.855   4.395   4.681
 2358SOL     OW 9427   3.402   3.998   3.849
 2358SOL    HW1 9428   3.341   3.923   3.872
 2358SOL    HW2 9429   3.424   4.050   3.932
 2359SOL     OW 9430   2.181   4.534   4.673
 2359SOL    HW1 9431   2.274   4.570   4.678
 2359SOL    HW2 9432   2.175   4.449   4.725
 2360SOL     OW 9433   2.201   4.233   4.730
 2360SOL    HW1 9434   2.149   4.150   4.713
 2360SOL    HW2 9435   2.278   4.238   4.666
 2361SOL     OW 9436   3.022   3.931   5.201
 2361SOL    HW1 9437   3.022   3.995   5.278
 2361SOL    HW2 9438   3.050   3.979   5.118
 2362SOL     OW 9439   1.870   5.050   3.924
 2362SOL    HW1 9440   1.777   5.071   3.893
 2362SOL    HW2 9441   1.880   4.951   3.937
 2363SOL     OW 9442   2.864   4.520   4.962
 2363SOL    HW1 9443   2.905   4.488   5.048
 2363SOL    HW2 9444   2.768   4.493   4.959
 2364SOL     OW 9445   1.902   4.268   4.838
 2364SOL    HW1 9446   1.987   4.235   4.797
 2364SOL    HW2 9447   1.915   4.283   4.936
 2365SOL     OW 9448   2.677   4.296   4.049
 2365SOL    HW1 9449   2.684   4.207   4.003
 2365SOL    HW2 9450   2.583   4.330   4.041
 2366SOL     OW 9451   3.519   4.328   4.930
 2366SOL    HW1 9452   3.481   4.259   4.992
 2366SOL    HW2 9453   3.601   4.292   4.886
 2367SOL     OW 9454   2.533   4.188   4.993
 2367SOL    HW1 9455   2.499   4.099   4.963
 2367SOL    HW2 9456   2.559   4.242   4.913
 2368SOL     OW 9457   2.335   4.224   3.915
 2368SOL    HW1 9458   2.396   4.304   3.919
 2368SOL    HW2 9459   2.240   4.255   3.922
 2369SOL     OW 9460   1.945   4.982   4.746
 2369SOL    HW1 9461   1.940   4.981   4.846
 2369SOL    HW2 9462   1.862   4.941   4.708
 2370SOL     OW 9463   3.588   3.859   4.247
 2370SOL    HW1 9464   3.661   3.842   4.180
 2370SOL    HW2 9465   3.557   3.772   4.285
 2371SOL     OW 9466   2.692   4.997   5.146
 2371SOL    HW1 9467   2.687   5.030   5.241
 2371SOL    HW2 9468   2.606   5.016   5.100
 2372SOL     OW 9469   2.125   4.050   4.444
 2372SOL    HW1 9470   2.046   4.101   4.410
 2372SOL    HW2 9471   2.116   4.035   4.542
 2373SOL     OW 9472   3.056   5.336   3.755
 2373SOL    HW1 9473   3.062   5.243   3.792
 2373SOL    HW2 9474   2.997   5.336   3.675
 2374SOL     OW 9475   2.684   4.726   5.096
 2374SOL    HW1 9476   2.724   4.725   5.004
 2374SOL    HW2 9477   2.694   4.818   5.136
 2375SOL     OW 9478   2.778   4.634   4.015
 2375SOL    HW1 9479   2.841   4.672   3.947
 2375SOL    HW2 9480   2.818   4.551   4.054
 2376SOL     OW 9481   2.901   4.822   4.420
 2376SOL    HW1 9482   2.831   4.775   4.474
 2376SOL    HW2 9483   2.960   4.754   4.377
 2377SOL     OW 9484   2.876   3.960   4.695
 2377SOL    HW1 9485   2.868   3.924   4.602
 2377SOL    HW2 9486   2.874   3.884   4.760
 2378SOL     OW 9487   1.937   4.069   3.757
 2378SOL    HW1 9488   1.845   4.041   3.728
 2378SOL    HW2 9489   1.968   4.146   3.701
 2379SOL     OW 9490   1.934   3.890   4.042
 2379SOL    HW1 9491   1.917   3.973   3.988
 2379SOL    HW2 9492   2.024   3.853   4.020
 2380SOL     OW 9493   3.536   4.607   4.978
 2380SOL    HW1 9494   3.509   4.518   4.941
 2380SOL    HW2 9495   3.537   4.675   4.905
 2381SOL     OW 9496   3.087   4.049   4.173
 2381SOL    HW1 9497   3.152   3.975   4.162
 2381SOL    HW2 9498   3.107   4.099   4.257
 2382SOL     OW 9499   3.592   4.658   5.241
 2382SOL    HW1 9500   3.630   4.749   5.256
 2382SOL    HW2 9501   3.584   4.641   5.142
 2383SOL     OW 9502   1.941   4.964   4.377
 2383SOL    HW1 9503   1.940   4.917   4.465
 2383SOL    HW2 9504   2.023   4.936   4.326
 2384SOL     OW 9505   3.286   3.938   4.836
 2384SOL    HW1 9506   3.338   3.873   4.891
 2384SOL    HW2 9507   3.237   4.001   4.897
 2385SOL     OW 9508   2.863   3.758   4.878
 2385SOL    HW1 9509   2.800   3.686   4.847
 2385SOL    HW2 9510   2.956   3.722   4.878
 2386SOL     OW 9511   2.632   5.054   4.025
 2386SOL    HW1 9512   2.586   4.967   4.042
 2386SOL    HW2 9513   2.723   5.051   4.066
 2387SOL     OW 9514   3.214   3.776   3.892
 2387SOL    HW1 9515   3.249   3.735   3.808
 2387SOL    HW2 9516   3.124   3.738   3.912
 2388SOL     OW 9517   3.162   4.177   4.415
 2388SOL    HW1 9518   3.103   4.257   4.419
 2388SOL    HW2 9519   3.177   4.142   4.508
 2389SOL     OW 9520   3.455   3.945   4.606
 2389SOL    HW1 9521   3.371   3.944   4.660
 2389SOL    HW2 9522   3.457   4.028   4.550
 2390SOL     OW 9523   1.901   4.801   4.024
 2390SOL    HW1 9524   2.000   4.790   4.015
 2390SOL    HW2 9525   1.861   4.715   4.056
 2391SOL     OW 9526   3.954   0.628   0.113
 2391SOL    HW1 9527   3.861   0.626   0.150
 2391SOL    HW2 9528   3.955   0.589   0.021
 2392SOL     OW 9529   3.949   0.275   0.996
 2392SOL    HW1 9530   3.984   0.258   1.088
 2392SOL    HW2 9531   3.861   0.230   0.984
 2393SOL     OW 9532   3.743   0.368   0.647
 2393SOL    HW1 9533   3.661   0.411   0.686
 2393SOL    HW2 9534   3.715   0.295   0.584
 2394SOL     OW 9535   4.293   1.275   1.165
 2394SOL    HW1 9536   4.200   1.268   1.128
 2394SOL    HW2 9537   4.304   1.364   1.209
 2395SOL     OW 9538   4.859   0.703   0.717
 2395SOL    HW1 9539   4.916   0.781   0.692
 2395SOL    HW2 9540   4.799   0.729   0.793
 2396SOL     OW 9541   4.492   1.144   1.023
 2396SOL    HW1 9542   4.414   1.161   1.083
 2396SOL    HW2 9543   4.526   1.231   0.987
 2397SOL     OW 9544   4.574   0.798   1.823
 2397SOL    HW1 9545   4.570   0.874   1.888
 2397SOL    HW2 9546   4.596   0.834   1.732
 2398SOL     OW 9547   4.410   1.161   1.803
 2398SOL    HW1 9548   4.470   1.240   1.817
 2398SOL    HW2 9549   4.324   1.192   1.762
 2399SOL     OW 9550   4.059   1.435   1.061
 2399SOL    HW1 9551   3.981   1.404   1.008
 2399SOL    HW2 9552   4.117   1.493   1.004
 2400SOL     OW 9553   4.162   0.392   1.499
 2400SOL    HW1 9554   4.244   0.336   1.508
 2400SOL    HW2 9555   4.081   0.334   1.503
 2401SOL     OW 9556   4.851   1.341   1.690
 2401SOL    HW1 9557   4.898   1.341   1.778
 2401SOL    HW2 9558   4.803   1.254   1.679
 2402SOL     OW 9559   3.954   1.434   0.538
 2402SOL    HW1 9560   3.928   1.530   0.538
 2402SOL    HW2 9561   3.883   1.380   0.583
 2403SOL     OW 9562   4.344   1.786   1.439
 2403SOL    HW1 9563   4.252   1.769   1.474
 2403SOL    HW2 9564   4.372   1.878   1.465
 2404SOL     OW 9565   3.846   0.643   0.563
 2404SOL    HW1 9566   3.801   0.555   0.580
 2404SOL    HW2 9567   3.845   0.697   0.647
 2405SOL     OW 9568   3.751   1.596   0.117
 2405SOL    HW1 9569   3.732   1.500   0.138
 2405SOL    HW2 9570   3.718   1.654   0.192
 2406SOL     OW 9571   3.837   0.737   1.597
 2406SOL    HW1 9572   3.925   0.724   1.642
 2406SOL    HW2 9573   3.824   0.834   1.575
 2407SOL     OW 9574   5.017   1.228   1.423
 2407SOL    HW1 9575   5.054   1.155   1.365
 2407SOL    HW2 9576   5.069   1.233   1.508
 2408SOL     OW 9577   3.921   0.976   1.264
 2408SOL    HW1 9578   4.010   0.931   1.250
 2408SOL    HW2 9579   3.848   0.911   1.245
 2409SOL     OW 9580   4.041   0.251   1.801
 2409SOL    HW1 9581   4.112   0.322   1.807
 2409SOL    HW2 9582   3.953   0.290   1.829
 2410SOL     OW 9583   4.322   0.729   0.270
 2410SOL    HW1 9584   4.346   0.798   0.202
 2410SOL    HW2 9585   4.244   0.762   0.324
 2411SOL     OW 9586   5.005   0.345   0.944
 2411SOL    HW1 9587   4.919   0.295   0.931
 2411SOL    HW2 9588   5.067   0.291   1.000
 2412SOL     OW 9589   4.531   0.605   1.465
 2412SOL    HW1 9590   4.484   0.602   1.554
 2412SOL    HW2 9591   4.480   0.550   1.399
 2413SOL     OW 9592   4.697   0.890   1.572
 2413SOL    HW1 9593   4.743   0.806   1.543
 2413SOL    HW2 9594   4.641   0.924   1.497
 2414SOL     OW 9595   4.715   0.410   1.242
 2414SOL    HW1 9596   4.638   0.444   1.296
 2414SOL    HW2 9597   4.681   0.359   1.163
 2415SOL     OW 9598   3.800   0.811   0.789
 2415SOL    HW1 9599   3.899   0.799   0.798
 2415SOL    HW2 9600   3.776   0.906   0.810
 2416SOL     OW 9601   4.589   0.348   0.195
 2416SOL    HW1 9602   4.648   0.411   0.146
 2416SOL    HW2 9603   4.608   0.254   0.166
 2417SOL     OW 9604   4.274   0.196   0.885
 2417SOL    HW1 9605   4.269   0.191   0.985
 2417SOL    HW2 9606   4.276   0.292   0.856
 2418SOL     OW 9607   4.732   1.456   0.477
 2418SOL    HW1 9608   4.686   1.528   0.425
 2418SOL    HW2 9609   4.728   1.476   0.575
 2419SOL     OW 9610   4.185   1.266   1.727
 2419SOL    HW1 9611   4.135   1.267   1.641
 2419SOL    HW2 9612   4.122   1.248   1.803
 2420SOL     OW 9613   4.835   1.776   0.237
 2420SOL    HW1 9614   4.775   1.714   0.287
 2420SOL    HW2 9615   4.866   1.732   0.152
 2421SOL     OW 9616   3.926   0.285   1.498
 2421SOL    HW1 9617   3.846   0.345   1.485
 2421SOL    HW2 9618   3.916   0.236   1.584
 2422SOL     OW 9619   5.356   1.377   0.081
 2422SOL    HW1 9620   5.324   1.471   0.071
 2422SOL    HW2 9621   5.280   1.314   0.069
 2423SOL     OW 9622   4.664   1.698   0.904
 2423SOL    HW1 9623   4.744   1.641   0.925
 2423SOL    HW2 9624   4.615   1.658   0.827
 2424SOL     OW 9625   4.106   0.700   0.480
 2424SOL    HW1 9626   4.151   0.610   0.477
 2424SOL    HW2 9627   4.012   0.689   0.513
 2425SOL     OW 9628   4.338   0.122   0.117
 2425SOL    HW1 9629   4.436   0.100   0.124
 2425SOL    HW2 9630   4.307   0.105   0.024
 2426SOL     OW 9631   4.505   0.264   1.749
 2426SOL    HW1 9632   4.572   0.203   1.792
 2426SOL    HW2 9633   4.432   0.283   1.814
 2427SOL     OW 9634   4.527   1.402   0.924
 2427SOL    HW1 9635   4.617   1.416   0.882
 2427SOL    HW2 9636   4.456   1.404   0.853
 2428SOL     OW 9637   4.646   0.503   0.899
 2428SOL    HW1 9638   4.621   0.494   0.803
 2428SOL    HW2 9639   4.694   0.421   0.930
 2429SOL     OW 9640   4.756   0.549   0.016
 2429SOL    HW1 9641   4.715   0.631  -0.023
 2429SOL    HW2 9642   4.820   0.575   0.089
 2430SOL     OW 9643   3.802   0.556   1.386
 2430SOL    HW1 9644   3.894   0.555   1.345
 2430SOL    HW2 9645   3.796   0.630   1.453
 2431SOL     OW 9646   4.285   0.222   1.147
 2431SOL    HW1 9647   4.323   0.138   1.184
 2431SOL    HW2 9648   4.197   0.241   1.191
 2432SOL     OW 9649   4.590   0.454   0.642
 2432SOL    HW1 9650   4.558   0.526   0.580
 2432SOL    HW2 9651   4.614   0.373   0.589
 2433SOL     OW 9652   4.212   1.385   0.174
 2433SOL    HW1 9653   4.125   1.370   0.221
 2433SOL    HW2 9654   4.195   1.411   0.079
 2434SOL     OW 9655   4.788   1.347   1.340
 2434SOL    HW1 9656   4.708   1.324   1.395
 2434SOL    HW2 9657   4.871   1.321   1.389
 2435SOL     OW 9658   4.704   1.116   1.719
 2435SOL    HW1 9659   4.605   1.122   1.729
 2435SOL    HW2 9660   4.727   1.036   1.663
 2436SOL     OW 9661   4.134   0.813   1.251
 2436SOL    HW1 9662   4.220   0.825   1.301
 2436SOL    HW2 9663   4.092   0.726   1.278
 2437SOL     OW 9664   4.998   0.386   1.262
 2437SOL    HW1 9665   5.019   0.460   1.326
 2437SOL    HW2 9666   4.909   0.403   1.219
 2438SOL     OW 9667   3.788   1.564   1.331
 2438SOL    HW1 9668   3.742   1.646   1.297
 2438SOL    HW2 9669   3.886   1.583   1.340
 2439SOL     OW 9670   4.290   0.537   0.865
 2439SOL    HW1 9671   4.302   0.603   0.791
 2439SOL    HW2 9672   4.336   0.571   0.948
 2440SOL     OW 9673   4.976   1.348   0.388
 2440SOL    HW1 9674   5.026   1.425   0.428
 2440SOL    HW2 9675   4.881   1.350   0.420
 2441SOL     OW 9676   4.078   1.510   1.329
 2441SOL    HW1 9677   4.057   1.466   1.242
 2441SOL    HW2 9678   4.175   1.536   1.332
 2442SOL     OW 9679   4.126   0.751   1.598
 2442SOL    HW1 9680   4.194   0.806   1.551
 2442SOL    HW2 9681   4.166   0.663   1.625
 2443SOL     OW 9682   4.228   0.050   1.740
 2443SOL    HW1 9683   4.186  -0.007   1.670
 2443SOL    HW2 9684   4.162   0.119   1.772
 2444SOL     OW 9685   4.297   0.870   1.029
 2444SOL    HW1 9686   4.341   0.959   1.020
 2444SOL    HW2 9687   4.234   0.870   1.106
 2445SOL     OW 9688   4.933   0.525   0.275
 2445SOL    HW1 9689   4.946   0.441   0.329
 2445SOL    HW2 9690   4.904   0.599   0.335
 2446SOL     OW 9691   4.031   0.213   1.231
 2446SOL    HW1 9692   4.008   0.250   1.321
 2446SOL    HW2 9693   4.001   0.118   1.225
 2447SOL     OW 9694   3.761   1.310   1.282
 2447SOL    HW1 9695   3.814   1.261   1.350
 2447SOL    HW2 9696   3.783   1.408   1.287
 2448SOL     OW 9697   4.456   0.634   1.064
 2448SOL    HW1 9698   4.515   0.608   0.988
 2448SOL    HW2 9699   4.428   0.730   1.053
 2449SOL     OW 9700   4.031   0.063   0.618
 2449SOL    HW1 9701   4.020   0.157   0.651
 2449SOL    HW2 9702   4.026   0.000   0.695
 2450SOL     OW 9703   5.346   0.367   0.374
 2450SOL    HW1 9704   5.348   0.291   0.438
 2450SOL    HW2 9705   5.298   0.444   0.414
 2451SOL     OW 9706   4.747   0.766   0.966
 2451SOL    HW1 9707   4.762   0.787   1.062
 2451SOL    HW2 9708   4.717   0.671   0.957
 2452SOL     OW 9709   4.704   1.573   1.700
 2452SOL    HW1 9710   4.684   1.617   1.612
 2452SOL    HW2 9711   4.743   1.482   1.684
 2453SOL     OW 9712   4.074   0.898   1.804
 2453SOL    HW1 9713   4.150   0.942   1.852
 2453SOL    HW2 9714   4.109   0.851   1.722
 2454SOL     OW 9715   5.027   0.838   0.042
 2454SOL    HW1 9716   5.061   0.745   0.057
 2454SOL    HW2 9717   5.045   0.865  -0.053
 2455SOL     OW 9718   4.063   0.509   1.006
 2455SOL    HW1 9719   4.011   0.426   0.989
 2455SOL    HW2 9720   4.140   0.514   0.942
 2456SOL     OW 9721   4.884   0.207   1.477
 2456SOL    HW1 9722   4.884   0.271   1.554
 2456SOL    HW2 9723   4.912   0.255   1.394
 2457SOL     OW 9724   4.726   0.796   1.238
 2457SOL    HW1 9725   4.767   0.764   1.324
 2457SOL    HW2 9726   4.630   0.769   1.235
 2458SOL     OW 9727   3.764   0.544   1.114
 2458SOL    HW1 9728   3.849   0.511   1.073
 2458SOL    HW2 9729   3.777   0.559   1.212
 2459SOL     OW 9730   3.913   0.520   1.722
 2459SOL    HW1 9731   3.972   0.480   1.652
 2459SOL    HW2 9732   3.855   0.591   1.681
 2460SOL     OW 9733   4.539   0.572   0.325
 2460SOL    HW1 9734   4.546   0.483   0.279
 2460SOL    HW2 9735   4.445   0.606   0.317
 2461SOL     OW 9736   4.395   0.464   1.269
 2461SOL    HW1 9737   4.361   0.375   1.239
 2461SOL    HW2 9738   4.421   0.518   1.189
 2462SOL     OW 9739   4.654   1.678   1.465
 2462SOL    HW1 9740   4.630   1.660   1.370
 2462SOL    HW2 9741   4.684   1.772   1.475
 2463SOL     OW 9742   4.197   0.500   0.191
 2463SOL    HW1 9743   4.258   0.580   0.195
 2463SOL    HW2 9744   4.102   0.531   0.198
 2464SOL     OW 9745   3.883   1.137   1.466
 2464SOL    HW1 9746   3.905   1.076   1.542
 2464SOL    HW2 9747   3.893   1.088   1.380
 2465SOL     OW 9748   5.071   1.059   1.234
 2465SOL    HW1 9749   5.095   0.996   1.160
 2465SOL    HW2 9750   4.981   1.099   1.216
 2466SOL     OW 9751   4.976   1.731   1.128
 2466SOL    HW1 9752   5.060   1.736   1.074
 2466SOL    HW2 9753   4.953   1.635   1.146
 2467SOL     OW 9754   3.807   1.258   1.022
 2467SOL    HW1 9755   3.802   1.257   1.122
 2467SOL    HW2 9756   3.724   1.217   0.984
 2468SOL     OW 9757   4.412   1.662   1.716
 2468SOL    HW1 9758   4.356   1.743   1.725
 2468SOL    HW2 9759   4.464   1.666   1.630
 2469SOL     OW 9760   4.627   0.086   0.133
 2469SOL    HW1 9761   4.678   0.087   0.047
 2469SOL    HW2 9762   4.683   0.044   0.204
 2470SOL     OW 9763   4.554   1.273   1.422
 2470SOL    HW1 9764   4.549   1.306   1.517
 2470SOL    HW2 9765   4.468   1.292   1.376
 2471SOL     OW 9766   4.396   1.616   0.154
 2471SOL    HW1 9767   4.405   1.626   0.055
 2471SOL    HW2 9768   4.356   1.527   0.175
 2472SOL     OW 9769   3.987   0.326   0.720
 2472SOL    HW1 9770   3.908   0.377   0.686
 2472SOL    HW2 9771   3.978   0.311   0.818
 2473SOL     OW 9772   4.918   1.612   0.031
 2473SOL    HW1 9773   4.924   1.519   0.068
 2473SOL    HW2 9774   4.859   1.612  -0.049
 2474SOL     OW 9775   4.546   1.002   1.372
 2474SOL    HW1 9776   4.586   1.001   1.280
 2474SOL    HW2 9777   4.556   1.094   1.412
 2475SOL     OW 9778   4.096   1.288   1.490
 2475SOL    HW1 9779   4.083   1.381   1.456
 2475SOL    HW2 9780   4.012   1.236   1.477
 2476SOL     OW 9781   4.763   1.098   0.696
 2476SOL    HW1 9782   4.693   1.051   0.750
 2476SOL    HW2 9783   4.822   1.030   0.653
 2477SOL     OW 9784   4.738   0.236   0.971
 2477SOL    HW1 9785   4.730   0.200   0.878
 2477SOL    HW2 9786   4.736   0.160   1.036
 2478SOL     OW 9787   3.979   1.348   0.290
 2478SOL    HW1 9788   3.883   1.349   0.263
 2478SOL    HW2 9789   3.991   1.401   0.374
 2479SOL     OW 9790   3.829   1.013   1.726
 2479SOL    HW1 9791   3.752   0.980   1.780
 2479SOL    HW2 9792   3.914   0.983   1.768
 2480SOL     OW 9793   4.396   0.203   1.489
 2480SOL    HW1 9794   4.486   0.187   1.449
 2480SOL    HW2 9795   4.404   0.208   1.588
 2481SOL     OW 9796   4.337   0.842   1.431
 2481SOL    HW1 9797   4.393   0.923   1.414
 2481SOL    HW2 9798   4.396   0.762   1.434
 2482SOL     OW 9799   4.440   0.565   1.708
 2482SOL    HW1 9800   4.459   0.630   1.782
 2482SOL    HW2 9801   4.500   0.485   1.717
 2483SOL     OW 9802   4.949   0.325   0.449
 2483SOL    HW1 9803   5.014   0.251   0.438
 2483SOL    HW2 9804   4.969   0.375   0.533
 2484SOL     OW 9805   4.583   1.374   0.016
 2484SOL    HW1 9806   4.537   1.389   0.104
 2484SOL    HW2 9807   4.627   1.459  -0.014
 2485SOL     OW 9808   4.583   0.956   0.861
 2485SOL    HW1 9809   4.637   0.887   0.909
 2485SOL    HW2 9810   4.551   1.025   0.927
 2486SOL     OW 9811   4.807   0.984   0.087
 2486SOL    HW1 9812   4.784   1.037   0.005
 2486SOL    HW2 9813   4.888   0.928   0.068
 2487SOL     OW 9814   3.945   1.314   1.844
 2487SOL    HW1 9815   3.880   1.241   1.823
 2487SOL    HW2 9816   3.949   1.328   1.942
 2488SOL     OW 9817   3.803   1.240   0.653
 2488SOL    HW1 9818   3.802   1.193   0.741
 2488SOL    HW2 9819   3.885   1.212   0.602
 2489SOL     OW 9820   4.396   1.391   1.624
 2489SOL    HW1 9821   4.318   1.341   1.662
 2489SOL    HW2 9822   4.393   1.486   1.655
 2490SOL     OW 9823   4.152   0.424   0.520
 2490SOL    HW1 9824   4.182   0.352   0.458
 2490SOL    HW2 9825   4.113   0.384   0.603
 2491SOL     OW 9826   4.041   0.547   1.280
 2491SOL    HW1 9827   4.079   0.488   1.352
 2491SOL    HW2 9828   4.081   0.521   1.192
 2492SOL     OW 9829   4.536   1.586   0.687
 2492SOL    HW1 9830   4.568   1.596   0.593
 2492SOL    HW2 9831   4.457   1.524   0.689
 2493SOL     OW 9832   4.725   0.034   1.154
 2493SOL    HW1 9833   4.662  -0.038   1.123
 2493SOL    HW2 9834   4.818  -0.002   1.154
 2494SOL     OW 9835   4.494   1.330   0.301
 2494SOL    HW1 9836   4.448   1.243   0.318
 2494SOL    HW2 9837   4.585   1.327   0.342
 2495SOL     OW 9838   4.342   1.567   1.284
 2495SOL    HW1 9839   4.337   1.649   1.341
 2495SOL    HW2 9840   4.431   1.564   1.239
 2496SOL     OW 9841   3.763   1.077   0.300
 2496SOL    HW1 9842   3.862   1.066   0.291
 2496SOL    HW2 9843   3.723   0.991   0.332
 2497SOL     OW 9844   4.599   1.646   0.337
 2497SOL    HW1 9845   4.522   1.611   0.283
 2497SOL    HW2 9846   4.567   1.717   0.399
 2498SOL     OW 9847   3.954   0.628   1.975
 2498SOL    HW1 9848   3.861   0.626   2.012
 2498SOL    HW2 9849   3.955   0.589   1.883
 2499SOL     OW 9850   3.949   0.275   2.858
 2499SOL    HW1 9851   3.984   0.258   2.950
 2499SOL    HW2 9852   3.861   0.230   2.846
 2500SOL     OW 9853   3.743   0.368   2.509
 2500SOL    HW1 9854   3.661   0.411   2.548
 2500SOL    HW2 9855   3.715   0.295   2.446
 2501SOL     OW 9856   4.293   1.275   3.027
 2501SOL    HW1 9857   4.200   1.268   2.990
 2501SOL    HW2 9858   4.304   1.364   3.071
 2502SOL     OW 9859   4.492   1.144   2.885
 2502SOL    HW1 9860   4.414   1.161   2.945
 2502SOL    HW2 9861   4.526   1.231   2.849
 2503SOL     OW 9862   4.409   1.012   2.527
 2503SOL    HW1 9863   4.478   0.996   2.597
 2503SOL    HW2 9864   4.336   1.069   2.565
 2504SOL     OW 9865   4.410   1.161   3.665
 2504SOL    HW1 9866   4.470   1.240   3.679
 2504SOL    HW2 9867   4.324   1.192   3.624
 2505SOL     OW 9868   4.059   1.435   2.923
 2505SOL    HW1 9869   3.981   1.404   2.870
 2505SOL    HW2 9870   4.117   1.493   2.866
 2506SOL     OW 9871   4.162   0.392   3.361
 2506SOL    HW1 9872   4.244   0.336   3.370
 2506SOL    HW2 9873   4.081   0.334   3.365
 2507SOL     OW 9874   3.955   1.713   2.345
 2507SOL    HW1 9875   3.989   1.790   2.399
 2507SOL    HW2 9876   3.999   1.713   2.255
 2508SOL     OW 9877   4.851   1.341   3.552
 2508SOL    HW1 9878   4.898   1.341   3.640
 2508SOL    HW2 9879   4.803   1.254   3.541
 2509SOL     OW 9880   3.954   1.434   2.400
 2509SOL    HW1 9881   3.928   1.530   2.400
 2509SOL    HW2 9882   3.883   1.380   2.445
 2510SOL     OW 9883   3.964   1.091   2.748
 2510SOL    HW1 9884   3.978   1.007   2.800
 2510SOL    HW2 9885   3.909   1.155   2.803
 2511SOL     OW 9886   4.344   1.786   3.301
 2511SOL    HW1 9887   4.252   1.769   3.336
 2511SOL    HW2 9888   4.372   1.878   3.327
 2512SOL     OW 9889   4.330   0.964   1.985
 2512SOL    HW1 9890   4.337   1.048   1.931
 2512SOL    HW2 9891   4.376   0.977   2.073
 2513SOL     OW 9892   3.751   1.596   1.979
 2513SOL    HW1 9893   3.732   1.500   2.000
 2513SOL    HW2 9894   3.718   1.654   2.054
 2514SOL     OW 9895   3.837   0.737   3.459
 2514SOL    HW1 9896   3.925   0.724   3.504
 2514SOL    HW2 9897   3.824   0.834   3.437
 2515SOL     OW 9898   4.337   1.365   2.588
 2515SOL    HW1 9899   4.288   1.278   2.597
 2515SOL    HW2 9900   4.314   1.408   2.501
 2516SOL     OW 9901   5.017   1.228   3.285
 2516SOL    HW1 9902   5.054   1.155   3.227
 2516SOL    HW2 9903   5.069   1.233   3.370
 2517SOL     OW 9904   4.533   0.004   2.364
 2517SOL    HW1 9905   4.573   0.095   2.355
 2517SOL    HW2 9906   4.433   0.012   2.370
 2518SOL     OW 9907   3.921   0.976   3.126
 2518SOL    HW1 9908   4.010   0.931   3.112
 2518SOL    HW2 9909   3.848   0.911   3.107
 2519SOL     OW 9910   4.041   0.251   3.663
 2519SOL    HW1 9911   4.112   0.322   3.669
 2519SOL    HW2 9912   3.953   0.290   3.691
 2520SOL     OW 9913   4.322   0.729   2.132
 2520SOL    HW1 9914   4.346   0.798   2.064
 2520SOL    HW2 9915   4.244   0.762   2.186
 2521SOL     OW 9916   4.531   0.605   3.327
 2521SOL    HW1 9917   4.484   0.602   3.416
 2521SOL    HW2 9918   4.480   0.550   3.261
 2522SOL     OW 9919   4.715   0.410   3.104
 2522SOL    HW1 9920   4.638   0.444   3.158
 2522SOL    HW2 9921   4.681   0.359   3.025
 2523SOL     OW 9922   4.765   0.701   2.291
 2523SOL    HW1 9923   4.791   0.697   2.387
 2523SOL    HW2 9924   4.680   0.650   2.277
 2524SOL     OW 9925   3.800   0.811   2.651
 2524SOL    HW1 9926   3.899   0.799   2.660
 2524SOL    HW2 9927   3.776   0.906   2.672
 2525SOL     OW 9928   3.854   1.821   3.433
 2525SOL    HW1 9929   3.844   1.806   3.532
 2525SOL    HW2 9930   3.768   1.857   3.397
 2526SOL     OW 9931   4.589   0.348   2.057
 2526SOL    HW1 9932   4.648   0.411   2.008
 2526SOL    HW2 9933   4.608   0.254   2.028
 2527SOL     OW 9934   4.274   0.196   2.747
 2527SOL    HW1 9935   4.269   0.191   2.847
 2527SOL    HW2 9936   4.276   0.292   2.718
 2528SOL     OW 9937   4.732   1.456   2.339
 2528SOL    HW1 9938   4.686   1.528   2.287
 2528SOL    HW2 9939   4.728   1.476   2.437
 2529SOL     OW 9940   4.075   1.801   2.715
 2529SOL    HW1 9941   4.125   1.715   2.721
 2529SOL    HW2 9942   4.140   1.878   2.712
 2530SOL     OW 9943   4.185   1.266   3.589
 2530SOL    HW1 9944   4.135   1.267   3.503
 2530SOL    HW2 9945   4.122   1.248   3.665
 2531SOL     OW 9946   4.835   1.776   2.099
 2531SOL    HW1 9947   4.775   1.714   2.149
 2531SOL    HW2 9948   4.866   1.732   2.014
 2532SOL     OW 9949   3.926   0.285   3.360
 2532SOL    HW1 9950   3.846   0.345   3.347
 2532SOL    HW2 9951   3.916   0.236   3.446
 2533SOL     OW 9952   4.188   1.743   2.185
 2533SOL    HW1 9953   4.221   1.782   2.271
 2533SOL    HW2 9954   4.264   1.736   2.120
 2534SOL     OW 9955   3.973   1.785   3.103
 2534SOL    HW1 9956   4.030   1.720   3.153
 2534SOL    HW2 9957   3.957   1.752   3.010
 2535SOL     OW 9958   4.664   1.698   2.766
 2535SOL    HW1 9959   4.744   1.641   2.787
 2535SOL    HW2 9960   4.615   1.658   2.689
 2536SOL     OW 9961   4.338   0.122   1.979
 2536SOL    HW1 9962   4.436   0.100   1.986
 2536SOL    HW2 9963   4.307   0.105   1.886
 2537SOL     OW 9964   4.505   0.264   3.611
 2537SOL    HW1 9965   4.572   0.203   3.654
 2537SOL    HW2 9966   4.432   0.283   3.676
 2538SOL     OW 9967   4.527   1.402   2.786
 2538SOL    HW1 9968   4.617   1.416   2.744
 2538SOL    HW2 9969   4.456   1.404   2.715
 2539SOL     OW 9970   4.646   0.503   2.761
 2539SOL    HW1 9971   4.621   0.494   2.665
 2539SOL    HW2 9972   4.694   0.421   2.792
 2540SOL     OW 9973   4.263   0.064   2.374
 2540SOL    HW1 9974   4.182   0.065   2.432
 2540SOL    HW2 9975   4.266   0.147   2.319
 2541SOL     OW 9976   4.021   0.035   2.033
 2541SOL    HW1 9977   4.070   0.119   2.012
 2541SOL    HW2 9978   4.083  -0.030   2.078
 2542SOL     OW 9979   4.659   0.236   2.342
 2542SOL    HW1 9980   4.611   0.277   2.264
 2542SOL    HW2 9981   4.758   0.234   2.323
 2543SOL     OW 9982   4.800   0.683   3.326
 2543SOL    HW1 9983   4.720   0.622   3.329
 2543SOL    HW2 9984   4.881   0.630   3.302
 2544SOL     OW 9985   4.951   1.570   2.655
 2544SOL    HW1 9986   4.972   1.644   2.590
 2544SOL    HW2 9987   5.019   1.570   2.728
 2545SOL     OW 9988   4.183   1.152   2.603
 2545SOL    HW1 9989   4.112   1.125   2.668
 2545SOL    HW2 9990   4.157   1.124   2.510
 2546SOL     OW 9991   4.995   1.797   2.453
 2546SOL    HW1 9992   5.039   1.861   2.389
 2546SOL    HW2 9993   4.945   1.849   2.523
 2547SOL     OW 9994   3.802   0.556   3.248
 2547SOL    HW1 9995   3.894   0.555   3.207
 2547SOL    HW2 9996   3.796   0.630   3.315
 2548SOL     OW 9997   4.285   0.222   3.009
 2548SOL    HW1 9998   4.323   0.138   3.046
 2548SOL    HW2 9999   4.197   0.241   3.053
 2549SOL     OW10000   5.388   1.280   2.519
 2549SOL    HW110001   5.487   1.288   2.533
 2549SOL    HW210002   5.343   1.364   2.550
 2550SOL     OW10003   4.251   0.256   2.190
 2550SOL    HW110004   4.278   0.197   2.115
 2550SOL    HW210005   4.251   0.351   2.159
 2551SOL     OW10006   4.639   0.089   3.264
 2551SOL    HW110007   4.664   0.069   3.169
 2551SOL    HW210008   4.711   0.145   3.306
 2552SOL     OW10009   4.429   1.050   2.230
 2552SOL    HW110010   4.415   1.057   2.329
 2552SOL    HW210011   4.513   0.999   2.212
 2553SOL     OW10012   4.134   0.813   3.113
 2553SOL    HW110013   4.220   0.825   3.163
 2553SOL    HW210014   4.092   0.726   3.140
 2554SOL     OW10015   4.998   0.386   3.124
 2554SOL    HW110016   5.019   0.460   3.188
 2554SOL    HW210017   4.909   0.403   3.081
 2555SOL     OW10018   3.788   1.564   3.193
 2555SOL    HW110019   3.742   1.646   3.159
 2555SOL    HW210020   3.886   1.583   3.202
 2556SOL     OW10021   4.290   0.537   2.727
 2556SOL    HW110022   4.302   0.603   2.653
 2556SOL    HW210023   4.336   0.571   2.810
 2557SOL     OW10024   4.976   1.348   2.250
 2557SOL    HW110025   5.026   1.425   2.290
 2557SOL    HW210026   4.881   1.350   2.282
 2558SOL     OW10027   4.078   1.510   3.191
 2558SOL    HW110028   4.057   1.466   3.104
 2558SOL    HW210029   4.175   1.536   3.194
 2559SOL     OW10030   4.126   0.751   3.460
 2559SOL    HW110031   4.194   0.806   3.413
 2559SOL    HW210032   4.166   0.663   3.487
 2560SOL     OW10033   4.737   0.105   3.632
 2560SOL    HW110034   4.743   0.190   3.580
 2560SOL    HW210035   4.769   0.029   3.575
 2561SOL     OW10036   4.228   0.050   3.602
 2561SOL    HW110037   4.186  -0.007   3.532
 2561SOL    HW210038   4.162   0.119   3.634
 2562SOL     OW10039   4.297   0.870   2.891
 2562SOL    HW110040   4.341   0.959   2.882
 2562SOL    HW210041   4.234   0.870   2.968
 2563SOL     OW10042   4.031   0.213   3.093
 2563SOL    HW110043   4.008   0.250   3.183
 2563SOL    HW210044   4.001   0.118   3.087
 2564SOL     OW10045   3.761   1.310   3.144
 2564SOL    HW110046   3.814   1.261   3.212
 2564SOL    HW210047   3.783   1.408   3.149
 2565SOL     OW10048   4.456   0.634   2.926
 2565SOL    HW110049   4.515   0.608   2.850
 2565SOL    HW210050   4.428   0.730   2.915
 2566SOL     OW10051   4.031   0.063   2.480
 2566SOL    HW110052   4.020   0.157   2.513
 2566SOL    HW210053   4.026   0.000   2.557
 2567SOL     OW10054   5.346   0.367   2.236
 2567SOL    HW110055   5.348   0.291   2.300
 2567SOL    HW210056   5.298   0.444   2.276
 2568SOL     OW10057   4.074   0.898   3.666
 2568SOL    HW110058   4.150   0.942   3.714
 2568SOL    HW210059   4.109   0.851   3.584
 2569SOL     OW10060   4.792   1.333   2.711
 2569SOL    HW110061   4.799   1.249   2.656
 2569SOL    HW210062   4.854   1.402   2.675
 2570SOL     OW10063   4.043   0.810   2.811
 2570SOL    HW110064   4.136   0.846   2.816
 2570SOL    HW210065   4.037   0.725   2.863
 2571SOL     OW10066   4.063   0.509   2.868
 2571SOL    HW110067   4.011   0.426   2.851
 2571SOL    HW210068   4.140   0.514   2.804
 2572SOL     OW10069   4.862   0.380   3.540
 2572SOL    HW110070   4.817   0.443   3.604
 2572SOL    HW210071   4.955   0.411   3.523
 2573SOL     OW10072   4.884   0.207   3.339
 2573SOL    HW110073   4.884   0.271   3.416
 2573SOL    HW210074   4.912   0.255   3.256
 2574SOL     OW10075   3.732   1.326   2.062
 2574SOL    HW110076   3.639   1.347   2.031
 2574SOL    HW210077   3.742   1.227   2.075
 2575SOL     OW10078   3.812   1.801   2.789
 2575SOL    HW110079   3.770   1.715   2.762
 2575SOL    HW210080   3.906   1.804   2.755
 2576SOL     OW10081   4.228   1.568   2.772
 2576SOL    HW110082   4.294   1.642   2.781
 2576SOL    HW210083   4.272   1.489   2.730
 2577SOL     OW10084   4.726   0.796   3.100
 2577SOL    HW110085   4.767   0.764   3.186
 2577SOL    HW210086   4.630   0.769   3.097
 2578SOL     OW10087   3.764   0.544   2.976
 2578SOL    HW110088   3.849   0.511   2.935
 2578SOL    HW210089   3.777   0.559   3.074
 2579SOL     OW10090   3.913   0.520   3.584
 2579SOL    HW110091   3.972   0.480   3.514
 2579SOL    HW210092   3.855   0.591   3.543
 2580SOL     OW10093   4.539   0.572   2.187
 2580SOL    HW110094   4.546   0.483   2.141
 2580SOL    HW210095   4.445   0.606   2.179
 2581SOL     OW10096   4.395   0.464   3.131
 2581SOL    HW110097   4.361   0.375   3.101
 2581SOL    HW210098   4.421   0.518   3.051
 2582SOL     OW10099   4.197   0.500   2.053
 2582SOL    HW110100   4.258   0.580   2.057
 2582SOL    HW210101   4.102   0.531   2.060
 2583SOL     OW10102   3.883   1.137   3.328
 2583SOL    HW110103   3.905   1.076   3.404
 2583SOL    HW210104   3.893   1.088   3.242
 2584SOL     OW10105   5.071   1.059   3.096
 2584SOL    HW110106   5.095   0.996   3.022
 2584SOL    HW210107   4.981   1.099   3.078
 2585SOL     OW10108   4.976   1.731   2.990
 2585SOL    HW110109   5.060   1.736   2.936
 2585SOL    HW210110   4.953   1.635   3.008
 2586SOL     OW10111   3.807   1.258   2.884
 2586SOL    HW110112   3.802   1.257   2.984
 2586SOL    HW210113   3.724   1.217   2.846
 2587SOL     OW10114   5.112   1.573   2.339
 2587SOL    HW110115   5.179   1.585   2.265
 2587SOL    HW210116   5.072   1.662   2.362
 2588SOL     OW10117   3.854   1.794   3.713
 2588SOL    HW110118   3.813   1.720   3.766
 2588SOL    HW210119   3.918   1.845   3.771
 2589SOL     OW10120   5.004   0.927   2.534
 2589SOL    HW110121   5.064   0.846   2.536
 2589SOL    HW210122   5.044   0.996   2.474
 2590SOL     OW10123   4.396   1.616   2.016
 2590SOL    HW110124   4.405   1.626   1.917
 2590SOL    HW210125   4.356   1.527   2.037
 2591SOL     OW10126   3.987   0.326   2.582
 2591SOL    HW110127   3.908   0.377   2.548
 2591SOL    HW210128   3.978   0.311   2.680
 2592SOL     OW10129   4.918   1.612   1.893
 2592SOL    HW110130   4.924   1.519   1.930
 2592SOL    HW210131   4.859   1.612   1.813
 2593SOL     OW10132   4.546   1.002   3.234
 2593SOL    HW110133   4.586   1.001   3.142
 2593SOL    HW210134   4.556   1.094   3.274
 2594SOL     OW10135   4.640   0.910   2.153
 2594SOL    HW110136   4.703   0.948   2.085
 2594SOL    HW210137   4.680   0.827   2.192
 2595SOL     OW10138   4.096   1.288   3.352
 2595SOL    HW110139   4.083   1.381   3.318
 2595SOL    HW210140   4.012   1.236   3.339
 2596SOL     OW10141   4.763   1.098   2.558
 2596SOL    HW110142   4.693   1.051   2.612
 2596SOL    HW210143   4.822   1.030   2.515
 2597SOL     OW10144   4.314   1.487   2.353
 2597SOL    HW110145   4.356   1.429   2.283
 2597SOL    HW210146   4.270   1.566   2.309
 2598SOL     OW10147   3.829   1.013   3.588
 2598SOL    HW110148   3.752   0.980   3.642
 2598SOL    HW210149   3.914   0.983   3.630
 2599SOL     OW10150   4.396   0.203   3.351
 2599SOL    HW110151   4.486   0.187   3.311
 2599SOL    HW210152   4.404   0.208   3.450
 2600SOL     OW10153   3.799   0.345   1.895
 2600SOL    HW110154   3.707   0.317   1.866
 2600SOL    HW210155   3.830   0.422   1.839
 2601SOL     OW10156   5.164   0.856   3.260
 2601SOL    HW110157   5.107   0.908   3.197
 2601SOL    HW210158   5.260   0.868   3.236
 2602SOL     OW10159   3.796   0.166   2.180
 2602SOL    HW110160   3.779   0.249   2.126
 2602SOL    HW210161   3.886   0.129   2.158
 2603SOL     OW10162   4.337   0.842   3.293
 2603SOL    HW110163   4.393   0.923   3.276
 2603SOL    HW210164   4.396   0.762   3.296
 2604SOL     OW10165   4.440   0.565   3.570
 2604SOL    HW110166   4.459   0.630   3.644
 2604SOL    HW210167   4.500   0.485   3.579
 2605SOL     OW10168   4.114   1.741   3.422
 2605SOL    HW110169   4.023   1.782   3.420
 2605SOL    HW210170   4.107   1.647   3.454
 2606SOL     OW10171   4.949   0.325   2.311
 2606SOL    HW110172   5.014   0.251   2.300
 2606SOL    HW210173   4.969   0.375   2.395
 2607SOL     OW10174   4.318   0.745   2.514
 2607SOL    HW110175   4.368   0.830   2.495
 2607SOL    HW210176   4.230   0.747   2.466
 2608SOL     OW10177   4.583   1.374   1.878
 2608SOL    HW110178   4.537   1.389   1.966
 2608SOL    HW210179   4.627   1.459   1.848
 2609SOL     OW10180   4.385   1.790   2.815
 2609SOL    HW110181   4.339   1.878   2.802
 2609SOL    HW210182   4.484   1.802   2.808
 2610SOL     OW10183   4.583   0.956   2.723
 2610SOL    HW110184   4.637   0.887   2.771
 2610SOL    HW210185   4.551   1.025   2.789
 2611SOL     OW10186   4.396   1.391   3.486
 2611SOL    HW110187   4.318   1.341   3.524
 2611SOL    HW210188   4.393   1.486   3.517
 2612SOL     OW10189   4.152   0.424   2.382
 2612SOL    HW110190   4.182   0.352   2.320
 2612SOL    HW210191   4.113   0.384   2.465
 2613SOL     OW10192   4.041   0.547   3.142
 2613SOL    HW110193   4.079   0.488   3.214
 2613SOL    HW210194   4.081   0.521   3.054
 2614SOL     OW10195   4.536   1.586   2.549
 2614SOL    HW110196   4.568   1.596   2.455
 2614SOL    HW210197   4.457   1.524   2.551
 2615SOL     OW10198   4.725   0.034   3.016
 2615SOL    HW110199   4.662  -0.038   2.985
 2615SOL    HW210200   4.818  -0.002   3.016
 2616SOL     OW10201   4.494   1.330   2.163
 2616SOL    HW110202   4.448   1.243   2.180
 2616SOL    HW210203   4.585   1.327   2.204
 2617SOL     OW10204   4.342   1.567   3.146
 2617SOL    HW110205   4.337   1.649   3.203
 2617SOL    HW210206   4.431   1.564   3.101
 2618SOL     OW10207   4.599   1.646   2.199
 2618SOL    HW110208   4.522   1.611   2.145
 2618SOL    HW210209   4.567   1.717   2.261
 2619SOL     OW10210   3.954   0.628   3.837
 2619SOL    HW110211   3.861   0.626   3.874
 2619SOL    HW210212   3.955   0.589   3.745
 2620SOL     OW10213   3.949   0.275   4.720
 2620SOL    HW110214   3.984   0.258   4.812
 2620SOL    HW210215   3.861   0.230   4.708
 2621SOL     OW10216   3.743   0.368   4.371
 2621SOL    HW110217   3.661   0.411   4.410
 2621SOL    HW210218   3.715   0.295   4.308
 2622SOL     OW10219   4.293   1.275   4.889
 2622SOL    HW110220   4.200   1.268   4.852
 2622SOL    HW210221   4.304   1.364   4.933
 2623SOL     OW10222   4.859   0.703   4.441
 2623SOL    HW110223   4.916   0.781   4.416
 2623SOL    HW210224   4.799   0.729   4.517
 2624SOL     OW10225   4.492   1.144   4.747
 2624SOL    HW110226   4.414   1.161   4.807
 2624SOL    HW210227   4.526   1.231   4.711
 2625SOL     OW10228   4.059   1.435   4.785
 2625SOL    HW110229   3.981   1.404   4.732
 2625SOL    HW210230   4.117   1.493   4.728
 2626SOL     OW10231   3.964   1.091   4.610
 2626SOL    HW110232   3.978   1.007   4.662
 2626SOL    HW210233   3.909   1.155   4.665
 2627SOL     OW10234   4.344   1.786   5.163
 2627SOL    HW110235   4.252   1.769   5.198
 2627SOL    HW210236   4.372   1.878   5.189
 2628SOL     OW10237   3.846   0.643   4.287
 2628SOL    HW110238   3.801   0.555   4.304
 2628SOL    HW210239   3.845   0.697   4.371
 2629SOL     OW10240   3.751   1.596   3.841
 2629SOL    HW110241   3.732   1.500   3.862
 2629SOL    HW210242   3.718   1.654   3.916
 2630SOL     OW10243   4.533   0.004   4.226
 2630SOL    HW110244   4.573   0.095   4.217
 2630SOL    HW210245   4.433   0.012   4.232
 2631SOL     OW10246   3.921   0.976   4.988
 2631SOL    HW110247   4.010   0.931   4.974
 2631SOL    HW210248   3.848   0.911   4.969
 2632SOL     OW10249   5.005   0.345   4.668
 2632SOL    HW110250   4.919   0.295   4.655
 2632SOL    HW210251   5.067   0.291   4.724
 2633SOL     OW10252   4.715   0.410   4.966
 2633SOL    HW110253   4.638   0.444   5.020
 2633SOL    HW210254   4.681   0.359   4.887
 2634SOL     OW10255   3.800   0.811   4.513
 2634SOL    HW110256   3.899   0.799   4.522
 2634SOL    HW210257   3.776   0.906   4.534
 2635SOL     OW10258   4.274   0.196   4.609
 2635SOL    HW110259   4.269   0.191   4.709
 2635SOL    HW210260   4.276   0.292   4.580
 2636SOL     OW10261   4.075   1.801   4.577
 2636SOL    HW110262   4.125   1.715   4.583
 2636SOL    HW210263   4.140   1.878   4.574
 2637SOL     OW10264   4.835   1.776   3.961
 2637SOL    HW110265   4.775   1.714   4.011
 2637SOL    HW210266   4.866   1.732   3.876
 2638SOL     OW10267   4.188   1.743   4.047
 2638SOL    HW110268   4.221   1.782   4.133
 2638SOL    HW210269   4.264   1.736   3.982
 2639SOL     OW10270   3.973   1.785   4.965
 2639SOL    HW110271   4.030   1.720   5.015
 2639SOL    HW210272   3.957   1.752   4.872
 2640SOL     OW10273   4.664   1.698   4.628
 2640SOL    HW110274   4.744   1.641   4.649
 2640SOL    HW210275   4.615   1.658   4.551
 2641SOL     OW10276   4.106   0.700   4.204
 2641SOL    HW110277   4.151   0.610   4.201
 2641SOL    HW210278   4.012   0.689   4.237
 2642SOL     OW10279   4.338   0.122   3.841
 2642SOL    HW110280   4.436   0.100   3.848
 2642SOL    HW210281   4.307   0.105   3.748
 2643SOL     OW10282   4.527   1.402   4.648
 2643SOL    HW110283   4.617   1.416   4.606
 2643SOL    HW210284   4.456   1.404   4.577
 2644SOL     OW10285   4.263   0.064   4.236
 2644SOL    HW110286   4.182   0.065   4.294
 2644SOL    HW210287   4.266   0.147   4.181
 2645SOL     OW10288   4.021   0.035   3.895
 2645SOL    HW110289   4.070   0.119   3.874
 2645SOL    HW210290   4.083  -0.030   3.940
 2646SOL     OW10291   4.183   1.152   4.465
 2646SOL    HW110292   4.112   1.125   4.530
 2646SOL    HW210293   4.157   1.124   4.372
 2647SOL     OW10294   4.995   1.797   4.315
 2647SOL    HW110295   5.039   1.861   4.251
 2647SOL    HW210296   4.945   1.849   4.385
 2648SOL     OW10297   4.756   0.549   3.740
 2648SOL    HW110298   4.715   0.631   3.701
 2648SOL    HW210299   4.820   0.575   3.813
 2649SOL     OW10300   4.285   0.222   4.871
 2649SOL    HW110301   4.323   0.138   4.908
 2649SOL    HW210302   4.197   0.241   4.915
 2650SOL     OW10303   5.388   1.280   4.381
 2650SOL    HW110304   5.487   1.288   4.395
 2650SOL    HW210305   5.343   1.364   4.412
 2651SOL     OW10306   4.835   1.195   4.824
 2651SOL    HW110307   4.795   1.239   4.905
 2651SOL    HW210308   4.794   1.232   4.741
 2652SOL     OW10309   4.134   0.813   4.975
 2652SOL    HW110310   4.220   0.825   5.025
 2652SOL    HW210311   4.092   0.726   5.002
 2653SOL     OW10312   4.091   1.100   4.225
 2653SOL    HW110313   4.084   1.183   4.169
 2653SOL    HW210314   4.095   1.020   4.165
 2654SOL     OW10315   4.290   0.537   4.589
 2654SOL    HW110316   4.302   0.603   4.515
 2654SOL    HW210317   4.336   0.571   4.672
 2655SOL     OW10318   4.078   1.510   5.053
 2655SOL    HW110319   4.057   1.466   4.966
 2655SOL    HW210320   4.175   1.536   5.056
 2656SOL     OW10321   4.297   0.870   4.753
 2656SOL    HW110322   4.341   0.959   4.744
 2656SOL    HW210323   4.234   0.870   4.830
 2657SOL     OW10324   5.084   0.862   4.769
 2657SOL    HW110325   5.009   0.862   4.703
 2657SOL    HW210326   5.121   0.770   4.778
 2658SOL     OW10327   4.933   0.525   3.999
 2658SOL    HW110328   4.946   0.441   4.053
 2658SOL    HW210329   4.904   0.599   4.059
 2659SOL     OW10330   4.031   0.213   4.955
 2659SOL    HW110331   4.008   0.250   5.045
 2659SOL    HW210332   4.001   0.118   4.949
 2660SOL     OW10333   3.761   1.310   5.006
 2660SOL    HW110334   3.814   1.261   5.074
 2660SOL    HW210335   3.783   1.408   5.011
 2661SOL     OW10336   4.456   0.634   4.788
 2661SOL    HW110337   4.515   0.608   4.712
 2661SOL    HW210338   4.428   0.730   4.777
 2662SOL     OW10339   4.031   0.063   4.342
 2662SOL    HW110340   4.020   0.157   4.375
 2662SOL    HW210341   4.026   0.000   4.419
 2663SOL     OW10342   5.346   0.367   4.098
 2663SOL    HW110343   5.348   0.291   4.162
 2663SOL    HW210344   5.298   0.444   4.138
 2664SOL     OW10345   4.747   0.766   4.690
 2664SOL    HW110346   4.762   0.787   4.786
 2664SOL    HW210347   4.717   0.671   4.681
 2665SOL     OW10348   5.027   0.838   3.766
 2665SOL    HW110349   5.061   0.745   3.781
 2665SOL    HW210350   5.045   0.865   3.671
 2666SOL     OW10351   4.792   1.333   4.573
 2666SOL    HW110352   4.799   1.249   4.518
 2666SOL    HW210353   4.854   1.402   4.537
 2667SOL     OW10354   4.043   0.810   4.673
 2667SOL    HW110355   4.136   0.846   4.678
 2667SOL    HW210356   4.037   0.725   4.725
 2668SOL     OW10357   4.063   0.509   4.730
 2668SOL    HW110358   4.011   0.426   4.713
 2668SOL    HW210359   4.140   0.514   4.666
 2669SOL     OW10360   4.884   0.207   5.201
 2669SOL    HW110361   4.884   0.271   5.278
 2669SOL    HW210362   4.912   0.255   5.118
 2670SOL     OW10363   3.732   1.326   3.924
 2670SOL    HW110364   3.639   1.347   3.893
 2670SOL    HW210365   3.742   1.227   3.937
 2671SOL     OW10366   3.812   1.801   4.651
 2671SOL    HW110367   3.770   1.715   4.624
 2671SOL    HW210368   3.906   1.804   4.617
 2672SOL     OW10369   4.228   1.568   4.634
 2672SOL    HW110370   4.294   1.642   4.643
 2672SOL    HW210371   4.272   1.489   4.592
 2673SOL     OW10372   4.726   0.796   4.962
 2673SOL    HW110373   4.767   0.764   5.048
 2673SOL    HW210374   4.630   0.769   4.959
 2674SOL     OW10375   3.764   0.544   4.838
 2674SOL    HW110376   3.849   0.511   4.797
 2674SOL    HW210377   3.777   0.559   4.936
 2675SOL     OW10378   4.395   0.464   4.993
 2675SOL    HW110379   4.361   0.375   4.963
 2675SOL    HW210380   4.421   0.518   4.913
 2676SOL     OW10381   4.654   1.678   5.189
 2676SOL    HW110382   4.630   1.660   5.094
 2676SOL    HW210383   4.684   1.772   5.199
 2677SOL     OW10384   5.071   1.059   4.958
 2677SOL    HW110385   5.095   0.996   4.884
 2677SOL    HW210386   4.981   1.099   4.940
 2678SOL     OW10387   3.807   1.258   4.746
 2678SOL    HW110388   3.802   1.257   4.846
 2678SOL    HW210389   3.724   1.217   4.708
 2679SOL     OW10390   5.112   1.573   4.201
 2679SOL    HW110391   5.179   1.585   4.127
 2679SOL    HW210392   5.072   1.662   4.224
 2680SOL     OW10393   5.004   0.927   4.396
 2680SOL    HW110394   5.064   0.846   4.398
 2680SOL    HW210395   5.044   0.996   4.336
 2681SOL     OW10396   3.987   0.326   4.444
 2681SOL    HW110397   3.908   0.377   4.410
 2681SOL    HW210398   3.978   0.311   4.542
 2682SOL     OW10399   4.918   1.612   3.755
 2682SOL    HW110400   4.924   1.519   3.792
 2682SOL    HW210401   4.859   1.612   3.675
 2683SOL     OW10402   4.546   1.002   5.096
 2683SOL    HW110403   4.586   1.001   5.004
 2683SOL    HW210404   4.556   1.094   5.136
 2684SOL     OW10405   4.763   1.098   4.420
 2684SOL    HW110406   4.693   1.051   4.474
 2684SOL    HW210407   4.822   1.030   4.377
 2685SOL     OW10408   3.979   1.348   4.014
 2685SOL    HW110409   3.883   1.349   3.987
 2685SOL    HW210410   3.991   1.401   4.098
 2686SOL     OW10411   3.799   0.345   3.757
 2686SOL    HW110412   3.707   0.317   3.728
 2686SOL    HW210413   3.830   0.422   3.701
 2687SOL     OW10414   3.796   0.166   4.042
 2687SOL    HW110415   3.779   0.249   3.988
 2687SOL    HW210416   3.886   0.129   4.020
 2688SOL     OW10417   4.318   0.745   4.376
 2688SOL    HW110418   4.368   0.830   4.357
 2688SOL    HW210419   4.230   0.747   4.328
 2689SOL     OW10420   4.583   0.956   4.585
 2689SOL    HW110421   4.637   0.887   4.633
 2689SOL    HW210422   4.551   1.025   4.651
 2690SOL     OW10423   3.803   1.240   4.377
 2690SOL    HW110424   3.802   1.193   4.465
 2690SOL    HW210425   3.885   1.212   4.326
 2691SOL     OW10426   4.152   0.424   4.244
 2691SOL    HW110427   4.182   0.352   4.182
 2691SOL    HW210428   4.113   0.384   4.327
 2692SOL     OW10429   4.725   0.034   4.878
 2692SOL    HW110430   4.662  -0.038   4.847
 2692SOL    HW210431   4.818  -0.002   4.878
 2693SOL     OW10432   3.763   1.077   4.024
 2693SOL    HW110433   3.862   1.066   4.015
 2693SOL    HW210434   3.723   0.991   4.056
 2694SOL     OW10435   4.599   1.646   4.061
 2694SOL    HW110436   4.522   1.611   4.007
 2694SOL    HW210437   4.567   1.717   4.123
 2695SOL     OW10438   3.954   2.490   0.113
 2695SOL    HW110439   3.861   2.488   0.150
 2695SOL    HW210440   3.955   2.451   0.021
 2696SOL     OW10441   3.949   2.137   0.996
 2696SOL    HW110442   3.984   2.120   1.088
 2696SOL    HW210443   3.861   2.092   0.984
 2697SOL     OW10444   3.743   2.230   0.647
 2697SOL    HW110445   3.661   2.273   0.686
 2697SOL    HW210446   3.715   2.157   0.584
 2698SOL     OW10447   4.293   3.137   1.165
 2698SOL    HW110448   4.200   3.130   1.128
 2698SOL    HW210449   4.304   3.226   1.209
 2699SOL     OW10450   4.492   3.006   1.023
 2699SOL    HW110451   4.414   3.023   1.083
 2699SOL    HW210452   4.526   3.093   0.987
 2700SOL     OW10453   4.574   2.660   1.823
 2700SOL    HW110454   4.570   2.736   1.888
 2700SOL    HW210455   4.596   2.696   1.732
 2701SOL     OW10456   4.409   2.874   0.665
 2701SOL    HW110457   4.478   2.858   0.735
 2701SOL    HW210458   4.336   2.931   0.703
 2702SOL     OW10459   4.059   3.297   1.061
 2702SOL    HW110460   3.981   3.266   1.008
 2702SOL    HW210461   4.117   3.355   1.004
 2703SOL     OW10462   4.162   2.254   1.499
 2703SOL    HW110463   4.244   2.198   1.508
 2703SOL    HW210464   4.081   2.196   1.503
 2704SOL     OW10465   3.955   3.575   0.483
 2704SOL    HW110466   3.989   3.652   0.537
 2704SOL    HW210467   3.999   3.575   0.393
 2705SOL     OW10468   4.851   3.203   1.690
 2705SOL    HW110469   4.898   3.203   1.778
 2705SOL    HW210470   4.803   3.116   1.679
 2706SOL     OW10471   3.954   3.296   0.538
 2706SOL    HW110472   3.928   3.392   0.538
 2706SOL    HW210473   3.883   3.242   0.583
 2707SOL     OW10474   3.964   2.953   0.886
 2707SOL    HW110475   3.978   2.869   0.938
 2707SOL    HW210476   3.909   3.017   0.941
 2708SOL     OW10477   4.344   3.648   1.439
 2708SOL    HW110478   4.252   3.631   1.474
 2708SOL    HW210479   4.372   3.740   1.465
 2709SOL     OW10480   4.330   2.826   0.123
 2709SOL    HW110481   4.337   2.910   0.069
 2709SOL    HW210482   4.376   2.839   0.211
 2710SOL     OW10483   3.846   2.505   0.563
 2710SOL    HW110484   3.801   2.417   0.580
 2710SOL    HW210485   3.845   2.559   0.647
 2711SOL     OW10486   3.751   3.458   0.117
 2711SOL    HW110487   3.732   3.362   0.138
 2711SOL    HW210488   3.718   3.516   0.192
 2712SOL     OW10489   3.837   2.599   1.597
 2712SOL    HW110490   3.925   2.586   1.642
 2712SOL    HW210491   3.824   2.696   1.575
 2713SOL     OW10492   4.337   3.227   0.726
 2713SOL    HW110493   4.288   3.140   0.735
 2713SOL    HW210494   4.314   3.270   0.639
 2714SOL     OW10495   5.017   3.090   1.423
 2714SOL    HW110496   5.054   3.017   1.365
 2714SOL    HW210497   5.069   3.095   1.508
 2715SOL     OW10498   3.921   2.838   1.264
 2715SOL    HW110499   4.010   2.793   1.250
 2715SOL    HW210500   3.848   2.773   1.245
 2716SOL     OW10501   4.911   3.654   1.616
 2716SOL    HW110502   4.935   3.714   1.540
 2716SOL    HW210503   4.918   3.559   1.586
 2717SOL     OW10504   4.322   2.591   0.270
 2717SOL    HW110505   4.346   2.660   0.202
 2717SOL    HW210506   4.244   2.624   0.324
 2718SOL     OW10507   5.005   2.207   0.944
 2718SOL    HW110508   4.919   2.157   0.931
 2718SOL    HW210509   5.067   2.153   1.000
 2719SOL     OW10510   4.531   2.467   1.465
 2719SOL    HW110511   4.484   2.464   1.554
 2719SOL    HW210512   4.480   2.412   1.399
 2720SOL     OW10513   4.697   2.752   1.572
 2720SOL    HW110514   4.743   2.668   1.543
 2720SOL    HW210515   4.641   2.786   1.497
 2721SOL     OW10516   3.800   2.673   0.789
 2721SOL    HW110517   3.899   2.661   0.798
 2721SOL    HW210518   3.776   2.768   0.810
 2722SOL     OW10519   3.854   3.683   1.571
 2722SOL    HW110520   3.844   3.668   1.670
 2722SOL    HW210521   3.768   3.719   1.535
 2723SOL     OW10522   4.589   2.210   0.195
 2723SOL    HW110523   4.648   2.273   0.146
 2723SOL    HW210524   4.608   2.116   0.166
 2724SOL     OW10525   4.075   3.663   0.853
 2724SOL    HW110526   4.125   3.577   0.859
 2724SOL    HW210527   4.140   3.740   0.850
 2725SOL     OW10528   4.951   3.412   1.506
 2725SOL    HW110529   4.957   3.335   1.570
 2725SOL    HW210530   4.899   3.386   1.426
 2726SOL     OW10531   4.045   2.805   0.242
 2726SOL    HW110532   4.127   2.844   0.200
 2726SOL    HW210533   4.018   2.723   0.193
 2727SOL     OW10534   5.356   3.239   0.081
 2727SOL    HW110535   5.324   3.333   0.071
 2727SOL    HW210536   5.280   3.176   0.069
 2728SOL     OW10537   4.188   3.605   0.323
 2728SOL    HW110538   4.221   3.644   0.409
 2728SOL    HW210539   4.264   3.598   0.258
 2729SOL     OW10540   3.973   3.647   1.241
 2729SOL    HW110541   4.030   3.582   1.291
 2729SOL    HW210542   3.957   3.614   1.148
 2730SOL     OW10543   4.106   2.562   0.480
 2730SOL    HW110544   4.151   2.472   0.477
 2730SOL    HW210545   4.012   2.551   0.513
 2731SOL     OW10546   4.612   3.376   1.195
 2731SOL    HW110547   4.589   3.351   1.101
 2731SOL    HW210548   4.673   3.307   1.234
 2732SOL     OW10549   4.527   3.264   0.924
 2732SOL    HW110550   4.617   3.278   0.882
 2732SOL    HW210551   4.456   3.266   0.853
 2733SOL     OW10552   4.646   2.365   0.899
 2733SOL    HW110553   4.621   2.356   0.803
 2733SOL    HW210554   4.694   2.283   0.930
 2734SOL     OW10555   4.021   1.897   0.171
 2734SOL    HW110556   4.070   1.981   0.150
 2734SOL    HW210557   4.083   1.832   0.216
 2735SOL     OW10558   4.659   2.098   0.480
 2735SOL    HW110559   4.611   2.139   0.402
 2735SOL    HW210560   4.758   2.096   0.461
 2736SOL     OW10561   4.800   2.545   1.464
 2736SOL    HW110562   4.720   2.484   1.467
 2736SOL    HW210563   4.881   2.492   1.440
 2737SOL     OW10564   4.951   3.432   0.793
 2737SOL    HW110565   4.972   3.506   0.728
 2737SOL    HW210566   5.019   3.432   0.866
 2738SOL     OW10567   4.183   3.014   0.741
 2738SOL    HW110568   4.112   2.987   0.806
 2738SOL    HW210569   4.157   2.986   0.648
 2739SOL     OW10570   4.995   3.659   0.591
 2739SOL    HW110571   5.039   3.723   0.527
 2739SOL    HW210572   4.945   3.711   0.661
 2740SOL     OW10573   4.756   2.411   0.016
 2740SOL    HW110574   4.715   2.493  -0.023
 2740SOL    HW210575   4.820   2.437   0.089
 2741SOL     OW10576   3.802   2.418   1.386
 2741SOL    HW110577   3.894   2.417   1.345
 2741SOL    HW210578   3.796   2.492   1.453
 2742SOL     OW10579   4.590   2.316   0.642
 2742SOL    HW110580   4.558   2.388   0.580
 2742SOL    HW210581   4.614   2.235   0.589
 2743SOL     OW10582   4.212   3.247   0.174
 2743SOL    HW110583   4.125   3.232   0.221
 2743SOL    HW210584   4.195   3.273   0.079
 2744SOL     OW10585   4.251   2.118   0.328
 2744SOL    HW110586   4.278   2.059   0.253
 2744SOL    HW210587   4.251   2.213   0.297
 2745SOL     OW10588   4.788   3.209   1.340
 2745SOL    HW110589   4.708   3.186   1.395
 2745SOL    HW210590   4.871   3.183   1.389
 2746SOL     OW10591   4.835   3.057   1.100
 2746SOL    HW110592   4.795   3.101   1.181
 2746SOL    HW210593   4.794   3.094   1.017
 2747SOL     OW10594   4.704   2.978   1.719
 2747SOL    HW110595   4.605   2.984   1.729
 2747SOL    HW210596   4.727   2.898   1.663
 2748SOL     OW10597   4.429   2.912   0.368
 2748SOL    HW110598   4.415   2.919   0.467
 2748SOL    HW210599   4.513   2.861   0.350
 2749SOL     OW10600   4.134   2.675   1.251
 2749SOL    HW110601   4.220   2.687   1.301
 2749SOL    HW210602   4.092   2.588   1.278
 2750SOL     OW10603   4.998   2.248   1.262
 2750SOL    HW110604   5.019   2.322   1.326
 2750SOL    HW210605   4.909   2.265   1.219
 2751SOL     OW10606   3.788   3.426   1.331
 2751SOL    HW110607   3.742   3.508   1.297
 2751SOL    HW210608   3.886   3.445   1.340
 2752SOL     OW10609   4.091   2.962   0.501
 2752SOL    HW110610   4.084   3.045   0.445
 2752SOL    HW210611   4.095   2.882   0.441
 2753SOL     OW10612   4.290   2.399   0.865
 2753SOL    HW110613   4.302   2.465   0.791
 2753SOL    HW210614   4.336   2.433   0.948
 2754SOL     OW10615   4.976   3.210   0.388
 2754SOL    HW110616   5.026   3.287   0.428
 2754SOL    HW210617   4.881   3.212   0.420
 2755SOL     OW10618   4.078   3.372   1.329
 2755SOL    HW110619   4.057   3.328   1.242
 2755SOL    HW210620   4.175   3.398   1.332
 2756SOL     OW10621   4.126   2.613   1.598
 2756SOL    HW110622   4.194   2.668   1.551
 2756SOL    HW210623   4.166   2.525   1.625
 2757SOL     OW10624   4.297   2.732   1.029
 2757SOL    HW110625   4.341   2.821   1.020
 2757SOL    HW210626   4.234   2.732   1.106
 2758SOL     OW10627   3.761   3.172   1.282
 2758SOL    HW110628   3.814   3.123   1.350
 2758SOL    HW210629   3.783   3.270   1.287
 2759SOL     OW10630   4.456   2.496   1.064
 2759SOL    HW110631   4.515   2.470   0.988
 2759SOL    HW210632   4.428   2.592   1.053
 2760SOL     OW10633   5.346   2.229   0.374
 2760SOL    HW110634   5.348   2.153   0.438
 2760SOL    HW210635   5.298   2.306   0.414
 2761SOL     OW10636   4.747   2.628   0.966
 2761SOL    HW110637   4.762   2.649   1.062
 2761SOL    HW210638   4.717   2.533   0.957
 2762SOL     OW10639   4.704   3.435   1.700
 2762SOL    HW110640   4.684   3.479   1.612
 2762SOL    HW210641   4.743   3.344   1.684
 2763SOL     OW10642   4.074   2.760   1.804
 2763SOL    HW110643   4.150   2.804   1.852
 2763SOL    HW210644   4.109   2.713   1.722
 2764SOL     OW10645   5.027   2.700   0.042
 2764SOL    HW110646   5.061   2.607   0.057
 2764SOL    HW210647   5.045   2.727  -0.053
 2765SOL     OW10648   4.792   3.195   0.849
 2765SOL    HW110649   4.799   3.111   0.794
 2765SOL    HW210650   4.854   3.264   0.813
 2766SOL     OW10651   4.043   2.672   0.949
 2766SOL    HW110652   4.136   2.708   0.954
 2766SOL    HW210653   4.037   2.587   1.001
 2767SOL     OW10654   4.063   2.371   1.006
 2767SOL    HW110655   4.011   2.288   0.989
 2767SOL    HW210656   4.140   2.376   0.942
 2768SOL     OW10657   3.812   3.663   0.927
 2768SOL    HW110658   3.770   3.577   0.900
 2768SOL    HW210659   3.906   3.666   0.893
 2769SOL     OW10660   4.726   2.658   1.238
 2769SOL    HW110661   4.767   2.626   1.324
 2769SOL    HW210662   4.630   2.631   1.235
 2770SOL     OW10663   3.764   2.406   1.114
 2770SOL    HW110664   3.849   2.373   1.073
 2770SOL    HW210665   3.777   2.421   1.212
 2771SOL     OW10666   3.913   2.382   1.722
 2771SOL    HW110667   3.972   2.342   1.652
 2771SOL    HW210668   3.855   2.453   1.681
 2772SOL     OW10669   4.539   2.434   0.325
 2772SOL    HW110670   4.546   2.345   0.279
 2772SOL    HW210671   4.445   2.468   0.317
 2773SOL     OW10672   3.976   3.426   1.744
 2773SOL    HW110673   3.946   3.483   1.820
 2773SOL    HW210674   3.969   3.329   1.770
 2774SOL     OW10675   4.395   2.326   1.269
 2774SOL    HW110676   4.361   2.237   1.239
 2774SOL    HW210677   4.421   2.380   1.189
 2775SOL     OW10678   4.654   3.540   1.465
 2775SOL    HW110679   4.630   3.522   1.370
 2775SOL    HW210680   4.684   3.634   1.475
 2776SOL     OW10681   4.197   2.362   0.191
 2776SOL    HW110682   4.258   2.442   0.195
 2776SOL    HW210683   4.102   2.393   0.198
 2777SOL     OW10684   3.883   2.999   1.466
 2777SOL    HW110685   3.905   2.938   1.542
 2777SOL    HW210686   3.893   2.950   1.380
 2778SOL     OW10687   5.071   2.921   1.234
 2778SOL    HW110688   5.095   2.858   1.160
 2778SOL    HW210689   4.981   2.961   1.216
 2779SOL     OW10690   4.976   3.593   1.128
 2779SOL    HW110691   5.060   3.598   1.074
 2779SOL    HW210692   4.953   3.497   1.146
 2780SOL     OW10693   3.807   3.120   1.022
 2780SOL    HW110694   3.802   3.119   1.122
 2780SOL    HW210695   3.724   3.079   0.984
 2781SOL     OW10696   4.412   3.524   1.716
 2781SOL    HW110697   4.356   3.605   1.725
 2781SOL    HW210698   4.464   3.528   1.630
 2782SOL     OW10699   4.627   1.948   0.133
 2782SOL    HW110700   4.678   1.949   0.047
 2782SOL    HW210701   4.683   1.906   0.204
 2783SOL     OW10702   5.112   3.435   0.477
 2783SOL    HW110703   5.179   3.447   0.403
 2783SOL    HW210704   5.072   3.524   0.500
 2784SOL     OW10705   3.854   3.656   1.851
 2784SOL    HW110706   3.813   3.582   1.904
 2784SOL    HW210707   3.918   3.707   1.909
 2785SOL     OW10708   4.554   3.135   1.422
 2785SOL    HW110709   4.549   3.168   1.517
 2785SOL    HW210710   4.468   3.154   1.376
 2786SOL     OW10711   4.396   3.478   0.154
 2786SOL    HW110712   4.405   3.488   0.055
 2786SOL    HW210713   4.356   3.389   0.175
 2787SOL     OW10714   3.987   2.188   0.720
 2787SOL    HW110715   3.908   2.239   0.686
 2787SOL    HW210716   3.978   2.173   0.818
 2788SOL     OW10717   4.546   2.864   1.372
 2788SOL    HW110718   4.586   2.863   1.280
 2788SOL    HW210719   4.556   2.956   1.412
 2789SOL     OW10720   4.640   2.772   0.291
 2789SOL    HW110721   4.703   2.810   0.223
 2789SOL    HW210722   4.680   2.689   0.330
 2790SOL     OW10723   4.096   3.150   1.490
 2790SOL    HW110724   4.083   3.243   1.456
 2790SOL    HW210725   4.012   3.098   1.477
 2791SOL     OW10726   4.738   2.098   0.971
 2791SOL    HW110727   4.730   2.062   0.878
 2791SOL    HW210728   4.736   2.022   1.036
 2792SOL     OW10729   3.979   3.210   0.290
 2792SOL    HW110730   3.883   3.211   0.263
 2792SOL    HW210731   3.991   3.263   0.374
 2793SOL     OW10732   3.829   2.875   1.726
 2793SOL    HW110733   3.752   2.842   1.780
 2793SOL    HW210734   3.914   2.845   1.768
 2794SOL     OW10735   5.164   2.718   1.398
 2794SOL    HW110736   5.107   2.770   1.335
 2794SOL    HW210737   5.260   2.730   1.374
 2795SOL     OW10738   3.796   2.028   0.318
 2795SOL    HW110739   3.779   2.111   0.264
 2795SOL    HW210740   3.886   1.991   0.296
 2796SOL     OW10741   4.337   2.704   1.431
 2796SOL    HW110742   4.393   2.785   1.414
 2796SOL    HW210743   4.396   2.624   1.434
 2797SOL     OW10744   4.440   2.427   1.708
 2797SOL    HW110745   4.459   2.492   1.782
 2797SOL    HW210746   4.500   2.347   1.717
 2798SOL     OW10747   4.114   3.603   1.560
 2798SOL    HW110748   4.023   3.644   1.558
 2798SOL    HW210749   4.107   3.509   1.592
 2799SOL     OW10750   4.949   2.187   0.449
 2799SOL    HW110751   5.014   2.113   0.438
 2799SOL    HW210752   4.969   2.237   0.533
 2800SOL     OW10753   4.318   2.607   0.652
 2800SOL    HW110754   4.368   2.692   0.633
 2800SOL    HW210755   4.230   2.609   0.604
 2801SOL     OW10756   4.583   3.236   0.016
 2801SOL    HW110757   4.537   3.251   0.104
 2801SOL    HW210758   4.627   3.321  -0.014
 2802SOL     OW10759   4.583   2.818   0.861
 2802SOL    HW110760   4.637   2.749   0.909
 2802SOL    HW210761   4.551   2.887   0.927
 2803SOL     OW10762   4.807   2.846   0.087
 2803SOL    HW110763   4.784   2.899   0.005
 2803SOL    HW210764   4.888   2.790   0.068
 2804SOL     OW10765   3.945   3.176   1.844
 2804SOL    HW110766   3.880   3.103   1.823
 2804SOL    HW210767   3.949   3.190   1.942
 2805SOL     OW10768   3.803   3.102   0.653
 2805SOL    HW110769   3.802   3.055   0.741
 2805SOL    HW210770   3.885   3.074   0.602
 2806SOL     OW10771   4.396   3.253   1.624
 2806SOL    HW110772   4.318   3.203   1.662
 2806SOL    HW210773   4.393   3.348   1.655
 2807SOL     OW10774   4.152   2.286   0.520
 2807SOL    HW110775   4.182   2.214   0.458
 2807SOL    HW210776   4.113   2.246   0.603
 2808SOL     OW10777   4.041   2.409   1.280
 2808SOL    HW110778   4.079   2.350   1.352
 2808SOL    HW210779   4.081   2.383   1.192
 2809SOL     OW10780   4.342   3.429   1.284
 2809SOL    HW110781   4.337   3.511   1.341
 2809SOL    HW210782   4.431   3.426   1.239
 2810SOL     OW10783   3.763   2.939   0.300
 2810SOL    HW110784   3.862   2.928   0.291
 2810SOL    HW210785   3.723   2.853   0.332
 2811SOL     OW10786   3.954   2.490   1.975
 2811SOL    HW110787   3.861   2.488   2.012
 2811SOL    HW210788   3.955   2.451   1.883
 2812SOL     OW10789   3.949   2.137   2.858
 2812SOL    HW110790   3.984   2.120   2.950
 2812SOL    HW210791   3.861   2.092   2.846
 2813SOL     OW10792   3.743   2.230   2.509
 2813SOL    HW110793   3.661   2.273   2.548
 2813SOL    HW210794   3.715   2.157   2.446
 2814SOL     OW10795   4.293   3.137   3.027
 2814SOL    HW110796   4.200   3.130   2.990
 2814SOL    HW210797   4.304   3.226   3.071
 2815SOL     OW10798   4.859   2.565   2.579
 2815SOL    HW110799   4.916   2.643   2.554
 2815SOL    HW210800   4.799   2.591   2.655
 2816SOL     OW10801   4.492   3.006   2.885
 2816SOL    HW110802   4.414   3.023   2.945
 2816SOL    HW210803   4.526   3.093   2.849
 2817SOL     OW10804   4.574   2.660   3.685
 2817SOL    HW110805   4.570   2.736   3.750
 2817SOL    HW210806   4.596   2.696   3.594
 2818SOL     OW10807   4.409   2.874   2.527
 2818SOL    HW110808   4.478   2.858   2.597
 2818SOL    HW210809   4.336   2.931   2.565
 2819SOL     OW10810   4.410   3.023   3.665
 2819SOL    HW110811   4.470   3.102   3.679
 2819SOL    HW210812   4.324   3.054   3.624
 2820SOL     OW10813   4.059   3.297   2.923
 2820SOL    HW110814   3.981   3.266   2.870
 2820SOL    HW210815   4.117   3.355   2.866
 2821SOL     OW10816   4.162   2.254   3.361
 2821SOL    HW110817   4.244   2.198   3.370
 2821SOL    HW210818   4.081   2.196   3.365
 2822SOL     OW10819   3.955   3.575   2.345
 2822SOL    HW110820   3.989   3.652   2.399
 2822SOL    HW210821   3.999   3.575   2.255
 2823SOL     OW10822   4.851   3.203   3.552
 2823SOL    HW110823   4.898   3.203   3.640
 2823SOL    HW210824   4.803   3.116   3.541
 2824SOL     OW10825   3.954   3.296   2.400
 2824SOL    HW110826   3.928   3.392   2.400
 2824SOL    HW210827   3.883   3.242   2.445
 2825SOL     OW10828   3.964   2.953   2.748
 2825SOL    HW110829   3.978   2.869   2.800
 2825SOL    HW210830   3.909   3.017   2.803
 2826SOL     OW10831   4.330   2.826   1.985
 2826SOL    HW110832   4.337   2.910   1.931
 2826SOL    HW210833   4.376   2.839   2.073
 2827SOL     OW10834   3.846   2.505   2.425
 2827SOL    HW110835   3.801   2.417   2.442
 2827SOL    HW210836   3.845   2.559   2.509
 2828SOL     OW10837   3.751   3.458   1.979
 2828SOL    HW110838   3.732   3.362   2.000
 2828SOL    HW210839   3.718   3.516   2.054
 2829SOL     OW10840   3.837   2.599   3.459
 2829SOL    HW110841   3.925   2.586   3.504
 2829SOL    HW210842   3.824   2.696   3.437
 2830SOL     OW10843   4.337   3.227   2.588
 2830SOL    HW110844   4.288   3.140   2.597
 2830SOL    HW210845   4.314   3.270   2.501
 2831SOL     OW10846   5.017   3.090   3.285
 2831SOL    HW110847   5.054   3.017   3.227
 2831SOL    HW210848   5.069   3.095   3.370
 2832SOL     OW10849   4.533   1.866   2.364
 2832SOL    HW110850   4.573   1.957   2.355
 2832SOL    HW210851   4.433   1.874   2.370
 2833SOL     OW10852   3.921   2.838   3.126
 2833SOL    HW110853   4.010   2.793   3.112
 2833SOL    HW210854   3.848   2.773   3.107
 2834SOL     OW10855   4.041   2.113   3.663
 2834SOL    HW110856   4.112   2.184   3.669
 2834SOL    HW210857   3.953   2.152   3.691
 2835SOL     OW10858   4.322   2.591   2.132
 2835SOL    HW110859   4.346   2.660   2.064
 2835SOL    HW210860   4.244   2.624   2.186
 2836SOL     OW10861   4.531   2.467   3.327
 2836SOL    HW110862   4.484   2.464   3.416
 2836SOL    HW210863   4.480   2.412   3.261
 2837SOL     OW10864   4.697   2.752   3.434
 2837SOL    HW110865   4.743   2.668   3.405
 2837SOL    HW210866   4.641   2.786   3.359
 2838SOL     OW10867   4.715   2.272   3.104
 2838SOL    HW110868   4.638   2.306   3.158
 2838SOL    HW210869   4.681   2.221   3.025
 2839SOL     OW10870   4.765   2.563   2.291
 2839SOL    HW110871   4.791   2.559   2.387
 2839SOL    HW210872   4.680   2.512   2.277
 2840SOL     OW10873   3.800   2.673   2.651
 2840SOL    HW110874   3.899   2.661   2.660
 2840SOL    HW210875   3.776   2.768   2.672
 2841SOL     OW10876   4.274   2.058   2.747
 2841SOL    HW110877   4.269   2.053   2.847
 2841SOL    HW210878   4.276   2.154   2.718
 2842SOL     OW10879   4.075   3.663   2.715
 2842SOL    HW110880   4.125   3.577   2.721
 2842SOL    HW210881   4.140   3.740   2.712
 2843SOL     OW10882   4.951   3.412   3.368
 2843SOL    HW110883   4.957   3.335   3.432
 2843SOL    HW210884   4.899   3.386   3.288
 2844SOL     OW10885   4.045   2.805   2.104
 2844SOL    HW110886   4.127   2.844   2.062
 2844SOL    HW210887   4.018   2.723   2.055
 2845SOL     OW10888   4.185   3.128   3.589
 2845SOL    HW110889   4.135   3.129   3.503
 2845SOL    HW210890   4.122   3.110   3.665
 2846SOL     OW10891   4.835   3.638   2.099
 2846SOL    HW110892   4.775   3.576   2.149
 2846SOL    HW210893   4.866   3.594   2.014
 2847SOL     OW10894   3.926   2.147   3.360
 2847SOL    HW110895   3.846   2.207   3.347
 2847SOL    HW210896   3.916   2.098   3.446
 2848SOL     OW10897   3.973   3.647   3.103
 2848SOL    HW110898   4.030   3.582   3.153
 2848SOL    HW210899   3.957   3.614   3.010
 2849SOL     OW10900   4.664   3.560   2.766
 2849SOL    HW110901   4.744   3.503   2.787
 2849SOL    HW210902   4.615   3.520   2.689
 2850SOL     OW10903   4.106   2.562   2.342
 2850SOL    HW110904   4.151   2.472   2.339
 2850SOL    HW210905   4.012   2.551   2.375
 2851SOL     OW10906   4.612   3.376   3.057
 2851SOL    HW110907   4.589   3.351   2.963
 2851SOL    HW210908   4.673   3.307   3.096
 2852SOL     OW10909   4.527   3.264   2.786
 2852SOL    HW110910   4.617   3.278   2.744
 2852SOL    HW210911   4.456   3.266   2.715
 2853SOL     OW10912   4.646   2.365   2.761
 2853SOL    HW110913   4.621   2.356   2.665
 2853SOL    HW210914   4.694   2.283   2.792
 2854SOL     OW10915   4.263   1.926   2.374
 2854SOL    HW110916   4.182   1.927   2.432
 2854SOL    HW210917   4.266   2.009   2.319
 2855SOL     OW10918   4.659   2.098   2.342
 2855SOL    HW110919   4.611   2.139   2.264
 2855SOL    HW210920   4.758   2.096   2.323
 2856SOL     OW10921   4.800   2.545   3.326
 2856SOL    HW110922   4.720   2.484   3.329
 2856SOL    HW210923   4.881   2.492   3.302
 2857SOL     OW10924   4.951   3.432   2.655
 2857SOL    HW110925   4.972   3.506   2.590
 2857SOL    HW210926   5.019   3.432   2.728
 2858SOL     OW10927   4.183   3.014   2.603
 2858SOL    HW110928   4.112   2.987   2.668
 2858SOL    HW210929   4.157   2.986   2.510
 2859SOL     OW10930   4.995   3.659   2.453
 2859SOL    HW110931   5.039   3.723   2.389
 2859SOL    HW210932   4.945   3.711   2.523
 2860SOL     OW10933   3.802   2.418   3.248
 2860SOL    HW110934   3.894   2.417   3.207
 2860SOL    HW210935   3.796   2.492   3.315
 2861SOL     OW10936   4.285   2.084   3.009
 2861SOL    HW110937   4.323   2.000   3.046
 2861SOL    HW210938   4.197   2.103   3.053
 2862SOL     OW10939   4.590   2.316   2.504
 2862SOL    HW110940   4.558   2.388   2.442
 2862SOL    HW210941   4.614   2.235   2.451
 2863SOL     OW10942   4.741   1.901   2.615
 2863SOL    HW110943   4.669   1.906   2.546
 2863SOL    HW210944   4.717   1.832   2.684
 2864SOL     OW10945   5.388   3.142   2.519
 2864SOL    HW110946   5.487   3.150   2.533
 2864SOL    HW210947   5.343   3.226   2.550
 2865SOL     OW10948   4.788   3.209   3.202
 2865SOL    HW110949   4.708   3.186   3.257
 2865SOL    HW210950   4.871   3.183   3.251
 2866SOL     OW10951   4.835   3.057   2.962
 2866SOL    HW110952   4.795   3.101   3.043
 2866SOL    HW210953   4.794   3.094   2.879
 2867SOL     OW10954   4.704   2.978   3.581
 2867SOL    HW110955   4.605   2.984   3.591
 2867SOL    HW210956   4.727   2.898   3.525
 2868SOL     OW10957   4.429   2.912   2.230
 2868SOL    HW110958   4.415   2.919   2.329
 2868SOL    HW210959   4.513   2.861   2.212
 2869SOL     OW10960   4.134   2.675   3.113
 2869SOL    HW110961   4.220   2.687   3.163
 2869SOL    HW210962   4.092   2.588   3.140
 2870SOL     OW10963   3.788   3.426   3.193
 2870SOL    HW110964   3.742   3.508   3.159
 2870SOL    HW210965   3.886   3.445   3.202
 2871SOL     OW10966   4.091   2.962   2.363
 2871SOL    HW110967   4.084   3.045   2.307
 2871SOL    HW210968   4.095   2.882   2.303
 2872SOL     OW10969   4.290   2.399   2.727
 2872SOL    HW110970   4.302   2.465   2.653
 2872SOL    HW210971   4.336   2.433   2.810
 2873SOL     OW10972   4.976   3.210   2.250
 2873SOL    HW110973   5.026   3.287   2.290
 2873SOL    HW210974   4.881   3.212   2.282
 2874SOL     OW10975   4.078   3.372   3.191
 2874SOL    HW110976   4.057   3.328   3.104
 2874SOL    HW210977   4.175   3.398   3.194
 2875SOL     OW10978   4.126   2.613   3.460
 2875SOL    HW110979   4.194   2.668   3.413
 2875SOL    HW210980   4.166   2.525   3.487
 2876SOL     OW10981   4.228   1.912   3.602
 2876SOL    HW110982   4.186   1.855   3.532
 2876SOL    HW210983   4.162   1.981   3.634
 2877SOL     OW10984   4.297   2.732   2.891
 2877SOL    HW110985   4.341   2.821   2.882
 2877SOL    HW210986   4.234   2.732   2.968
 2878SOL     OW10987   4.031   2.075   3.093
 2878SOL    HW110988   4.008   2.112   3.183
 2878SOL    HW210989   4.001   1.980   3.087
 2879SOL     OW10990   3.761   3.172   3.144
 2879SOL    HW110991   3.814   3.123   3.212
 2879SOL    HW210992   3.783   3.270   3.149
 2880SOL     OW10993   4.456   2.496   2.926
 2880SOL    HW110994   4.515   2.470   2.850
 2880SOL    HW210995   4.428   2.592   2.915
 2881SOL     OW10996   4.031   1.925   2.480
 2881SOL    HW110997   4.020   2.019   2.513
 2881SOL    HW210998   4.026   1.862   2.557
 2882SOL     OW10999   5.346   2.229   2.236
 2882SOL    HW111000   5.348   2.153   2.300
 2882SOL    HW211001   5.298   2.306   2.276
 2883SOL     OW11002   4.747   2.628   2.828
 2883SOL    HW111003   4.762   2.649   2.924
 2883SOL    HW211004   4.717   2.533   2.819
 2884SOL     OW11005   4.704   3.435   3.562
 2884SOL    HW111006   4.684   3.479   3.474
 2884SOL    HW211007   4.743   3.344   3.546
 2885SOL     OW11008   4.074   2.760   3.666
 2885SOL    HW111009   4.150   2.804   3.714
 2885SOL    HW211010   4.109   2.713   3.584
 2886SOL     OW11011   4.792   3.195   2.711
 2886SOL    HW111012   4.799   3.111   2.656
 2886SOL    HW211013   4.854   3.264   2.675
 2887SOL     OW11014   4.043   2.672   2.811
 2887SOL    HW111015   4.136   2.708   2.816
 2887SOL    HW211016   4.037   2.587   2.863
 2888SOL     OW11017   4.063   2.371   2.868
 2888SOL    HW111018   4.011   2.288   2.851
 2888SOL    HW211019   4.140   2.376   2.804
 2889SOL     OW11020   4.884   2.069   3.339
 2889SOL    HW111021   4.884   2.133   3.416
 2889SOL    HW211022   4.912   2.117   3.256
 2890SOL     OW11023   3.812   3.663   2.789
 2890SOL    HW111024   3.770   3.577   2.762
 2890SOL    HW211025   3.906   3.666   2.755
 2891SOL     OW11026   4.228   3.430   2.772
 2891SOL    HW111027   4.294   3.504   2.781
 2891SOL    HW211028   4.272   3.351   2.730
 2892SOL     OW11029   4.726   2.658   3.100
 2892SOL    HW111030   4.767   2.626   3.186
 2892SOL    HW211031   4.630   2.631   3.097
 2893SOL     OW11032   3.764   2.406   2.976
 2893SOL    HW111033   3.849   2.373   2.935
 2893SOL    HW211034   3.777   2.421   3.074
 2894SOL     OW11035   3.913   2.382   3.584
 2894SOL    HW111036   3.972   2.342   3.514
 2894SOL    HW211037   3.855   2.453   3.543
 2895SOL     OW11038   4.539   2.434   2.187
 2895SOL    HW111039   4.546   2.345   2.141
 2895SOL    HW211040   4.445   2.468   2.179
 2896SOL     OW11041   3.976   3.426   3.606
 2896SOL    HW111042   3.946   3.483   3.682
 2896SOL    HW211043   3.969   3.329   3.632
 2897SOL     OW11044   4.395   2.326   3.131
 2897SOL    HW111045   4.361   2.237   3.101
 2897SOL    HW211046   4.421   2.380   3.051
 2898SOL     OW11047   4.654   3.540   3.327
 2898SOL    HW111048   4.630   3.522   3.232
 2898SOL    HW211049   4.684   3.634   3.337
 2899SOL     OW11050   4.197   2.362   2.053
 2899SOL    HW111051   4.258   2.442   2.057
 2899SOL    HW211052   4.102   2.393   2.060
 2900SOL     OW11053   3.883   2.999   3.328
 2900SOL    HW111054   3.905   2.938   3.404
 2900SOL    HW211055   3.893   2.950   3.242
 2901SOL     OW11056   4.976   3.593   2.990
 2901SOL    HW111057   5.060   3.598   2.936
 2901SOL    HW211058   4.953   3.497   3.008
 2902SOL     OW11059   3.807   3.120   2.884
 2902SOL    HW111060   3.802   3.119   2.984
 2902SOL    HW211061   3.724   3.079   2.846
 2903SOL     OW11062   4.412   3.524   3.578
 2903SOL    HW111063   4.356   3.605   3.587
 2903SOL    HW211064   4.464   3.528   3.492
 2904SOL     OW11065   5.112   3.435   2.339
 2904SOL    HW111066   5.179   3.447   2.265
 2904SOL    HW211067   5.072   3.524   2.362
 2905SOL     OW11068   3.854   3.656   3.713
 2905SOL    HW111069   3.813   3.582   3.766
 2905SOL    HW211070   3.918   3.707   3.771
 2906SOL     OW11071   5.004   2.789   2.534
 2906SOL    HW111072   5.064   2.708   2.536
 2906SOL    HW211073   5.044   2.858   2.474
 2907SOL     OW11074   4.554   3.135   3.284
 2907SOL    HW111075   4.549   3.168   3.379
 2907SOL    HW211076   4.468   3.154   3.238
 2908SOL     OW11077   3.987   2.188   2.582
 2908SOL    HW111078   3.908   2.239   2.548
 2908SOL    HW211079   3.978   2.173   2.680
 2909SOL     OW11080   4.918   3.474   1.893
 2909SOL    HW111081   4.924   3.381   1.930
 2909SOL    HW211082   4.859   3.474   1.813
 2910SOL     OW11083   4.546   2.864   3.234
 2910SOL    HW111084   4.586   2.863   3.142
 2910SOL    HW211085   4.556   2.956   3.274
 2911SOL     OW11086   4.640   2.772   2.153
 2911SOL    HW111087   4.703   2.810   2.085
 2911SOL    HW211088   4.680   2.689   2.192
 2912SOL     OW11089   4.096   3.150   3.352
 2912SOL    HW111090   4.083   3.243   3.318
 2912SOL    HW211091   4.012   3.098   3.339
 2913SOL     OW11092   4.763   2.960   2.558
 2913SOL    HW111093   4.693   2.913   2.612
 2913SOL    HW211094   4.822   2.892   2.515
 2914SOL     OW11095   4.738   2.098   2.833
 2914SOL    HW111096   4.730   2.062   2.740
 2914SOL    HW211097   4.736   2.022   2.898
 2915SOL     OW11098   3.979   3.210   2.152
 2915SOL    HW111099   3.883   3.211   2.125
 2915SOL    HW211100   3.991   3.263   2.236
 2916SOL     OW11101   3.829   2.875   3.588
 2916SOL    HW111102   3.752   2.842   3.642
 2916SOL    HW211103   3.914   2.845   3.630
 2917SOL     OW11104   3.799   2.207   1.895
 2917SOL    HW111105   3.707   2.179   1.866
 2917SOL    HW211106   3.830   2.284   1.839
 2918SOL     OW11107   4.337   2.704   3.293
 2918SOL    HW111108   4.393   2.785   3.276
 2918SOL    HW211109   4.396   2.624   3.296
 2919SOL     OW11110   4.440   2.427   3.570
 2919SOL    HW111111   4.459   2.492   3.644
 2919SOL    HW211112   4.500   2.347   3.579
 2920SOL     OW11113   4.949   2.187   2.311
 2920SOL    HW111114   5.014   2.113   2.300
 2920SOL    HW211115   4.969   2.237   2.395
 2921SOL     OW11116   4.318   2.607   2.514
 2921SOL    HW111117   4.368   2.692   2.495
 2921SOL    HW211118   4.230   2.609   2.466
 2922SOL     OW11119   4.385   3.652   2.815
 2922SOL    HW111120   4.339   3.740   2.802
 2922SOL    HW211121   4.484   3.664   2.808
 2923SOL     OW11122   4.583   2.818   2.723
 2923SOL    HW111123   4.637   2.749   2.771
 2923SOL    HW211124   4.551   2.887   2.789
 2924SOL     OW11125   4.807   2.846   1.949
 2924SOL    HW111126   4.784   2.899   1.867
 2924SOL    HW211127   4.888   2.790   1.930
 2925SOL     OW11128   3.945   3.176   3.706
 2925SOL    HW111129   3.880   3.103   3.685
 2925SOL    HW211130   3.949   3.190   3.804
 2926SOL     OW11131   3.803   3.102   2.515
 2926SOL    HW111132   3.802   3.055   2.603
 2926SOL    HW211133   3.885   3.074   2.464
 2927SOL     OW11134   4.396   3.253   3.486
 2927SOL    HW111135   4.318   3.203   3.524
 2927SOL    HW211136   4.393   3.348   3.517
 2928SOL     OW11137   4.152   2.286   2.382
 2928SOL    HW111138   4.182   2.214   2.320
 2928SOL    HW211139   4.113   2.246   2.465
 2929SOL     OW11140   4.041   2.409   3.142
 2929SOL    HW111141   4.079   2.350   3.214
 2929SOL    HW211142   4.081   2.383   3.054
 2930SOL     OW11143   4.342   3.429   3.146
 2930SOL    HW111144   4.337   3.511   3.203
 2930SOL    HW211145   4.431   3.426   3.101
 2931SOL     OW11146   5.076   1.914   2.030
 2931SOL    HW111147   5.111   1.873   1.946
 2931SOL    HW211148   4.986   1.876   2.050
 2932SOL     OW11149   3.763   2.939   2.162
 2932SOL    HW111150   3.862   2.928   2.153
 2932SOL    HW211151   3.723   2.853   2.194
 2933SOL     OW11152   3.954   2.490   3.837
 2933SOL    HW111153   3.861   2.488   3.874
 2933SOL    HW211154   3.955   2.451   3.745
 2934SOL     OW11155   3.949   2.137   4.720
 2934SOL    HW111156   3.984   2.120   4.812
 2934SOL    HW211157   3.861   2.092   4.708
 2935SOL     OW11158   3.743   2.230   4.371
 2935SOL    HW111159   3.661   2.273   4.410
 2935SOL    HW211160   3.715   2.157   4.308
 2936SOL     OW11161   4.859   2.565   4.441
 2936SOL    HW111162   4.916   2.643   4.416
 2936SOL    HW211163   4.799   2.591   4.517
 2937SOL     OW11164   4.492   3.006   4.747
 2937SOL    HW111165   4.414   3.023   4.807
 2937SOL    HW211166   4.526   3.093   4.711
 2938SOL     OW11167   3.955   3.575   4.207
 2938SOL    HW111168   3.989   3.652   4.261
 2938SOL    HW211169   3.999   3.575   4.117
 2939SOL     OW11170   3.954   3.296   4.262
 2939SOL    HW111171   3.928   3.392   4.262
 2939SOL    HW211172   3.883   3.242   4.307
 2940SOL     OW11173   4.344   3.648   5.163
 2940SOL    HW111174   4.252   3.631   5.198
 2940SOL    HW211175   4.372   3.740   5.189
 2941SOL     OW11176   4.330   2.826   3.847
 2941SOL    HW111177   4.337   2.910   3.793
 2941SOL    HW211178   4.376   2.839   3.935
 2942SOL     OW11179   3.846   2.505   4.287
 2942SOL    HW111180   3.801   2.417   4.304
 2942SOL    HW211181   3.845   2.559   4.371
 2943SOL     OW11182   3.751   3.458   3.841
 2943SOL    HW111183   3.732   3.362   3.862
 2943SOL    HW211184   3.718   3.516   3.916
 2944SOL     OW11185   3.921   2.838   4.988
 2944SOL    HW111186   4.010   2.793   4.974
 2944SOL    HW211187   3.848   2.773   4.969
 2945SOL     OW11188   4.322   2.591   3.994
 2945SOL    HW111189   4.346   2.660   3.926
 2945SOL    HW211190   4.244   2.624   4.048
 2946SOL     OW11191   5.005   2.207   4.668
 2946SOL    HW111192   4.919   2.157   4.655
 2946SOL    HW211193   5.067   2.153   4.724
 2947SOL     OW11194   4.715   2.272   4.966
 2947SOL    HW111195   4.638   2.306   5.020
 2947SOL    HW211196   4.681   2.221   4.887
 2948SOL     OW11197   3.800   2.673   4.513
 2948SOL    HW111198   3.899   2.661   4.522
 2948SOL    HW211199   3.776   2.768   4.534
 2949SOL     OW11200   4.274   2.058   4.609
 2949SOL    HW111201   4.269   2.053   4.709
 2949SOL    HW211202   4.276   2.154   4.580
 2950SOL     OW11203   4.732   3.318   4.201
 2950SOL    HW111204   4.686   3.390   4.149
 2950SOL    HW211205   4.728   3.338   4.299
 2951SOL     OW11206   4.075   3.663   4.577
 2951SOL    HW111207   4.125   3.577   4.583
 2951SOL    HW211208   4.140   3.740   4.574
 2952SOL     OW11209   4.045   2.805   3.966
 2952SOL    HW111210   4.127   2.844   3.924
 2952SOL    HW211211   4.018   2.723   3.917
 2953SOL     OW11212   4.835   3.638   3.961
 2953SOL    HW111213   4.775   3.576   4.011
 2953SOL    HW211214   4.866   3.594   3.876
 2954SOL     OW11215   3.973   3.647   4.965
 2954SOL    HW111216   4.030   3.582   5.015
 2954SOL    HW211217   3.957   3.614   4.872
 2955SOL     OW11218   4.664   3.560   4.628
 2955SOL    HW111219   4.744   3.503   4.649
 2955SOL    HW211220   4.615   3.520   4.551
 2956SOL     OW11221   4.106   2.562   4.204
 2956SOL    HW111222   4.151   2.472   4.201
 2956SOL    HW211223   4.012   2.551   4.237
 2957SOL     OW11224   4.527   3.264   4.648
 2957SOL    HW111225   4.617   3.278   4.606
 2957SOL    HW211226   4.456   3.266   4.577
 2958SOL     OW11227   4.646   2.365   4.623
 2958SOL    HW111228   4.621   2.356   4.527
 2958SOL    HW211229   4.694   2.283   4.654
 2959SOL     OW11230   4.021   1.897   3.895
 2959SOL    HW111231   4.070   1.981   3.874
 2959SOL    HW211232   4.083   1.832   3.940
 2960SOL     OW11233   4.951   3.432   4.517
 2960SOL    HW111234   4.972   3.506   4.452
 2960SOL    HW211235   5.019   3.432   4.590
 2961SOL     OW11236   4.183   3.014   4.465
 2961SOL    HW111237   4.112   2.987   4.530
 2961SOL    HW211238   4.157   2.986   4.372
 2962SOL     OW11239   4.995   3.659   4.315
 2962SOL    HW111240   5.039   3.723   4.251
 2962SOL    HW211241   4.945   3.711   4.385
 2963SOL     OW11242   4.285   2.084   4.871
 2963SOL    HW111243   4.323   2.000   4.908
 2963SOL    HW211244   4.197   2.103   4.915
 2964SOL     OW11245   4.590   2.316   4.366
 2964SOL    HW111246   4.558   2.388   4.304
 2964SOL    HW211247   4.614   2.235   4.313
 2965SOL     OW11248   4.212   3.247   3.898
 2965SOL    HW111249   4.125   3.232   3.945
 2965SOL    HW211250   4.195   3.273   3.803
 2966SOL     OW11251   4.251   2.118   4.052
 2966SOL    HW111252   4.278   2.059   3.977
 2966SOL    HW211253   4.251   2.213   4.021
 2967SOL     OW11254   5.316   3.491   5.349
 2967SOL    HW111255   5.343   3.525   5.259
 2967SOL    HW211256   5.395   3.453   5.395
 2968SOL     OW11257   4.835   3.057   4.824
 2968SOL    HW111258   4.795   3.101   4.905
 2968SOL    HW211259   4.794   3.094   4.741
 2969SOL     OW11260   4.429   2.912   4.092
 2969SOL    HW111261   4.415   2.919   4.191
 2969SOL    HW211262   4.513   2.861   4.074
 2970SOL     OW11263   4.134   2.675   4.975
 2970SOL    HW111264   4.220   2.687   5.025
 2970SOL    HW211265   4.092   2.588   5.002
 2971SOL     OW11266   4.091   2.962   4.225
 2971SOL    HW111267   4.084   3.045   4.169
 2971SOL    HW211268   4.095   2.882   4.165
 2972SOL     OW11269   4.290   2.399   4.589
 2972SOL    HW111270   4.302   2.465   4.515
 2972SOL    HW211271   4.336   2.433   4.672
 2973SOL     OW11272   4.976   3.210   4.112
 2973SOL    HW111273   5.026   3.287   4.152
 2973SOL    HW211274   4.881   3.212   4.144
 2974SOL     OW11275   4.078   3.372   5.053
 2974SOL    HW111276   4.057   3.328   4.966
 2974SOL    HW211277   4.175   3.398   5.056
 2975SOL     OW11278   4.297   2.732   4.753
 2975SOL    HW111279   4.341   2.821   4.744
 2975SOL    HW211280   4.234   2.732   4.830
 2976SOL     OW11281   5.084   2.724   4.769
 2976SOL    HW111282   5.009   2.724   4.703
 2976SOL    HW211283   5.121   2.632   4.778
 2977SOL     OW11284   4.031   2.075   4.955
 2977SOL    HW111285   4.008   2.112   5.045
 2977SOL    HW211286   4.001   1.980   4.949
 2978SOL     OW11287   3.761   3.172   5.006
 2978SOL    HW111288   3.814   3.123   5.074
 2978SOL    HW211289   3.783   3.270   5.011
 2979SOL     OW11290   4.456   2.496   4.788
 2979SOL    HW111291   4.515   2.470   4.712
 2979SOL    HW211292   4.428   2.592   4.777
 2980SOL     OW11293   5.346   2.229   4.098
 2980SOL    HW111294   5.348   2.153   4.162
 2980SOL    HW211295   5.298   2.306   4.138
 2981SOL     OW11296   4.747   2.628   4.690
 2981SOL    HW111297   4.762   2.649   4.786
 2981SOL    HW211298   4.717   2.533   4.681
 2982SOL     OW11299   5.027   2.700   3.766
 2982SOL    HW111300   5.061   2.607   3.781
 2982SOL    HW211301   5.045   2.727   3.671
 2983SOL     OW11302   4.792   3.195   4.573
 2983SOL    HW111303   4.799   3.111   4.518
 2983SOL    HW211304   4.854   3.264   4.537
 2984SOL     OW11305   4.043   2.672   4.673
 2984SOL    HW111306   4.136   2.708   4.678
 2984SOL    HW211307   4.037   2.587   4.725
 2985SOL     OW11308   4.063   2.371   4.730
 2985SOL    HW111309   4.011   2.288   4.713
 2985SOL    HW211310   4.140   2.376   4.666
 2986SOL     OW11311   3.732   3.188   3.924
 2986SOL    HW111312   3.639   3.209   3.893
 2986SOL    HW211313   3.742   3.089   3.937
 2987SOL     OW11314   3.812   3.663   4.651
 2987SOL    HW111315   3.770   3.577   4.624
 2987SOL    HW211316   3.906   3.666   4.617
 2988SOL     OW11317   4.228   3.430   4.634
 2988SOL    HW111318   4.294   3.504   4.643
 2988SOL    HW211319   4.272   3.351   4.592
 2989SOL     OW11320   4.726   2.658   4.962
 2989SOL    HW111321   4.767   2.626   5.048
 2989SOL    HW211322   4.630   2.631   4.959
 2990SOL     OW11323   4.395   2.326   4.993
 2990SOL    HW111324   4.361   2.237   4.963
 2990SOL    HW211325   4.421   2.380   4.913
 2991SOL     OW11326   4.197   2.362   3.915
 2991SOL    HW111327   4.258   2.442   3.919
 2991SOL    HW211328   4.102   2.393   3.922
 2992SOL     OW11329   5.071   2.921   4.958
 2992SOL    HW111330   5.095   2.858   4.884
 2992SOL    HW211331   4.981   2.961   4.940
 2993SOL     OW11332   4.976   3.593   4.852
 2993SOL    HW111333   5.060   3.598   4.798
 2993SOL    HW211334   4.953   3.497   4.870
 2994SOL     OW11335   5.004   2.789   4.396
 2994SOL    HW111336   5.064   2.708   4.398
 2994SOL    HW211337   5.044   2.858   4.336
 2995SOL     OW11338   4.396   3.478   3.878
 2995SOL    HW111339   4.405   3.488   3.779
 2995SOL    HW211340   4.356   3.389   3.899
 2996SOL     OW11341   3.987   2.188   4.444
 2996SOL    HW111342   3.908   2.239   4.410
 2996SOL    HW211343   3.978   2.173   4.542
 2997SOL     OW11344   4.918   3.474   3.755
 2997SOL    HW111345   4.924   3.381   3.792
 2997SOL    HW211346   4.859   3.474   3.675
 2998SOL     OW11347   4.546   2.864   5.096
 2998SOL    HW111348   4.586   2.863   5.004
 2998SOL    HW211349   4.556   2.956   5.136
 2999SOL     OW11350   4.763   2.960   4.420
 2999SOL    HW111351   4.693   2.913   4.474
 2999SOL    HW211352   4.822   2.892   4.377
 3000SOL     OW11353   4.738   2.098   4.695
 3000SOL    HW111354   4.730   2.062   4.602
 3000SOL    HW211355   4.736   2.022   4.760
 3001SOL     OW11356   4.314   3.349   4.215
 3001SOL    HW111357   4.356   3.291   4.145
 3001SOL    HW211358   4.270   3.428   4.171
 3002SOL     OW11359   3.979   3.210   4.014
 3002SOL    HW111360   3.883   3.211   3.987
 3002SOL    HW211361   3.991   3.263   4.098
 3003SOL     OW11362   3.799   2.207   3.757
 3003SOL    HW111363   3.707   2.179   3.728
 3003SOL    HW211364   3.830   2.284   3.701
 3004SOL     OW11365   3.796   2.028   4.042
 3004SOL    HW111366   3.779   2.111   3.988
 3004SOL    HW211367   3.886   1.991   4.020
 3005SOL     OW11368   4.949   2.187   4.173
 3005SOL    HW111369   5.014   2.113   4.162
 3005SOL    HW211370   4.969   2.237   4.257
 3006SOL     OW11371   4.583   3.236   3.740
 3006SOL    HW111372   4.537   3.251   3.828
 3006SOL    HW211373   4.627   3.321   3.710
 3007SOL     OW11374   4.385   3.652   4.677
 3007SOL    HW111375   4.339   3.740   4.664
 3007SOL    HW211376   4.484   3.664   4.670
 3008SOL     OW11377   4.583   2.818   4.585
 3008SOL    HW111378   4.637   2.749   4.633
 3008SOL    HW211379   4.551   2.887   4.651
 3009SOL     OW11380   3.803   3.102   4.377
 3009SOL    HW111381   3.802   3.055   4.465
 3009SOL    HW211382   3.885   3.074   4.326
 3010SOL     OW11383   4.152   2.286   4.244
 3010SOL    HW111384   4.182   2.214   4.182
 3010SOL    HW211385   4.113   2.246   4.327
 3011SOL     OW11386   4.536   3.448   4.411
 3011SOL    HW111387   4.568   3.458   4.317
 3011SOL    HW211388   4.457   3.386   4.413
 3012SOL     OW11389   4.725   1.896   4.878
 3012SOL    HW111390   4.662   1.824   4.847
 3012SOL    HW211391   4.818   1.860   4.878
 3013SOL     OW11392   3.763   2.939   4.024
 3013SOL    HW111393   3.862   2.928   4.015
 3013SOL    HW211394   3.723   2.853   4.056
 3014SOL     OW11395   4.293   4.999   1.165
 3014SOL    HW111396   4.200   4.992   1.128
 3014SOL    HW211397   4.304   5.088   1.209
 3015SOL     OW11398   4.859   4.427   0.717
 3015SOL    HW111399   4.916   4.505   0.692
 3015SOL    HW211400   4.799   4.453   0.793
 3016SOL     OW11401   4.492   4.868   1.023
 3016SOL    HW111402   4.414   4.885   1.083
 3016SOL    HW211403   4.526   4.955   0.987
 3017SOL     OW11404   4.410   4.885   1.803
 3017SOL    HW111405   4.470   4.964   1.817
 3017SOL    HW211406   4.324   4.916   1.762
 3018SOL     OW11407   4.059   5.159   1.061
 3018SOL    HW111408   3.981   5.128   1.008
 3018SOL    HW211409   4.117   5.217   1.004
 3019SOL     OW11410   4.162   4.116   1.499
 3019SOL    HW111411   4.244   4.060   1.508
 3019SOL    HW211412   4.081   4.058   1.503
 3020SOL     OW11413   3.964   4.815   0.886
 3020SOL    HW111414   3.978   4.731   0.938
 3020SOL    HW211415   3.909   4.879   0.941
 3021SOL     OW11416   4.330   4.688   0.123
 3021SOL    HW111417   4.337   4.772   0.069
 3021SOL    HW211418   4.376   4.701   0.211
 3022SOL     OW11419   3.846   4.367   0.563
 3022SOL    HW111420   3.801   4.279   0.580
 3022SOL    HW211421   3.845   4.421   0.647
 3023SOL     OW11422   3.837   4.461   1.597
 3023SOL    HW111423   3.925   4.448   1.642
 3023SOL    HW211424   3.824   4.558   1.575
 3024SOL     OW11425   3.921   4.700   1.264
 3024SOL    HW111426   4.010   4.655   1.250
 3024SOL    HW211427   3.848   4.635   1.245
 3025SOL     OW11428   4.041   3.975   1.801
 3025SOL    HW111429   4.112   4.046   1.807
 3025SOL    HW211430   3.953   4.014   1.829
 3026SOL     OW11431   4.322   4.453   0.270
 3026SOL    HW111432   4.346   4.522   0.202
 3026SOL    HW211433   4.244   4.486   0.324
 3027SOL     OW11434   5.005   4.069   0.944
 3027SOL    HW111435   4.919   4.019   0.931
 3027SOL    HW211436   5.067   4.015   1.000
 3028SOL     OW11437   4.531   4.329   1.465
 3028SOL    HW111438   4.484   4.326   1.554
 3028SOL    HW211439   4.480   4.274   1.399
 3029SOL     OW11440   4.697   4.614   1.572
 3029SOL    HW111441   4.743   4.530   1.543
 3029SOL    HW211442   4.641   4.648   1.497
 3030SOL     OW11443   4.715   4.134   1.242
 3030SOL    HW111444   4.638   4.168   1.296
 3030SOL    HW211445   4.681   4.083   1.163
 3031SOL     OW11446   4.765   4.425   0.429
 3031SOL    HW111447   4.791   4.421   0.525
 3031SOL    HW211448   4.680   4.374   0.415
 3032SOL     OW11449   3.800   4.535   0.789
 3032SOL    HW111450   3.899   4.523   0.798
 3032SOL    HW211451   3.776   4.630   0.810
 3033SOL     OW11452   4.589   4.072   0.195
 3033SOL    HW111453   4.648   4.135   0.146
 3033SOL    HW211454   4.608   3.978   0.166
 3034SOL     OW11455   4.274   3.920   0.885
 3034SOL    HW111456   4.269   3.915   0.985
 3034SOL    HW211457   4.276   4.016   0.856
 3035SOL     OW11458   3.926   4.009   1.498
 3035SOL    HW111459   3.846   4.069   1.485
 3035SOL    HW211460   3.916   3.960   1.584
 3036SOL     OW11461   4.106   4.424   0.480
 3036SOL    HW111462   4.151   4.334   0.477
 3036SOL    HW211463   4.012   4.413   0.513
 3037SOL     OW11464   4.527   5.126   0.924
 3037SOL    HW111465   4.617   5.140   0.882
 3037SOL    HW211466   4.456   5.128   0.853
 3038SOL     OW11467   4.646   4.227   0.899
 3038SOL    HW111468   4.621   4.218   0.803
 3038SOL    HW211469   4.694   4.145   0.930
 3039SOL     OW11470   4.263   3.788   0.512
 3039SOL    HW111471   4.182   3.789   0.570
 3039SOL    HW211472   4.266   3.871   0.457
 3040SOL     OW11473   4.659   3.960   0.480
 3040SOL    HW111474   4.611   4.001   0.402
 3040SOL    HW211475   4.758   3.958   0.461
 3041SOL     OW11476   4.800   4.407   1.464
 3041SOL    HW111477   4.720   4.346   1.467
 3041SOL    HW211478   4.881   4.354   1.440
 3042SOL     OW11479   4.951   5.294   0.793
 3042SOL    HW111480   4.972   5.368   0.728
 3042SOL    HW211481   5.019   5.294   0.866
 3043SOL     OW11482   4.183   4.876   0.741
 3043SOL    HW111483   4.112   4.849   0.806
 3043SOL    HW211484   4.157   4.848   0.648
 3044SOL     OW11485   4.756   4.273   0.016
 3044SOL    HW111486   4.715   4.355  -0.023
 3044SOL    HW211487   4.820   4.299   0.089
 3045SOL     OW11488   4.285   3.946   1.147
 3045SOL    HW111489   4.323   3.862   1.184
 3045SOL    HW211490   4.197   3.965   1.191
 3046SOL     OW11491   4.590   4.178   0.642
 3046SOL    HW111492   4.558   4.250   0.580
 3046SOL    HW211493   4.614   4.097   0.589
 3047SOL     OW11494   4.251   3.980   0.328
 3047SOL    HW111495   4.278   3.921   0.253
 3047SOL    HW211496   4.251   4.075   0.297
 3048SOL     OW11497   4.639   3.813   1.402
 3048SOL    HW111498   4.664   3.793   1.307
 3048SOL    HW211499   4.711   3.869   1.444
 3049SOL     OW11500   4.704   4.840   1.719
 3049SOL    HW111501   4.605   4.846   1.729
 3049SOL    HW211502   4.727   4.760   1.663
 3050SOL     OW11503   4.134   4.537   1.251
 3050SOL    HW111504   4.220   4.549   1.301
 3050SOL    HW211505   4.092   4.450   1.278
 3051SOL     OW11506   4.998   4.110   1.262
 3051SOL    HW111507   5.019   4.184   1.326
 3051SOL    HW211508   4.909   4.127   1.219
 3052SOL     OW11509   4.290   4.261   0.865
 3052SOL    HW111510   4.302   4.327   0.791
 3052SOL    HW211511   4.336   4.295   0.948
 3053SOL     OW11512   4.976   5.072   0.388
 3053SOL    HW111513   5.026   5.149   0.428
 3053SOL    HW211514   4.881   5.074   0.420
 3054SOL     OW11515   4.126   4.475   1.598
 3054SOL    HW111516   4.194   4.530   1.551
 3054SOL    HW211517   4.166   4.387   1.625
 3055SOL     OW11518   4.228   3.774   1.740
 3055SOL    HW111519   4.186   3.717   1.670
 3055SOL    HW211520   4.162   3.843   1.772
 3056SOL     OW11521   4.297   4.594   1.029
 3056SOL    HW111522   4.341   4.683   1.020
 3056SOL    HW211523   4.234   4.594   1.106
 3057SOL     OW11524   5.084   4.586   1.045
 3057SOL    HW111525   5.009   4.586   0.979
 3057SOL    HW211526   5.121   4.494   1.054
 3058SOL     OW11527   4.933   4.249   0.275
 3058SOL    HW111528   4.946   4.165   0.329
 3058SOL    HW211529   4.904   4.323   0.335
 3059SOL     OW11530   4.031   3.937   1.231
 3059SOL    HW111531   4.008   3.974   1.321
 3059SOL    HW211532   4.001   3.842   1.225
 3060SOL     OW11533   4.456   4.358   1.064
 3060SOL    HW111534   4.515   4.332   0.988
 3060SOL    HW211535   4.428   4.454   1.053
 3061SOL     OW11536   4.031   3.787   0.618
 3061SOL    HW111537   4.020   3.881   0.651
 3061SOL    HW211538   4.026   3.724   0.695
 3062SOL     OW11539   5.346   4.091   0.374
 3062SOL    HW111540   5.348   4.015   0.438
 3062SOL    HW211541   5.298   4.168   0.414
 3063SOL     OW11542   4.747   4.490   0.966
 3063SOL    HW111543   4.762   4.511   1.062
 3063SOL    HW211544   4.717   4.395   0.957
 3064SOL     OW11545   4.074   4.622   1.804
 3064SOL    HW111546   4.150   4.666   1.852
 3064SOL    HW211547   4.109   4.575   1.722
 3065SOL     OW11548   5.027   4.562   0.042
 3065SOL    HW111549   5.061   4.469   0.057
 3065SOL    HW211550   5.045   4.589  -0.053
 3066SOL     OW11551   4.043   4.534   0.949
 3066SOL    HW111552   4.136   4.570   0.954
 3066SOL    HW211553   4.037   4.449   1.001
 3067SOL     OW11554   4.884   3.931   1.477
 3067SOL    HW111555   4.884   3.995   1.554
 3067SOL    HW211556   4.912   3.979   1.394
 3068SOL     OW11557   4.726   4.520   1.238
 3068SOL    HW111558   4.767   4.488   1.324
 3068SOL    HW211559   4.630   4.493   1.235
 3069SOL     OW11560   3.913   4.244   1.722
 3069SOL    HW111561   3.972   4.204   1.652
 3069SOL    HW211562   3.855   4.315   1.681
 3070SOL     OW11563   4.539   4.296   0.325
 3070SOL    HW111564   4.546   4.207   0.279
 3070SOL    HW211565   4.445   4.330   0.317
 3071SOL     OW11566   4.395   4.188   1.269
 3071SOL    HW111567   4.361   4.099   1.239
 3071SOL    HW211568   4.421   4.242   1.189
 3072SOL     OW11569   3.807   4.982   1.022
 3072SOL    HW111570   3.802   4.981   1.122
 3072SOL    HW211571   3.724   4.941   0.984
 3073SOL     OW11572   4.627   3.810   0.133
 3073SOL    HW111573   4.678   3.811   0.047
 3073SOL    HW211574   4.683   3.768   0.204
 3074SOL     OW11575   5.004   4.651   0.672
 3074SOL    HW111576   5.064   4.570   0.674
 3074SOL    HW211577   5.044   4.720   0.612
 3075SOL     OW11578   4.554   4.997   1.422
 3075SOL    HW111579   4.549   5.030   1.517
 3075SOL    HW211580   4.468   5.016   1.376
 3076SOL     OW11581   4.546   4.726   1.372
 3076SOL    HW111582   4.586   4.725   1.280
 3076SOL    HW211583   4.556   4.818   1.412
 3077SOL     OW11584   4.640   4.634   0.291
 3077SOL    HW111585   4.703   4.672   0.223
 3077SOL    HW211586   4.680   4.551   0.330
 3078SOL     OW11587   4.096   5.012   1.490
 3078SOL    HW111588   4.083   5.105   1.456
 3078SOL    HW211589   4.012   4.960   1.477
 3079SOL     OW11590   4.738   3.960   0.971
 3079SOL    HW111591   4.730   3.924   0.878
 3079SOL    HW211592   4.736   3.884   1.036
 3080SOL     OW11593   4.337   4.566   1.431
 3080SOL    HW111594   4.393   4.647   1.414
 3080SOL    HW211595   4.396   4.486   1.434
 3081SOL     OW11596   4.318   4.469   0.652
 3081SOL    HW111597   4.368   4.554   0.633
 3081SOL    HW211598   4.230   4.471   0.604
 3082SOL     OW11599   4.807   4.708   0.087
 3082SOL    HW111600   4.784   4.761   0.005
 3082SOL    HW211601   4.888   4.652   0.068
 3083SOL     OW11602   3.803   4.964   0.653
 3083SOL    HW111603   3.802   4.917   0.741
 3083SOL    HW211604   3.885   4.936   0.602
 3084SOL     OW11605   4.152   4.148   0.520
 3084SOL    HW111606   4.182   4.076   0.458
 3084SOL    HW211607   4.113   4.108   0.603
 3085SOL     OW11608   4.041   4.271   1.280
 3085SOL    HW111609   4.079   4.212   1.352
 3085SOL    HW211610   4.081   4.245   1.192
 3086SOL     OW11611   4.725   3.758   1.154
 3086SOL    HW111612   4.662   3.686   1.123
 3086SOL    HW211613   4.818   3.722   1.154
 3087SOL     OW11614   3.954   4.352   1.975
 3087SOL    HW111615   3.861   4.350   2.012
 3087SOL    HW211616   3.955   4.313   1.883
 3088SOL     OW11617   3.949   3.999   2.858
 3088SOL    HW111618   3.984   3.982   2.950
 3088SOL    HW211619   3.861   3.954   2.846
 3089SOL     OW11620   3.743   4.092   2.509
 3089SOL    HW111621   3.661   4.135   2.548
 3089SOL    HW211622   3.715   4.019   2.446
 3090SOL     OW11623   4.293   4.999   3.027
 3090SOL    HW111624   4.200   4.992   2.990
 3090SOL    HW211625   4.304   5.088   3.071
 3091SOL     OW11626   4.859   4.427   2.579
 3091SOL    HW111627   4.916   4.505   2.554
 3091SOL    HW211628   4.799   4.453   2.655
 3092SOL     OW11629   4.492   4.868   2.885
 3092SOL    HW111630   4.414   4.885   2.945
 3092SOL    HW211631   4.526   4.955   2.849
 3093SOL     OW11632   4.574   4.522   3.685
 3093SOL    HW111633   4.570   4.598   3.750
 3093SOL    HW211634   4.596   4.558   3.594
 3094SOL     OW11635   4.409   4.736   2.527
 3094SOL    HW111636   4.478   4.720   2.597
 3094SOL    HW211637   4.336   4.793   2.565
 3095SOL     OW11638   4.410   4.885   3.665
 3095SOL    HW111639   4.470   4.964   3.679
 3095SOL    HW211640   4.324   4.916   3.624
 3096SOL     OW11641   4.059   5.159   2.923
 3096SOL    HW111642   3.981   5.128   2.870
 3096SOL    HW211643   4.117   5.217   2.866
 3097SOL     OW11644   3.964   4.815   2.748
 3097SOL    HW111645   3.978   4.731   2.800
 3097SOL    HW211646   3.909   4.879   2.803
 3098SOL     OW11647   4.330   4.688   1.985
 3098SOL    HW111648   4.337   4.772   1.931
 3098SOL    HW211649   4.376   4.701   2.073
 3099SOL     OW11650   3.846   4.367   2.425
 3099SOL    HW111651   3.801   4.279   2.442
 3099SOL    HW211652   3.845   4.421   2.509
 3100SOL     OW11653   5.017   4.952   3.285
 3100SOL    HW111654   5.054   4.879   3.227
 3100SOL    HW211655   5.069   4.957   3.370
 3101SOL     OW11656   3.921   4.700   3.126
 3101SOL    HW111657   4.010   4.655   3.112
 3101SOL    HW211658   3.848   4.635   3.107
 3102SOL     OW11659   4.041   3.975   3.663
 3102SOL    HW111660   4.112   4.046   3.669
 3102SOL    HW211661   3.953   4.014   3.691
 3103SOL     OW11662   4.322   4.453   2.132
 3103SOL    HW111663   4.346   4.522   2.064
 3103SOL    HW211664   4.244   4.486   2.186
 3104SOL     OW11665   5.005   4.069   2.806
 3104SOL    HW111666   4.919   4.019   2.793
 3104SOL    HW211667   5.067   4.015   2.862
 3105SOL     OW11668   4.531   4.329   3.327
 3105SOL    HW111669   4.484   4.326   3.416
 3105SOL    HW211670   4.480   4.274   3.261
 3106SOL     OW11671   4.697   4.614   3.434
 3106SOL    HW111672   4.743   4.530   3.405
 3106SOL    HW211673   4.641   4.648   3.359
 3107SOL     OW11674   4.715   4.134   3.104
 3107SOL    HW111675   4.638   4.168   3.158
 3107SOL    HW211676   4.681   4.083   3.025
 3108SOL     OW11677   4.765   4.425   2.291
 3108SOL    HW111678   4.791   4.421   2.387
 3108SOL    HW211679   4.680   4.374   2.277
 3109SOL     OW11680   3.800   4.535   2.651
 3109SOL    HW111681   3.899   4.523   2.660
 3109SOL    HW211682   3.776   4.630   2.672
 3110SOL     OW11683   4.274   3.920   2.747
 3110SOL    HW111684   4.269   3.915   2.847
 3110SOL    HW211685   4.276   4.016   2.718
 3111SOL     OW11686   4.045   4.667   2.104
 3111SOL    HW111687   4.127   4.706   2.062
 3111SOL    HW211688   4.018   4.585   2.055
 3112SOL     OW11689   4.106   4.424   2.342
 3112SOL    HW111690   4.151   4.334   2.339
 3112SOL    HW211691   4.012   4.413   2.375
 3113SOL     OW11692   4.338   3.846   1.979
 3113SOL    HW111693   4.436   3.824   1.986
 3113SOL    HW211694   4.307   3.829   1.886
 3114SOL     OW11695   4.505   3.988   3.611
 3114SOL    HW111696   4.572   3.927   3.654
 3114SOL    HW211697   4.432   4.007   3.676
 3115SOL     OW11698   4.527   5.126   2.786
 3115SOL    HW111699   4.617   5.140   2.744
 3115SOL    HW211700   4.456   5.128   2.715
 3116SOL     OW11701   4.646   4.227   2.761
 3116SOL    HW111702   4.621   4.218   2.665
 3116SOL    HW211703   4.694   4.145   2.792
 3117SOL     OW11704   5.158   4.912   1.903
 3117SOL    HW111705   5.190   4.836   1.960
 3117SOL    HW211706   5.066   4.939   1.933
 3118SOL     OW11707   4.021   3.759   2.033
 3118SOL    HW111708   4.070   3.843   2.012
 3118SOL    HW211709   4.083   3.694   2.078
 3119SOL     OW11710   4.659   3.960   2.342
 3119SOL    HW111711   4.611   4.001   2.264
 3119SOL    HW211712   4.758   3.958   2.323
 3120SOL     OW11713   4.800   4.407   3.326
 3120SOL    HW111714   4.720   4.346   3.329
 3120SOL    HW211715   4.881   4.354   3.302
 3121SOL     OW11716   4.183   4.876   2.603
 3121SOL    HW111717   4.112   4.849   2.668
 3121SOL    HW211718   4.157   4.848   2.510
 3122SOL     OW11719   4.285   3.946   3.009
 3122SOL    HW111720   4.323   3.862   3.046
 3122SOL    HW211721   4.197   3.965   3.053
 3123SOL     OW11722   4.590   4.178   2.504
 3123SOL    HW111723   4.558   4.250   2.442
 3123SOL    HW211724   4.614   4.097   2.451
 3124SOL     OW11725   4.741   3.763   2.615
 3124SOL    HW111726   4.669   3.768   2.546
 3124SOL    HW211727   4.717   3.694   2.684
 3125SOL     OW11728   4.251   3.980   2.190
 3125SOL    HW111729   4.278   3.921   2.115
 3125SOL    HW211730   4.251   4.075   2.159
 3126SOL     OW11731   4.639   3.813   3.264
 3126SOL    HW111732   4.664   3.793   3.169
 3126SOL    HW211733   4.711   3.869   3.306
 3127SOL     OW11734   4.704   4.840   3.581
 3127SOL    HW111735   4.605   4.846   3.591
 3127SOL    HW211736   4.727   4.760   3.525
 3128SOL     OW11737   4.429   4.774   2.230
 3128SOL    HW111738   4.415   4.781   2.329
 3128SOL    HW211739   4.513   4.723   2.212
 3129SOL     OW11740   4.134   4.537   3.113
 3129SOL    HW111741   4.220   4.549   3.163
 3129SOL    HW211742   4.092   4.450   3.140
 3130SOL     OW11743   4.998   4.110   3.124
 3130SOL    HW111744   5.019   4.184   3.188
 3130SOL    HW211745   4.909   4.127   3.081
 3131SOL     OW11746   4.091   4.824   2.363
 3131SOL    HW111747   4.084   4.907   2.307
 3131SOL    HW211748   4.095   4.744   2.303
 3132SOL     OW11749   4.290   4.261   2.727
 3132SOL    HW111750   4.302   4.327   2.653
 3132SOL    HW211751   4.336   4.295   2.810
 3133SOL     OW11752   4.976   5.072   2.250
 3133SOL    HW111753   5.026   5.149   2.290
 3133SOL    HW211754   4.881   5.074   2.282
 3134SOL     OW11755   4.297   4.594   2.891
 3134SOL    HW111756   4.341   4.683   2.882
 3134SOL    HW211757   4.234   4.594   2.968
 3135SOL     OW11758   5.084   4.586   2.907
 3135SOL    HW111759   5.009   4.586   2.841
 3135SOL    HW211760   5.121   4.494   2.916
 3136SOL     OW11761   4.031   3.937   3.093
 3136SOL    HW111762   4.008   3.974   3.183
 3136SOL    HW211763   4.001   3.842   3.087
 3137SOL     OW11764   4.456   4.358   2.926
 3137SOL    HW111765   4.515   4.332   2.850
 3137SOL    HW211766   4.428   4.454   2.915
 3138SOL     OW11767   5.346   4.091   2.236
 3138SOL    HW111768   5.348   4.015   2.300
 3138SOL    HW211769   5.298   4.168   2.276
 3139SOL     OW11770   4.747   4.490   2.828
 3139SOL    HW111771   4.762   4.511   2.924
 3139SOL    HW211772   4.717   4.395   2.819
 3140SOL     OW11773   4.074   4.622   3.666
 3140SOL    HW111774   4.150   4.666   3.714
 3140SOL    HW211775   4.109   4.575   3.584
 3141SOL     OW11776   4.043   4.534   2.811
 3141SOL    HW111777   4.136   4.570   2.816
 3141SOL    HW211778   4.037   4.449   2.863
 3142SOL     OW11779   4.063   4.233   2.868
 3142SOL    HW111780   4.011   4.150   2.851
 3142SOL    HW211781   4.140   4.238   2.804
 3143SOL     OW11782   4.862   4.104   3.540
 3143SOL    HW111783   4.817   4.167   3.604
 3143SOL    HW211784   4.955   4.135   3.523
 3144SOL     OW11785   4.884   3.931   3.339
 3144SOL    HW111786   4.884   3.995   3.416
 3144SOL    HW211787   4.912   3.979   3.256
 3145SOL     OW11788   3.732   5.050   2.062
 3145SOL    HW111789   3.639   5.071   2.031
 3145SOL    HW211790   3.742   4.951   2.075
 3146SOL     OW11791   4.726   4.520   3.100
 3146SOL    HW111792   4.767   4.488   3.186
 3146SOL    HW211793   4.630   4.493   3.097
 3147SOL     OW11794   3.764   4.268   2.976
 3147SOL    HW111795   3.849   4.235   2.935
 3147SOL    HW211796   3.777   4.283   3.074
 3148SOL     OW11797   4.539   4.296   2.187
 3148SOL    HW111798   4.546   4.207   2.141
 3148SOL    HW211799   4.445   4.330   2.179
 3149SOL     OW11800   4.395   4.188   3.131
 3149SOL    HW111801   4.361   4.099   3.101
 3149SOL    HW211802   4.421   4.242   3.051
 3150SOL     OW11803   4.197   4.224   2.053
 3150SOL    HW111804   4.258   4.304   2.057
 3150SOL    HW211805   4.102   4.255   2.060
 3151SOL     OW11806   3.883   4.861   3.328
 3151SOL    HW111807   3.905   4.800   3.404
 3151SOL    HW211808   3.893   4.812   3.242
 3152SOL     OW11809   5.071   4.783   3.096
 3152SOL    HW111810   5.095   4.720   3.022
 3152SOL    HW211811   4.981   4.823   3.078
 3153SOL     OW11812   3.807   4.982   2.884
 3153SOL    HW111813   3.802   4.981   2.984
 3153SOL    HW211814   3.724   4.941   2.846
 3154SOL     OW11815   5.004   4.651   2.534
 3154SOL    HW111816   5.064   4.570   2.536
 3154SOL    HW211817   5.044   4.720   2.474
 3155SOL     OW11818   4.554   4.997   3.284
 3155SOL    HW111819   4.549   5.030   3.379
 3155SOL    HW211820   4.468   5.016   3.238
 3156SOL     OW11821   3.987   4.050   2.582
 3156SOL    HW111822   3.908   4.101   2.548
 3156SOL    HW211823   3.978   4.035   2.680
 3157SOL     OW11824   4.918   5.336   1.893
 3157SOL    HW111825   4.924   5.243   1.930
 3157SOL    HW211826   4.859   5.336   1.813
 3158SOL     OW11827   4.546   4.726   3.234
 3158SOL    HW111828   4.586   4.725   3.142
 3158SOL    HW211829   4.556   4.818   3.274
 3159SOL     OW11830   4.640   4.634   2.153
 3159SOL    HW111831   4.703   4.672   2.085
 3159SOL    HW211832   4.680   4.551   2.192
 3160SOL     OW11833   4.096   5.012   3.352
 3160SOL    HW111834   4.083   5.105   3.318
 3160SOL    HW211835   4.012   4.960   3.339
 3161SOL     OW11836   4.763   4.822   2.558
 3161SOL    HW111837   4.693   4.775   2.612
 3161SOL    HW211838   4.822   4.754   2.515
 3162SOL     OW11839   4.738   3.960   2.833
 3162SOL    HW111840   4.730   3.924   2.740
 3162SOL    HW211841   4.736   3.884   2.898
 3163SOL     OW11842   3.829   4.737   3.588
 3163SOL    HW111843   3.752   4.704   3.642
 3163SOL    HW211844   3.914   4.707   3.630
 3164SOL     OW11845   3.799   4.069   1.895
 3164SOL    HW111846   3.707   4.041   1.866
 3164SOL    HW211847   3.830   4.146   1.839
 3165SOL     OW11848   3.796   3.890   2.180
 3165SOL    HW111849   3.779   3.973   2.126
 3165SOL    HW211850   3.886   3.853   2.158
 3166SOL     OW11851   4.337   4.566   3.293
 3166SOL    HW111852   4.393   4.647   3.276
 3166SOL    HW211853   4.396   4.486   3.296
 3167SOL     OW11854   5.174   4.944   3.495
 3167SOL    HW111855   5.165   4.934   3.594
 3167SOL    HW211856   5.270   4.937   3.469
 3168SOL     OW11857   4.949   4.049   2.311
 3168SOL    HW111858   5.014   3.975   2.300
 3168SOL    HW211859   4.969   4.099   2.395
 3169SOL     OW11860   4.318   4.469   2.514
 3169SOL    HW111861   4.368   4.554   2.495
 3169SOL    HW211862   4.230   4.471   2.466
 3170SOL     OW11863   4.583   4.680   2.723
 3170SOL    HW111864   4.637   4.611   2.771
 3170SOL    HW211865   4.551   4.749   2.789
 3171SOL     OW11866   3.803   4.964   2.515
 3171SOL    HW111867   3.802   4.917   2.603
 3171SOL    HW211868   3.885   4.936   2.464
 3172SOL     OW11869   4.152   4.148   2.382
 3172SOL    HW111870   4.182   4.076   2.320
 3172SOL    HW211871   4.113   4.108   2.465
 3173SOL     OW11872   4.725   3.758   3.016
 3173SOL    HW111873   4.662   3.686   2.985
 3173SOL    HW211874   4.818   3.722   3.016
 3174SOL     OW11875   4.494   5.054   2.163
 3174SOL    HW111876   4.448   4.967   2.180
 3174SOL    HW211877   4.585   5.051   2.204
 3175SOL     OW11878   5.076   3.776   2.030
 3175SOL    HW111879   5.111   3.735   1.946
 3175SOL    HW211880   4.986   3.738   2.050
 3176SOL     OW11881   3.763   4.801   2.162
 3176SOL    HW111882   3.862   4.790   2.153
 3176SOL    HW211883   3.723   4.715   2.194
 3177SOL     OW11884   3.954   4.352   3.837
 3177SOL    HW111885   3.861   4.350   3.874
 3177SOL    HW211886   3.955   4.313   3.745
 3178SOL     OW11887   3.743   4.092   4.371
 3178SOL    HW111888   3.661   4.135   4.410
 3178SOL    HW211889   3.715   4.019   4.308
 3179SOL     OW11890   4.293   4.999   4.889
 3179SOL    HW111891   4.200   4.992   4.852
 3179SOL    HW211892   4.304   5.088   4.933
 3180SOL     OW11893   4.859   4.427   4.441
 3180SOL    HW111894   4.916   4.505   4.416
 3180SOL    HW211895   4.799   4.453   4.517
 3181SOL     OW11896   4.492   4.868   4.747
 3181SOL    HW111897   4.414   4.885   4.807
 3181SOL    HW211898   4.526   4.955   4.711
 3182SOL     OW11899   4.409   4.736   4.389
 3182SOL    HW111900   4.478   4.720   4.459
 3182SOL    HW211901   4.336   4.793   4.427
 3183SOL     OW11902   4.059   5.159   4.785
 3183SOL    HW111903   3.981   5.128   4.732
 3183SOL    HW211904   4.117   5.217   4.728
 3184SOL     OW11905   3.964   4.815   4.610
 3184SOL    HW111906   3.978   4.731   4.662
 3184SOL    HW211907   3.909   4.879   4.665
 3185SOL     OW11908   4.330   4.688   3.847
 3185SOL    HW111909   4.337   4.772   3.793
 3185SOL    HW211910   4.376   4.701   3.935
 3186SOL     OW11911   3.846   4.367   4.287
 3186SOL    HW111912   3.801   4.279   4.304
 3186SOL    HW211913   3.845   4.421   4.371
 3187SOL     OW11914   5.005   4.069   4.668
 3187SOL    HW111915   4.919   4.019   4.655
 3187SOL    HW211916   5.067   4.015   4.724
 3188SOL     OW11917   4.715   4.134   4.966
 3188SOL    HW111918   4.638   4.168   5.020
 3188SOL    HW211919   4.681   4.083   4.887
 3189SOL     OW11920   4.765   4.425   4.153
 3189SOL    HW111921   4.791   4.421   4.249
 3189SOL    HW211922   4.680   4.374   4.139
 3190SOL     OW11923   3.800   4.535   4.513
 3190SOL    HW111924   3.899   4.523   4.522
 3190SOL    HW211925   3.776   4.630   4.534
 3191SOL     OW11926   4.274   3.920   4.609
 3191SOL    HW111927   4.269   3.915   4.709
 3191SOL    HW211928   4.276   4.016   4.580
 3192SOL     OW11929   4.045   4.667   3.966
 3192SOL    HW111930   4.127   4.706   3.924
 3192SOL    HW211931   4.018   4.585   3.917
 3193SOL     OW11932   4.106   4.424   4.204
 3193SOL    HW111933   4.151   4.334   4.201
 3193SOL    HW211934   4.012   4.413   4.237
 3194SOL     OW11935   4.338   3.846   3.841
 3194SOL    HW111936   4.436   3.824   3.848
 3194SOL    HW211937   4.307   3.829   3.748
 3195SOL     OW11938   4.527   5.126   4.648
 3195SOL    HW111939   4.617   5.140   4.606
 3195SOL    HW211940   4.456   5.128   4.577
 3196SOL     OW11941   4.263   3.788   4.236
 3196SOL    HW111942   4.182   3.789   4.294
 3196SOL    HW211943   4.266   3.871   4.181
 3197SOL     OW11944   5.158   4.912   3.765
 3197SOL    HW111945   5.190   4.836   3.822
 3197SOL    HW211946   5.066   4.939   3.795
 3198SOL     OW11947   4.021   3.759   3.895
 3198SOL    HW111948   4.070   3.843   3.874
 3198SOL    HW211949   4.083   3.694   3.940
 3199SOL     OW11950   4.183   4.876   4.465
 3199SOL    HW111951   4.112   4.849   4.530
 3199SOL    HW211952   4.157   4.848   4.372
 3200SOL     OW11953   4.756   4.273   3.740
 3200SOL    HW111954   4.715   4.355   3.701
 3200SOL    HW211955   4.820   4.299   3.813
 3201SOL     OW11956   4.285   3.946   4.871
 3201SOL    HW111957   4.323   3.862   4.908
 3201SOL    HW211958   4.197   3.965   4.915
 3202SOL     OW11959   4.590   4.178   4.366
 3202SOL    HW111960   4.558   4.250   4.304
 3202SOL    HW211961   4.614   4.097   4.313
 3203SOL     OW11962   4.741   3.763   4.477
 3203SOL    HW111963   4.669   3.768   4.408
 3203SOL    HW211964   4.717   3.694   4.546
 3204SOL     OW11965   4.251   3.980   4.052
 3204SOL    HW111966   4.278   3.921   3.977
 3204SOL    HW211967   4.251   4.075   4.021
 3205SOL     OW11968   4.429   4.774   4.092
 3205SOL    HW111969   4.415   4.781   4.191
 3205SOL    HW211970   4.513   4.723   4.074
 3206SOL     OW11971   4.091   4.824   4.225
 3206SOL    HW111972   4.084   4.907   4.169
 3206SOL    HW211973   4.095   4.744   4.165
 3207SOL     OW11974   5.084   4.586   4.769
 3207SOL    HW111975   5.009   4.586   4.703
 3207SOL    HW211976   5.121   4.494   4.778
 3208SOL     OW11977   4.933   4.249   3.999
 3208SOL    HW111978   4.946   4.165   4.053
 3208SOL    HW211979   4.904   4.323   4.059
 3209SOL     OW11980   4.031   3.937   4.955
 3209SOL    HW111981   4.008   3.974   5.045
 3209SOL    HW211982   4.001   3.842   4.949
 3210SOL     OW11983   4.031   3.787   4.342
 3210SOL    HW111984   4.020   3.881   4.375
 3210SOL    HW211985   4.026   3.724   4.419
 3211SOL     OW11986   5.346   4.091   4.098
 3211SOL    HW111987   5.348   4.015   4.162
 3211SOL    HW211988   5.298   4.168   4.138
 3212SOL     OW11989   4.747   4.490   4.690
 3212SOL    HW111990   4.762   4.511   4.786
 3212SOL    HW211991   4.717   4.395   4.681
 3213SOL     OW11992   5.027   4.562   3.766
 3213SOL    HW111993   5.061   4.469   3.781
 3213SOL    HW211994   5.045   4.589   3.671
 3214SOL     OW11995   3.732   5.050   3.924
 3214SOL    HW111996   3.639   5.071   3.893
 3214SOL    HW211997   3.742   4.951   3.937
 3215SOL     OW11998   4.726   4.520   4.962
 3215SOL    HW111999   4.767   4.488   5.048
 3215SOL    HW212000   4.630   4.493   4.959
 3216SOL     OW12001   4.395   4.188   4.993
 3216SOL    HW112002   4.361   4.099   4.963
 3216SOL    HW212003   4.421   4.242   4.913
 3217SOL     OW12004   4.197   4.224   3.915
 3217SOL    HW112005   4.258   4.304   3.919
 3217SOL    HW212006   4.102   4.255   3.922
 3218SOL     OW12007   5.071   4.783   4.958
 3218SOL    HW112008   5.095   4.720   4.884
 3218SOL    HW212009   4.981   4.823   4.940
 3219SOL     OW12010   3.807   4.982   4.746
 3219SOL    HW112011   3.802   4.981   4.846
 3219SOL    HW212012   3.724   4.941   4.708
 3220SOL     OW12013   5.004   4.651   4.396
 3220SOL    HW112014   5.064   4.570   4.398
 3220SOL    HW212015   5.044   4.720   4.336
 3221SOL     OW12016   4.554   4.997   5.146
 3221SOL    HW112017   4.549   5.030   5.241
 3221SOL    HW212018   4.468   5.016   5.100
 3222SOL     OW12019   3.987   4.050   4.444
 3222SOL    HW112020   3.908   4.101   4.410
 3222SOL    HW212021   3.978   4.035   4.542
 3223SOL     OW12022   4.918   5.336   3.755
 3223SOL    HW112023   4.924   5.243   3.792
 3223SOL    HW212024   4.859   5.336   3.675
 3224SOL     OW12025   4.546   4.726   5.096
 3224SOL    HW112026   4.586   4.725   5.004
 3224SOL    HW212027   4.556   4.818   5.136
 3225SOL     OW12028   4.738   3.960   4.695
 3225SOL    HW112029   4.730   3.924   4.602
 3225SOL    HW212030   4.736   3.884   4.760
 3226SOL     OW12031   3.799   4.069   3.757
 3226SOL    HW112032   3.707   4.041   3.728
 3226SOL    HW212033   3.830   4.146   3.701
 3227SOL     OW12034   3.796   3.890   4.042
 3227SOL    HW112035   3.779   3.973   3.988
 3227SOL    HW212036   3.886   3.853   4.020
 3228SOL     OW12037   4.583   4.680   4.585
 3228SOL    HW112038   4.637   4.611   4.633
 3228SOL    HW212039   4.551   4.749   4.651
 3229SOL     OW12040   4.807   4.708   3.811
 3229SOL    HW112041   4.784   4.761   3.729
 3229SOL    HW212042   4.888   4.652   3.792
 3230SOL     OW12043   3.803   4.964   4.377
 3230SOL    HW112044   3.802   4.917   4.465
 3230SOL    HW212045   3.885   4.936   4.326
 3231SOL     OW12046   4.152   4.148   4.244
 3231SOL    HW112047   4.182   4.076   4.182
 3231SOL    HW212048   4.113   4.108   4.327
 3232SOL     OW12049   4.725   3.758   4.878
 3232SOL    HW112050   4.662   3.686   4.847
 3232SOL    HW212051   4.818   3.722   4.878
 3233SOL     OW12052   5.076   3.776   3.892
 3233SOL    HW112053   5.111   3.735   3.808
 3233SOL    HW212054   4.986   3.738   3.912
 3234SOL     OW12055   3.763   4.801   4.024
 3234SOL    HW112056   3.862   4.790   4.015
 3234SOL    HW212057   3.723   4.715   4.056
   5.08970   5.08970   5.08970
