[ atomtypes ]
;name  at.num   mass      charge  ptype       c6           c12
  LO     8    15.9994      0.000     A  2.36400e-03 1.59000e-06 ;carbonyl O, OPLS
  LOM    8    15.9994      0.000     A  2.36400e-03 1.59000e-06 ;carboxyl O, OPLS
  LNL    7    14.0067      0.000     A  3.35300e-03 3.95100e-06 ;Nitrogen, OPLS
   LC    6    12.0110      0.000     A  4.88800e-03 1.35900e-05 ;Carbonyl C, OPLS
  LH1    6    13.0190      0.000     A  4.03100e-03 1.21400e-05 ;CH1, OPLS
  LH2    6    14.0270      0.000     A  7.00200e-03 2.48300e-05 ;CH2, OPLS
   LP   15    30.9738      0.000     A  9.16000e-03 2.50700e-05 ;phosphor, OPLS
  LOS    8    15.9994      0.000     A  2.56300e-03 1.86800e-06 ;ester oxygen, OPLS
  LP2    6    14.0270      0.000     A  5.87400e-03 2.26500e-05 ;RB CH2, Bergers LJ
  LP3    6    15.0350      0.000     A  8.77700e-03 3.38500e-05 ;RB CH3, Bergers LJ
  LC3    6    15.0350      0.000     A  9.35700e-03 3.60900e-05 ;CH3, OPLS
  LC2    6    14.0270      0.000     A  5.94700e-03 1.79000e-05 ;CH2, OPLS   
    O    8 	0.000      0.000     A  0.0022619536       1e-06
   OM    8 	0.000      0.000     A  0.0022619536  7.4149321e-07
   OA    8 	0.000      0.000     A  0.0022619536  1.505529e-06
   OE    8 	0.000      0.000     A  0.0022619536    1.21e-06
   OW    8 	0.000      0.000     A  0.0026173456  2.634129e-06
    N    7 	0.000      0.000     A  0.0024364096  2.319529e-06
   NT    7 	0.000      0.000     A  0.0024364096  5.0625e-06
   NL    7 	0.000      0.000     A  0.0024364096  2.319529e-06
   NR    7 	0.000      0.000     A  0.0024364096  3.389281e-06
   NZ    7 	0.000      0.000     A  0.0024364096  2.319529e-06
   NE    7 	0.000      0.000     A  0.0024364096  2.319529e-06
    C    6 	0.000      0.000     A  0.0023406244  4.937284e-06
  CH0    6 	0.000      0.000     A  0.0023970816  0.0002053489
  CH1    6 	0.000      0.000     A  0.00606841  9.70225e-05
  CH2    6 	0.000      0.000     A  0.0074684164  3.3965584e-05
  CH3    6 	0.000      0.000     A  0.0096138025  2.6646244e-05
  CH4    6 	0.000      0.000     A  0.01317904  3.4363044e-05
 CH2r    6 	0.000      0.000     A  0.0073342096  2.8058209e-05
  CR1    6 	0.000      0.000     A  0.0055130625  1.5116544e-05
   HC    1 	0.000      0.000     A   8.464e-05  1.5129e-08
    H    1 	0.000      0.000     A           0           0
  DUM    0 	0.000      0.000     A           0           0
    S   16  	0.000      0.000     A  0.0099840064  1.3075456e-05
 CU1+   29  	0.000      0.000     A  0.0004182025  5.1251281e-09
 CU2+   29  	0.000      0.000     A  0.0004182025  5.1251281e-09
   FE   26  	0.000      0.000     A           0           0
 ZN2+   30  	0.000      0.000     A  0.0004182025  9.4400656e-09
 MG2+   12  	0.000      0.000     A  6.52864e-05  3.4082244e-09
 CA2+   20  	0.000      0.000     A  0.00100489  4.9801249e-07
    P   15  	0.000      0.000     A  0.01473796  2.2193521e-05
   AR   18  	0.000      0.000     A  0.0062647225  9.847044e-06
    F    9 	0.000      0.000     A  0.0011778624  7.6073284e-07
   CL   17  	0.000      0.000     A  0.0087647044  1.5295921e-05
   BR   35  	0.000      0.000     A  0.02765569  6.5480464e-05
 CMet    6 	0.000      0.000     A  0.0088755241   1.936e-05
 OMet    8 	0.000      0.000     A  0.0022619536  2.325625e-06
  NA+   11  	0.000      0.000     A  7.2063121e-05  2.1025e-08
  CL-   17  	0.000      0.000     A  0.01380625  0.0001069156
 CChl    6 	0.000      0.000     A  0.0026308693  4.064256e-06
CLChl   17  	0.000      0.000     A  0.0083066819  1.3764842e-05
 HChl    1 	0.000      0.000     A  3.76996e-05  4.2999495e-09
SDmso   16  	0.000      0.000     A  0.010561673  2.149806e-05
CDmso    6 	0.000      0.000     A  0.0096138025  2.6646244e-05
ODmso    8 	0.000      0.000     A  0.0022707131  7.5144626e-07
 CCl4    6 	0.000      0.000     A  0.0026308693  7.5999462e-06
CLCl4   17  	0.000      0.000     A  0.0076040144  1.2767758e-05
 FTFE    9 	0.000      0.000     A  0.0011778624       1e-06
 CTFE    6 	0.000      0.000     A  0.0023406244  3.374569e-06
CHTFE    6 	0.000      0.000     A  0.0071048041  2.5775929e-05
 OTFE    8 	0.000      0.000     A  0.0022619536  1.505529e-06
CUrea    6 	0.000      0.000     A  0.0048868488  1.3589545e-05
OUrea    8 	0.000      0.000     A  0.0023639044  1.5898688e-06
NUrea    7 	0.000      0.000     A  0.0033527574  3.9509513e-06
   SI   14  	0.000      0.000     A  0.01473796  2.2193521e-05
 MNH3    0 	0.000      0.000     A  0.0           0.0
   MW    0 	0.000      0.000     D  0.0           0.0


; --- Appended from ATB 54a7 [ atomtypes ] ---
 CH3p    6      0.000      0.000     A  0.0096138025  2.6646244e-05
    I    0      0.000      0.000     A    0.0455822   0.000148352
CLOpt    0      0.000      0.000     A   0.00674862   8.24838e-06
    B    0      0.000      0.000     A   0.00234062   4.93728e-06
   SE    0      0.000      0.000     A   0.00998401   1.30755e-05
 HS14    0      0.000      0.000     A            0             0
CLAro    0      0.000      0.000     A   0.00674862   8.24838e-06
BROpt    0      0.000      0.000     A    0.0342028   0.000120341
OEOpt    0      0.000      0.000     A   0.00308914   4.77422e-06
 NOpt    0      0.000      0.000     A   0.00826281     2.916e-05
 CAro    0      0.000      0.000     A   0.00234062   4.45632e-06
 CPos    0      0.000      0.000     A     0.002025         1e-06
 NPri    0      0.000      0.000     A     0.010816       4.9e-05
 NTer    0      0.000      0.000     A   0.00863041     2.025e-05
 OAlc    0      0.000      0.000     A   0.00177494      1.21e-06

[ nonbond_params ]
; i    j func          c6           c12
   LO    LO     1 2.36400e-03  1.59000e-06
   LO   LOM     1 2.36400e-03  1.59000e-06
   LO   LNL     1 2.81600e-03  2.50600e-06
   LO    LC     1 3.39900e-03  4.64800e-06
   LO   LH1     1 3.08700e-03  4.39300e-06
   LO   LH2     1 4.06900e-03  6.28300e-06
   LO    LP     1 4.65300e-03  6.31300e-06
   LO   LOS     1 2.46100e-03  1.72300e-06
   LO   LP2     1 3.72700e-03  6.00000e-06
   LO   LP3     1 4.55500e-03  7.33500e-06
   LO   LC3     1 4.70300e-03  7.57400e-06
   LO   LC2     1 3.74900e-03  5.33500e-06
  LOM   LOM     1 2.36400e-03  1.59000e-06
  LOM   LNL     1 2.81600e-03  2.50600e-06
  LOM    LC     1 3.39900e-03  4.64800e-06
  LOM   LH1     1 3.08700e-03  4.39300e-06
  LOM   LH2     1 4.06900e-03  6.28300e-06
  LOM    LP     1 4.65300e-03  6.31300e-06
  LOM   LOS     1 2.46100e-03  1.72300e-06
  LOM   LP2     1 3.72700e-03  6.00000e-06
  LOM   LP3     1 4.55500e-03  7.33500e-06
  LOM   LC3     1 4.70300e-03  7.57400e-06
  LOM   LC2     1 3.74900e-03  5.33500e-06
  LNL   LNL     1 3.35300e-03  3.95100e-06
  LNL    LC     1 4.04900e-03  7.32800e-06
  LNL   LH1     1 3.67700e-03  6.92500e-06
  LNL   LH2     1 4.84600e-03  9.90500e-06
  LNL    LP     1 5.54200e-03  9.95300e-06
  LNL   LOS     1 2.93200e-03  2.71700e-06
  LNL   LP2     1 4.43800e-03  9.46000e-06
  LNL   LP3     1 5.42500e-03  1.15600e-05
  LNL   LC3     1 5.60100e-03  1.19400e-05
  LNL   LC2     1 4.46600e-03  8.41100e-06
   LC    LC     1 4.88800e-03  1.35900e-05
   LC   LH1     1 4.43900e-03  1.28400e-05
   LC   LH2     1 5.85100e-03  1.83700e-05
   LC    LP     1 6.69100e-03  1.84600e-05
   LC   LOS     1 3.53900e-03  5.03800e-06
   LC   LP2     1 5.35900e-03  1.75400e-05
   LC   LP3     1 6.55000e-03  2.14500e-05
   LC   LC3     1 6.76300e-03  2.21500e-05
   LC   LC2     1 5.39100e-03  1.56000e-05
  LH1   LH1     1 4.03100e-03  1.21400e-05
  LH1   LH2     1 5.31300e-03  1.73600e-05
  LH1    LP     1 6.07700e-03  1.74400e-05
  LH1   LOS     1 3.21400e-03  4.76100e-06
  LH1   LP2     1 4.86600e-03  1.65800e-05
  LH1   LP3     1 5.94800e-03  2.02700e-05
  LH1   LC3     1 6.14200e-03  2.09300e-05
  LH1   LC2     1 4.89600e-03  1.47400e-05
  LH2   LH2     1 7.00200e-03  2.48300e-05
  LH2    LP     1 8.00900e-03  2.49500e-05
  LH2   LOS     1 4.23600e-03  6.81000e-06
  LH2   LP2     1 6.41400e-03  2.37100e-05
  LH2   LP3     1 7.83900e-03  2.89900e-05
  LH2   LC3     1 8.09500e-03  2.99300e-05
  LH2   LC2     1 6.45300e-03  2.10800e-05
   LP    LP     1 9.16000e-03  2.50700e-05
   LP   LOS     1 4.84500e-03  6.84200e-06
   LP   LP2     1 7.33500e-03  2.38300e-05
   LP   LP3     1 8.96600e-03  2.91300e-05
   LP   LC3     1 9.25800e-03  3.00800e-05
   LP   LC2     1 7.38100e-03  2.11900e-05
  LOS   LOS     1 2.56300e-03  1.86800e-06
  LOS   LP2     1 3.88000e-03  6.50400e-06
  LOS   LP3     1 4.74300e-03  7.95100e-06
  LOS   LC3     1 4.89700e-03  8.21000e-06
  LOS   LC2     1 3.90400e-03  5.78200e-06
  LP2   LP2     1 5.87400e-03  2.26500e-05
  LP2   LP3     1 7.18000e-03  2.76900e-05
  LP2   LC3     1 7.41400e-03  2.85900e-05
  LP2   LC2     1 5.91000e-03  2.01400e-05
  LP3   LP3     1 8.77700e-03  3.38500e-05
  LP3   LC3     1 9.06200e-03  3.49500e-05
  LP3   LC2     1 7.22400e-03  2.46200e-05
  LC3   LC3     1 9.35700e-03  3.60900e-05
  LC3   LC2     1 7.45900e-03  2.54200e-05
  LC2   LC2     1 5.94700e-03  1.79000e-05

;; lipid-SPC/SPCE interactions
   LO    OW    1 2.50200e-03  2.06700e-06
  LOM    OW    1 2.50200e-03  2.06700e-06
  LNL    OW    1 2.98000e-03  3.25900e-06
   LC    OW    1 3.59800e-03  6.04400e-06
  LH1    OW    1 3.26800e-03  5.71200e-06
  LH2    OW    1 4.30700e-03  8.17000e-06
   LP    OW    1 4.92600e-03  8.21000e-06
  LOS    OW    1 2.60500e-03  2.24100e-06
  LP2    OW    1 3.94400e-03  7.80300e-06
  LP3    OW    1 4.82100e-03  9.53900e-06
  LC3    OW    1 4.97800e-03  9.85000e-06
  LC2    OW    1 3.96900e-03  6.93800e-06

      OM        O  1  0.0022619536   8.611e-07
      OA        O  1  0.0022619536  1.38651e-06
      OA       OM  1  0.0022619536  2.258907e-06
      OE        O  1  0.0022619536     1.1e-06
      OE       OM  1  0.0022619536  9.4721e-07
      OE       OA  1  0.0022619536  1.505529e-06
      OW        O  1  0.0024331696  1.83399e-06
      OW       OM  1  0.0024331696  2.987943e-06
      OW       OA  1  0.0024331696  1.991421e-06
      OW       OE  1  0.0024331696  1.991421e-06
       N        O  1  0.0023475616  2.19559e-06
       N       OM  1  0.0023475616  3.577063e-06
       N       OA  1  0.0023475616  2.384061e-06
       N       OE  1  0.0023475616  2.384061e-06
       N       OW  1  0.0025252576  3.153489e-06
      NT        O  1  0.0023475616  2.5425e-06
      NT       OM  1  0.0023475616  4.14225e-06
      NT       OA  1  0.0023475616  2.76075e-06
      NT       OE  1  0.0023475616  2.76075e-06
      NT       OW  1  0.0025252576  3.65175e-06
      NT        N  1  0.0024364096  4.37175e-06
      NL        O  1  0.0023475616  3.46684e-06
      NL       OM  1  0.0023475616  9.412624e-06
      NL       OA  1  0.0023475616  3.764436e-06
      NL       OE  1  0.0023475616  3.764436e-06
      NL       OW  1  0.0025252576  4.979364e-06
      NL        N  1  0.0024364096  2.319529e-06
      NL       NT  1  0.0024364096   6.903e-06
      NR        O  1  0.0023475616  2.08033e-06
      NR       OM  1  0.0023475616  3.389281e-06
      NR       OA  1  0.0023475616  2.258907e-06
      NR       OE  1  0.0023475616  2.258907e-06
      NR       OW  1  0.0025252576  2.987943e-06
      NR        N  1  0.0024364096  3.577063e-06
      NR       NT  1  0.0024364096  4.14225e-06
      NR       NL  1  0.0024364096  5.648188e-06
      NZ        O  1  0.0023475616  2.42724e-06
      NZ       OM  1  0.0023475616  6.590064e-06
      NZ       OA  1  0.0023475616  2.635596e-06
      NZ       OE  1  0.0023475616  2.635596e-06
      NZ       OW  1  0.0025252576  3.486204e-06
      NZ        N  1  0.0024364096  2.319529e-06
      NZ       NT  1  0.0024364096   4.833e-06
      NZ       NL  1  0.0024364096  2.319529e-06
      NZ       NR  1  0.0024364096  3.954468e-06
      NE        O  1  0.0023475616  2.24192e-06
      NE       OM  1  0.0023475616  6.086912e-06
      NE       OA  1  0.0023475616  2.434368e-06
      NE       OE  1  0.0023475616  2.434368e-06
      NE       OW  1  0.0025252576  3.220032e-06
      NE        N  1  0.0024364096  2.319529e-06
      NE       NT  1  0.0024364096   4.464e-06
      NE       NL  1  0.0024364096  2.319529e-06
      NE       NR  1  0.0024364096  3.652544e-06
      NE       NZ  1  0.0024364096  2.319529e-06
       C        O  1  0.0023009528   2.222e-06
       C       OM  1  0.0023009528  1.9133642e-06
       C       OA  1  0.0023009528  2.4442e-06
       C       OE  1  0.0023009528  2.4442e-06
       C       OW  1  0.0024751208  3.606306e-06
       C        N  1  0.0023880368  3.384106e-06
       C       NT  1  0.0023880368  3.384106e-06
       C       NL  1  0.0023880368  3.384106e-06
       C       NR  1  0.0023880368  3.384106e-06
       C       NZ  1  0.0023880368  3.384106e-06
       C       NE  1  0.0023880368  3.384106e-06
     CH0        O  1  0.0023285376   1.433e-05
     CH0       OM  1  0.0023285376  1.2339563e-05
     CH0       OA  1  0.0023285376  1.5763e-05
     CH0       OE  1  0.0023285376  1.5763e-05
     CH0       OW  1  0.0025047936  2.325759e-05
     CH0        N  1  0.0024166656  2.182459e-05
     CH0       NT  1  0.0024166656  2.182459e-05
     CH0       NL  1  0.0024166656  2.182459e-05
     CH0       NR  1  0.0024166656  2.182459e-05
     CH0       NZ  1  0.0024166656  2.182459e-05
     CH0       NE  1  0.0024166656  2.182459e-05
     CH0        C  1  0.0023686848  3.184126e-05
     CH1        O  1  0.003704924    9.85e-06
     CH1       OM  1  0.003704924  8.481835e-06
     CH1       OA  1  0.003704924  1.0835e-05
     CH1       OE  1  0.003704924  1.0835e-05
     CH1       OW  1  0.003985364  1.598655e-05
     CH1        N  1  0.003845144  1.500155e-05
     CH1       NT  1  0.003845144  1.500155e-05
     CH1       NL  1  0.003845144  1.500155e-05
     CH1       NR  1  0.003845144  1.500155e-05
     CH1       NZ  1  0.003845144  1.500155e-05
     CH1       NE  1  0.003845144  1.500155e-05
     CH1        C  1  0.003768802  2.18867e-05
     CH1      CH0  1  0.003813984  0.0001411505
     CH2        O  1  0.0041101352   5.828e-06
     CH2       OM  1  0.0041101352  5.0184908e-06
     CH2       OA  1  0.0041101352  6.4108e-06
     CH2       OE  1  0.0041101352  6.4108e-06
     CH2       OW  1  0.0044212472  9.458844e-06
     CH2        N  1  0.0042656912  8.876044e-06
     CH2       NT  1  0.0042656912  8.876044e-06
     CH2       NL  1  0.0042656912  8.876044e-06
     CH2       NR  1  0.0042656912  8.876044e-06
     CH2       NZ  1  0.0042656912  8.876044e-06
     CH2       NE  1  0.0042656912  8.876044e-06
     CH2        C  1  0.0041809996  1.2949816e-05
     CH2      CH0  1  0.0042311232  8.351524e-05
     CH2      CH1  1  0.006732118  5.74058e-05
     CH3        O  1  0.004663258   5.162e-06
     CH3       OM  1  0.004663258  4.4449982e-06
     CH3       OA  1  0.004663258  5.6782e-06
     CH3       OE  1  0.004663258  5.6782e-06
     CH3       OW  1  0.005016238  8.377926e-06
     CH3        N  1  0.004839748  7.861726e-06
     CH3       NT  1  0.004839748  7.861726e-06
     CH3       NL  1  0.004839748  7.861726e-06
     CH3       NR  1  0.004839748  7.861726e-06
     CH3       NZ  1  0.004839748  7.861726e-06
     CH3       NE  1  0.004839748  7.861726e-06
     CH3        C  1  0.004743659  1.1469964e-05
     CH3      CH0  1  0.004800528  7.397146e-05
     CH3      CH1  1  0.007638095  5.08457e-05
     CH3      CH2  1  0.008473481  3.0084136e-05
     CH4        O  1  0.005459888   5.862e-06
     CH4       OM  1  0.005459888  5.0477682e-06
     CH4       OA  1  0.005459888  6.4482e-06
     CH4       OE  1  0.005459888  6.4482e-06
     CH4       OW  1  0.005873168  9.514026e-06
     CH4        N  1  0.005666528  8.927826e-06
     CH4       NT  1  0.005666528  8.927826e-06
     CH4       NL  1  0.005666528  8.927826e-06
     CH4       NR  1  0.005666528  8.927826e-06
     CH4       NZ  1  0.005666528  8.927826e-06
     CH4       NE  1  0.005666528  8.927826e-06
     CH4        C  1  0.005554024  1.3025364e-05
     CH4      CH0  1  0.005620608  8.400246e-05
     CH4      CH1  1  0.00894292  5.77407e-05
     CH4      CH2  1  0.009921016  3.4163736e-05
     CH4      CH3  1  0.01125614  3.0259644e-05
    CH2r        O  1  0.0040730384   5.297e-06
    CH2r       OM  1  0.0040730384  4.5612467e-06
    CH2r       OA  1  0.0040730384  5.8267e-06
    CH2r       OE  1  0.0040730384  5.8267e-06
    CH2r       OW  1  0.0043813424  8.597031e-06
    CH2r        N  1  0.0042271904  8.067331e-06
    CH2r       NT  1  0.0042271904  8.067331e-06
    CH2r       NL  1  0.0042271904  8.067331e-06
    CH2r       NR  1  0.0042271904  8.067331e-06
    CH2r       NZ  1  0.0042271904  8.067331e-06
    CH2r       NE  1  0.0042271904  8.067331e-06
    CH2r        C  1  0.0041432632  1.1769934e-05
    CH2r      CH0  1  0.0041929344  7.590601e-05
    CH2r      CH1  1  0.006671356  5.217545e-05
    CH2r      CH2  1  0.0074010088  3.0870916e-05
    CH2r      CH3  1  0.008397002  2.7343114e-05
    CH2r      CH4  1  0.009831472  3.1051014e-05
     CR1        O  1  0.00353133   3.888e-06
     CR1       OM  1  0.00353133  3.3479568e-06
     CR1       OA  1  0.00353133  4.2768e-06
     CR1       OE  1  0.00353133  4.2768e-06
     CR1       OW  1  0.00379863  6.310224e-06
     CR1        N  1  0.00366498  5.921424e-06
     CR1       NT  1  0.00366498  5.921424e-06
     CR1       NL  1  0.00366498  5.921424e-06
     CR1       NR  1  0.00366498  5.921424e-06
     CR1       NZ  1  0.00366498  5.921424e-06
     CR1       NE  1  0.00366498  5.921424e-06
     CR1        C  1  0.003592215  8.639136e-06
     CR1      CH0  1  0.00363528  5.571504e-05
     CR1      CH1  1  0.005784075  3.82968e-05
     CR1      CH2  1  0.006416685  2.2659264e-05
     CR1      CH3  1  0.0072802125  2.0069856e-05
     CR1      CH4  1   0.0085239  2.2791456e-05
     CR1     CH2r  1  0.00635877  2.0594736e-05
      HC        O  1  0.000437552    1.23e-07
      HC       OM  1  0.000437552  1.059153e-07
      HC       OA  1  0.000437552   1.353e-07
      HC       OE  1  0.000437552   1.353e-07
      HC       OW  1  0.000470672  1.99629e-07
      HC        N  1  0.000454112  1.87329e-07
      HC       NT  1  0.000454112  1.87329e-07
      HC       NL  1  0.000454112  1.87329e-07
      HC       NR  1  0.000454112  1.87329e-07
      HC       NZ  1  0.000454112  1.87329e-07
      HC       NE  1  0.000454112  1.87329e-07
      HC        C  1  0.000445096  2.73306e-07
      HC      CH0  1  0.000450432  1.76259e-06
      HC      CH1  1  0.00071668  1.21155e-06
      HC      CH2  1  0.000795064  7.16844e-07
      HC      CH3  1  0.00090206  6.34926e-07
      HC      CH4  1  0.00105616  7.21026e-07
      HC     CH2r  1  0.000787888  6.51531e-07
      HC      CR1  1   0.0006831  4.78224e-07
       H        O  1           0           0
       H       OM  1           0           0
       H       OA  1           0           0
       H       OE  1           0           0
       H       OW  1           0           0
       H        N  1           0           0
       H       NT  1           0           0
       H       NL  1           0           0
       H       NR  1           0           0
       H       NZ  1           0           0
       H       NE  1           0           0
       H        C  1           0           0
       H      CH0  1           0           0
       H      CH1  1           0           0
       H      CH2  1           0           0
       H      CH3  1           0           0
       H      CH4  1           0           0
       H     CH2r  1           0           0
       H      CR1  1           0           0
       H       HC  1           0           0
     DUM        O  1           0           0
     DUM       OM  1           0           0
     DUM       OA  1           0           0
     DUM       OE  1           0           0
     DUM       OW  1           0           0
     DUM        N  1           0           0
     DUM       NT  1           0           0
     DUM       NL  1           0           0
     DUM       NR  1           0           0
     DUM       NZ  1           0           0
     DUM       NE  1           0           0
     DUM        C  1           0           0
     DUM      CH0  1           0           0
     DUM      CH1  1           0           0
     DUM      CH2  1           0           0
     DUM      CH3  1           0           0
     DUM      CH4  1           0           0
     DUM     CH2r  1           0           0
     DUM      CR1  1           0           0
     DUM       HC  1           0           0
     DUM        H  1           0           0
       S        O  1  0.0047521952   3.616e-06
       S       OM  1  0.0047521952  3.1137376e-06
       S       OA  1  0.0047521952  3.9776e-06
       S       OE  1  0.0047521952  3.9776e-06
       S       OW  1  0.0051119072  5.868768e-06
       S        N  1  0.0049320512  5.507168e-06
       S       NT  1  0.0049320512  5.507168e-06
       S       NL  1  0.0049320512  5.507168e-06
       S       NR  1  0.0049320512  5.507168e-06
       S       NZ  1  0.0049320512  5.507168e-06
       S       NE  1  0.0049320512  5.507168e-06
       S        C  1  0.0048341296  8.034752e-06
       S      CH0  1  0.0048920832  5.181728e-05
       S      CH1  1  0.007783768  3.56176e-05
       S      CH2  1  0.0086350864  2.1074048e-05
       S      CH3  1  0.009797156  1.8665792e-05
       S      CH4  1  0.011470816  2.1196992e-05
       S     CH2r  1  0.0085571488  1.9153952e-05
       S      CR1  1  0.00741906  1.4059008e-05
       S       HC  1  0.000919264  4.44768e-07
       S        H  1           0           0
       S      DUM  1           0           0
    CU1+        O  1  0.000972602  2.5425e-07
    CU1+       OM  1  0.000972602   6.903e-07
    CU1+       OA  1  0.000972602  2.76075e-07
    CU1+       OE  1  0.000972602  2.76075e-07
    CU1+       OW  1  0.001046222  3.65175e-07
    CU1+        N  1  0.001009412  1.0903157e-07
    CU1+       NT  1  0.001009412  1.0903157e-07
    CU1+       NL  1  0.001009412  1.0903157e-07
    CU1+       NR  1  0.001009412  4.14225e-07
    CU1+       NZ  1  0.001009412  1.0903157e-07
    CU1+       NE  1  0.001009412  1.0903157e-07
    CU1+        C  1  0.000989371  1.5907298e-07
    CU1+      CH0  1  0.001001232  1.0258847e-06
    CU1+      CH1  1  0.001593055  7.051615e-07
    CU1+      CH2  1  0.001767289  4.1722652e-07
    CU1+      CH3  1  0.0020051225  3.6954758e-07
    CU1+      CH4  1  0.00234766  4.1966058e-07
    CU1+     CH2r  1  0.001751338  3.7921223e-07
    CU1+      CR1  1  0.0015184125  2.7834192e-07
    CU1+       HC  1  0.00018814  8.80557e-09
    CU1+        H  1           0           0
    CU1+      DUM  1           0           0
    CU1+        S  1  0.002043364  2.5886944e-07
    CU2+        O  1  0.000972602  4.62283e-07
    CU2+       OM  1  0.000972602  1.2551188e-06
    CU2+       OA  1  0.000972602  5.019657e-07
    CU2+       OE  1  0.000972602  5.019657e-07
    CU2+       OW  1  0.001046222  6.639693e-07
    CU2+        N  1  0.001009412  1.0903157e-07
    CU2+       NT  1  0.001009412  1.0903157e-07
    CU2+       NL  1  0.001009412  1.0903157e-07
    CU2+       NR  1  0.001009412  7.531531e-07
    CU2+       NZ  1  0.001009412  1.0903157e-07
    CU2+       NE  1  0.001009412  1.0903157e-07
    CU2+        C  1  0.000989371  1.5907298e-07
    CU2+      CH0  1  0.001001232  1.0258847e-06
    CU2+      CH1  1  0.001593055  7.051615e-07
    CU2+      CH2  1  0.001767289  4.1722652e-07
    CU2+      CH3  1  0.0020051225  3.6954758e-07
    CU2+      CH4  1  0.00234766  4.1966058e-07
    CU2+     CH2r  1  0.001751338  3.7921223e-07
    CU2+      CR1  1  0.0015184125  2.7834192e-07
    CU2+       HC  1  0.00018814  8.80557e-09
    CU2+        H  1           0           0
    CU2+      DUM  1           0           0
    CU2+        S  1  0.002043364  2.5886944e-07
    CU2+     CU1+  1  0.0004182025  5.1251281e-09
      FE        O  1           0           0
      FE       OM  1           0           0
      FE       OA  1           0           0
      FE       OE  1           0           0
      FE       OW  1           0           0
      FE        N  1           0           0
      FE       NT  1           0           0
      FE       NL  1           0           0
      FE       NR  1           0           0
      FE       NZ  1           0           0
      FE       NE  1           0           0
      FE        C  1           0           0
      FE      CH0  1           0           0
      FE      CH1  1           0           0
      FE      CH2  1           0           0
      FE      CH3  1           0           0
      FE      CH4  1           0           0
      FE     CH2r  1           0           0
      FE      CR1  1           0           0
      FE       HC  1           0           0
      FE        H  1           0           0
      FE      DUM  1           0           0
      FE        S  1           0           0
      FE     CU1+  1           0           0
      FE     CU2+  1           0           0
    ZN2+        O  1  0.000972602  1.097908e-07
    ZN2+       OM  1  0.000972602  2.9808688e-07
    ZN2+       OA  1  0.000972602  1.1921532e-07
    ZN2+       OE  1  0.000972602  1.1921532e-07
    ZN2+       OW  1  0.001046222  1.5769068e-07
    ZN2+        N  1  0.001009412  1.4797468e-07
    ZN2+       NT  1  0.001009412  1.4797468e-07
    ZN2+       NL  1  0.001009412  1.4797468e-07
    ZN2+       NR  1  0.001009412  1.7887156e-07
    ZN2+       NZ  1  0.001009412  1.4797468e-07
    ZN2+       NE  1  0.001009412  1.4797468e-07
    ZN2+        C  1  0.000989371  2.1588952e-07
    ZN2+      CH0  1  0.001001232  1.3923028e-06
    ZN2+      CH1  1  0.001593055  9.57026e-07
    ZN2+      CH2  1  0.001767289  5.6624848e-07
    ZN2+      CH3  1  0.0020051225  5.0153992e-07
    ZN2+      CH4  1  0.00234766  5.6955192e-07
    ZN2+     CH2r  1  0.001751338  5.1465652e-07
    ZN2+      CR1  1  0.0015184125  3.7775808e-07
    ZN2+       HC  1  0.00018814  1.195068e-08
    ZN2+        H  1           0           0
    ZN2+      DUM  1           0           0
    ZN2+        S  1  0.002043364  3.5133056e-07
    ZN2+     CU1+  1  0.0004182025  6.9556844e-09
    ZN2+     CU2+  1  0.0004182025  6.9556844e-09
    ZN2+       FE  1           0           0
    MG2+        O  1  0.0003842848  6.59694e-08
    MG2+       OM  1  0.0003842848  1.7910984e-07
    MG2+       OA  1  0.0003842848  7.163226e-08
    MG2+       OE  1  0.0003842848  7.163226e-08
    MG2+       OW  1  0.0004133728  9.475074e-08
    MG2+        N  1  0.0003988288  8.891274e-08
    MG2+       NT  1  0.0003988288  8.891274e-08
    MG2+       NL  1  0.0003988288  8.891274e-08
    MG2+       NR  1  0.0003988288  1.0747758e-07
    MG2+       NZ  1  0.0003988288  8.891274e-08
    MG2+       NE  1  0.0003988288  8.891274e-08
    MG2+        C  1  0.0003909104  1.2972036e-07
    MG2+      CH0  1  0.0003955968  8.365854e-07
    MG2+      CH1  1  0.000629432  5.75043e-07
    MG2+      CH2  1  0.0006982736  3.4023864e-07
    MG2+      CH3  1  0.000792244  3.0135756e-07
    MG2+      CH4  1  0.000927584  3.4222356e-07
    MG2+     CH2r  1  0.0006919712  3.0923886e-07
    MG2+      CR1  1  0.00059994  2.2698144e-07
    MG2+       HC  1  7.4336e-05  7.18074e-09
    MG2+        H  1           0           0
    MG2+      DUM  1           0           0
    MG2+        S  1  0.0008073536  2.1110208e-07
    MG2+     CU1+  1  0.000165236  4.1794242e-09
    MG2+     CU2+  1  0.000165236  4.1794242e-09
    MG2+       FE  1           0           0
    MG2+     ZN2+  1  0.000165236  5.6722008e-09
    CA2+        O  1  0.001507652  7.97441e-07
    CA2+       OM  1  0.001507652  2.1650876e-06
    CA2+       OA  1  0.001507652  8.658939e-07
    CA2+       OE  1  0.001507652  8.658939e-07
    CA2+       OW  1  0.001621772  1.1453511e-06
    CA2+        N  1  0.001564712  1.0747811e-06
    CA2+       NT  1  0.001564712  1.0747811e-06
    CA2+       NL  1  0.001564712  1.0747811e-06
    CA2+       NR  1  0.001564712  1.2991937e-06
    CA2+       NZ  1  0.001564712  1.0747811e-06
    CA2+       NE  1  0.001564712  1.0747811e-06
    CA2+        C  1  0.001533646  1.5680654e-06
    CA2+      CH0  1  0.001552032  1.0112681e-05
    CA2+      CH1  1  0.00246943  6.951145e-06
    CA2+      CH2  1  0.002739514  4.1128196e-06
    CA2+      CH3  1  0.003108185  3.6428234e-06
    CA2+      CH4  1  0.00363916  4.1368134e-06
    CA2+     CH2r  1  0.002714788  3.7380929e-06
    CA2+      CR1  1  0.002353725  2.7437616e-06
    CA2+       HC  1  0.00029164  8.68011e-08
    CA2+        H  1           0           0
    CA2+      DUM  1           0           0
    CA2+        S  1  0.003167464  2.5518112e-06
    CA2+     CU1+  1  0.000648265  5.0521063e-08
    CA2+     CU2+  1  0.000648265  5.0521063e-08
    CA2+       FE  1           0           0
    CA2+     ZN2+  1  0.000648265  6.8565812e-08
    CA2+     MG2+  1  0.000256136  4.1198766e-08
       P        O  1  0.005773784  5.32343e-06
       P       OM  1  0.005773784  1.4453348e-05
       P       OA  1  0.005773784  5.780397e-06
       P       OE  1  0.005773784  5.780397e-06
       P       OW  1  0.006210824  7.645953e-06
       P        N  1  0.005992304  7.174853e-06
       P       NT  1  0.005992304  7.174853e-06
       P       NL  1  0.005992304  7.174853e-06
       P       NR  1  0.005992304  8.672951e-06
       P       NZ  1  0.005992304  7.174853e-06
       P       NE  1  0.005992304  7.174853e-06
       P        C  1  0.005873332  1.0467842e-05
       P      CH0  1  0.005943744  6.750863e-05
       P      CH1  1  0.00945706  4.640335e-05
       P      CH2  1  0.010491388  2.7455708e-05
       P      CH3  1  0.01190327  2.4318182e-05
       P      CH4  1  0.01393672  2.7615882e-05
       P     CH2r  1  0.010396696  2.4954167e-05
       P      CR1  1  0.00901395  1.8316368e-05
       P       HC  1  0.00111688  5.79453e-07
       P        H  1           0           0
       P      DUM  1           0           0
       P        S  1  0.012130288  1.7034976e-05
       P     CU1+  1  0.00248263  3.3726049e-07
       P     CU2+  1  0.00248263  3.3726049e-07
       P       FE  1           0           0
       P     ZN2+  1  0.00248263  4.5772076e-07
       P     MG2+  1  0.000980912  2.7502818e-07
       P     CA2+  1  0.00384838  3.3245527e-06
      AR        O  1  0.003764374   3.138e-06
      AR       OM  1  0.003764374  2.7021318e-06
      AR       OA  1  0.003764374  3.4518e-06
      AR       OE  1  0.003764374  3.4518e-06
      AR       OW  1  0.004049314  5.092974e-06
      AR        N  1  0.003906844  4.779174e-06
      AR       NT  1  0.003906844  4.779174e-06
      AR       NL  1  0.003906844  4.779174e-06
      AR       NR  1  0.003906844  4.779174e-06
      AR       NZ  1  0.003906844  4.779174e-06
      AR       NE  1  0.003906844  4.779174e-06
      AR        C  1  0.003829277  6.972636e-06
      AR      CH0  1  0.003875184  4.496754e-05
      AR      CH1  1  0.006165785  3.09093e-05
      AR      CH2  1  0.006840143  1.8288264e-05
      AR      CH3  1  0.0077606575  1.6198356e-05
      AR      CH4  1  0.00908642  1.8394956e-05
      AR     CH2r  1  0.006778406  1.6621986e-05
      AR      CR1  1  0.0058768875  1.2200544e-05
      AR       HC  1  0.00072818  3.85974e-07
      AR        H  1           0           0
      AR      DUM  1           0           0
      AR        S  1  0.007908668  1.1347008e-05
      AR     CU1+  1  0.0016186175  2.2464942e-07
      AR     CU2+  1  0.0016186175  2.2464942e-07
      AR       FE  1           0           0
      AR     ZN2+  1  0.0016186175  3.0488808e-07
      AR     MG2+  1  0.000639532  1.8319644e-07
      AR     CA2+  1  0.002509055  2.2144866e-06
      AR        P  1  0.00960881  1.4783118e-05
       F        O  1  0.0016322592   8.722e-07
       F       OM  1  0.0016322592  7.5105142e-07
       F       OA  1  0.0016322592  1.505529e-06
       F       OE  1  0.0016322592  9.5942e-07
       F       OW  1  0.0017558112  1.991421e-06
       F        N  1  0.0016940352  2.384061e-06
       F       NT  1  0.0016940352  2.76075e-06
       F       NL  1  0.0016940352  3.764436e-06
       F       NR  1  0.0016940352  2.258907e-06
       F       NZ  1  0.0016940352  2.635596e-06
       F       NE  1  0.0016940352  2.434368e-06
       F        C  1  0.0016604016  1.9380284e-06
       F      CH0  1  0.0016803072  1.2498626e-05
       F      CH1  1  0.002673528  8.59117e-06
       F      CH2  1  0.0029659344  5.0831816e-06
       F      CH3  1  0.003365076  4.5022964e-06
       F      CH4  1  0.003939936  5.1128364e-06
       F     CH2r  1  0.0029391648  4.6200434e-06
       F      CR1  1  0.00254826  3.3911136e-06
       F       HC  1  0.000315744  1.072806e-07
       F        H  1           0           0
       F      DUM  1           0           0
       F        S  1  0.0034292544  3.1538752e-06
       F     CU1+  1  0.000701844  2.76075e-07
       F     CU2+  1  0.000701844  5.019657e-07
       F       FE  1           0           0
       F     ZN2+  1  0.000701844  1.1921532e-07
       F     MG2+  1  0.0002773056  7.163226e-08
       F     CA2+  1  0.001087944  8.658939e-07
       F        P  1  0.004166448  5.780397e-06
       F       AR  1  0.002716428  2.7369636e-06
      CL        O  1  0.0044525672   3.911e-06
      CL       OM  1  0.0044525672  3.3677621e-06
      CL       OA  1  0.0044525672  4.798797e-06
      CL       OE  1  0.0044525672  4.3021e-06
      CL       OW  1  0.0047895992  6.347553e-06
      CL        N  1  0.0046210832  7.599073e-06
      CL       NT  1  0.0046210832  8.79975e-06
      CL       NL  1  0.0046210832  1.1998948e-05
      CL       NR  1  0.0046210832  7.200151e-06
      CL       NZ  1  0.0046210832  8.400828e-06
      CL       NE  1  0.0046210832  7.759424e-06
      CL        C  1  0.0045293356  8.690242e-06
      CL      CH0  1  0.0045836352  5.604463e-05
      CL      CH1  1  0.007292998  3.852335e-05
      CL      CH2  1  0.0080906404  2.2793308e-05
      CL      CH3  1  0.009179441  2.0188582e-05
      CL      CH4  1  0.010747576  2.2926282e-05
      CL     CH2r  1  0.0080176168  2.0716567e-05
      CL      CR1  1  0.006951285  1.5205968e-05
      CL       HC  1  0.000861304  4.81053e-07
      CL        H  1           0           0
      CL      DUM  1           0           0
      CL        S  1  0.0093545104  1.4142176e-05
      CL     CU1+  1  0.001914529  8.79975e-07
      CL     CU2+  1  0.001914529  1.5999901e-06
      CL       FE  1           0           0
      CL     ZN2+  1  0.001914529  3.7999276e-07
      CL     MG2+  1  0.0007564496  2.2832418e-07
      CL     CA2+  1  0.002967754  2.7599927e-06
      CL        P  1  0.011365468  1.8424721e-05
      CL       AR  1  0.007410023  1.2272718e-05
      CL        F  1  0.0032130384  3.4111742e-06
      BR        O  1  0.007909228   8.092e-06
      BR       OM  1  0.007909228  6.9680212e-06
      BR       OA  1  0.007909228  9.928884e-06
      BR       OE  1  0.007909228  8.9012e-06
      BR       OW  1  0.008507908  1.3133316e-05
      BR        N  1  0.008208568  1.5722756e-05
      BR       NT  1  0.008208568  1.8207e-05
      BR       NL  1  0.008208568  2.4826256e-05
      BR       NR  1  0.008208568  1.4897372e-05
      BR       NZ  1  0.008208568  1.7381616e-05
      BR       NE  1  0.008208568  1.6054528e-05
      BR        C  1  0.008045594  1.7980424e-05
      BR      CH0  1  0.008142048  0.00011595836
      BR      CH1  1  0.01295477  7.97062e-05
      BR      CH2  1  0.014371646  4.7160176e-05
      BR      CH3  1  0.016305715  4.1770904e-05
      BR      CH4  1  0.01909124  4.7435304e-05
      BR     CH2r  1  0.014241932  4.2863324e-05
      BR      CR1  1  0.012347775  3.1461696e-05
      BR       HC  1  0.00152996  9.95316e-07
      BR        H  1           0           0
      BR      DUM  1           0           0
      BR        S  1  0.016616696  2.9260672e-05
      BR     CU1+  1  0.003400835  1.8207e-06
      BR     CU2+  1  0.003400835  3.3104372e-06
      BR       FE  1           0           0
      BR     ZN2+  1  0.003400835  7.8621872e-07
      BR     MG2+  1  0.001343704  4.7241096e-07
      BR     CA2+  1  0.00527171  5.7105244e-06
      BR        P  1  0.02018882  3.8121412e-05
      BR       AR  1  0.013162645  2.5392696e-05
      BR        F  1  0.005707416  7.0578424e-06
      BR       CL  1  0.015569006  3.1647812e-05
    CMet        O  1  0.0044806276     4.4e-06
    CMet       OM  1  0.0044806276  3.78884e-06
    CMet       OA  1  0.0044806276    4.84e-06
    CMet       OE  1  0.0044806276    4.84e-06
    CMet       OW  1  0.0048197836  7.1412e-06
    CMet        N  1  0.0046502056  6.7012e-06
    CMet       NT  1  0.0046502056  6.7012e-06
    CMet       NL  1  0.0046502056  6.7012e-06
    CMet       NR  1  0.0046502056  6.7012e-06
    CMet       NZ  1  0.0046502056  6.7012e-06
    CMet       NE  1  0.0046502056  6.7012e-06
    CMet        C  1  0.0045578798  9.7768e-06
    CMet      CH0  1  0.0046125216  6.3052e-05
    CMet      CH1  1  0.007338959   4.334e-05
    CMet      CH2  1  0.0081416282  2.56432e-05
    CMet      CH3  1  0.0092372905  2.27128e-05
    CMet      CH4  1  0.010815308  2.57928e-05
    CMet     CH2r  1  0.0080681444  2.33068e-05
    CMet      CR1  1  0.0069950925  1.71072e-05
    CMet       HC  1  0.000866732   5.412e-07
    CMet        H  1           0           0
    CMet      DUM  1           0           0
    CMet        S  1  0.0094134632  1.59104e-05
    CMet     CU1+  1  0.0019265945  3.14996e-07
    CMet     CU2+  1  0.0019265945  3.14996e-07
    CMet       FE  1           0           0
    CMet     ZN2+  1  0.0019265945  4.27504e-07
    CMet     MG2+  1  0.0007612168  2.56872e-07
    CMet     CA2+  1  0.002986457  3.10508e-06
    CMet        P  1  0.011437094  2.07284e-05
    CMet       AR  1  0.0074567215  1.38072e-05
    CMet        F  1  0.0032332872  3.83768e-06
    CMet       CL  1  0.0088199402  1.72084e-05
    CMet       BR  1  0.015667123  3.56048e-05
    OMet        O  1  0.0022619536  1.72325e-06
    OMet       OM  1  0.0022619536  2.807525e-06
    OMet       OA  1  0.0022619536  1.871175e-06
    OMet       OE  1  0.0022619536  1.871175e-06
    OMet       OW  1  0.0024331696  2.475075e-06
    OMet        N  1  0.0023475616  2.963075e-06
    OMet       NT  1  0.0023475616  3.43125e-06
    OMet       NL  1  0.0023475616  4.6787e-06
    OMet       NR  1  0.0023475616  2.807525e-06
    OMet       NZ  1  0.0023475616  3.2757e-06
    OMet       NE  1  0.0023475616  3.0256e-06
    OMet        C  1  0.0023009528  3.38855e-06
    OMet      CH0  1  0.0023285376  2.185325e-05
    OMet      CH1  1  0.003704924  1.502125e-05
    OMet      CH2  1  0.0041101352  8.8877e-06
    OMet      CH3  1  0.004663258  7.87205e-06
    OMet      CH4  1  0.005459888  8.93955e-06
    OMet     CH2r  1  0.0040730384  8.077925e-06
    OMet      CR1  1  0.00353133  5.9292e-06
    OMet       HC  1  0.000437552  1.87575e-07
    OMet        H  1           0           0
    OMet      DUM  1           0           0
    OMet        S  1  0.0047521952  5.5144e-06
    OMet     CU1+  1  0.000972602  3.43125e-07
    OMet     CU2+  1  0.000972602  6.238775e-07
    OMet       FE  1           0           0
    OMet     ZN2+  1  0.000972602  1.48169e-07
    OMet     MG2+  1  0.0003842848  8.90295e-08
    OMet     CA2+  1  0.001507652  1.0761925e-06
    OMet        P  1  0.005773784  7.184275e-06
    OMet       AR  1  0.003764374  4.78545e-06
    OMet        F  1  0.0016322592  1.871175e-06
    OMet       CL  1  0.0044525672  5.964275e-06
    OMet       BR  1  0.007909228  1.23403e-05
    OMet     CMet  1  0.0044806276    6.71e-06
     NA+        O  1  0.00040373684  1.6385e-07
     NA+       OM  1  0.00040373684  4.4486e-07
     NA+       OA  1  0.00040373684  1.77915e-07
     NA+       OE  1  0.00040373684  1.77915e-07
     NA+       OW  1  0.00043429724  2.35335e-07
     NA+        N  1  0.00041901704  2.20835e-07
     NA+       NT  1  0.00041901704  2.20835e-07
     NA+       NL  1  0.00041901704  2.20835e-07
     NA+       NR  1  0.00041901704  2.66945e-07
     NA+       NZ  1  0.00041901704  2.20835e-07
     NA+       NE  1  0.00041901704  2.20835e-07
     NA+        C  1  0.00041069782  3.2219e-07
     NA+      CH0  1  0.00041562144  2.07785e-06
     NA+      CH1  1  0.0006612931  1.42825e-06
     NA+      CH2  1  0.00073361938  8.4506e-07
     NA+      CH3  1  0.00083234645  7.4849e-07
     NA+      CH4  1  0.0009745372  8.4999e-07
     NA+     CH2r  1  0.00072699796  7.68065e-07
     NA+      CR1  1  0.00063030825  5.6376e-07
     NA+       HC  1  7.80988e-05  1.7835e-08
     NA+        H  1           0           0
     NA+      DUM  1           0           0
     NA+        S  1  0.00084822088  5.2432e-07
     NA+     CU1+  1  0.00017360005  1.038055e-08
     NA+     CU2+  1  0.00017360005  1.038055e-08
     NA+       FE  1           0           0
     NA+     ZN2+  1  0.00017360005  1.40882e-08
     NA+     MG2+  1  6.859112e-05  8.4651e-09
     NA+     CA2+  1  0.0002691013  1.023265e-07
     NA+        P  1  0.0010305646  6.83095e-07
     NA+       AR  1  0.00067190435  4.5501e-07
     NA+        F  1  0.00029134248  1.77915e-07
     NA+       CL  1  0.00079474018  5.67095e-07
     NA+       BR  1  0.0014117207  1.17334e-06
     NA+     CMet  1  0.00079974869    6.38e-07
     NA+     OMet  1  0.00040373684  2.21125e-07
     CL-        O  1   0.0055883   1.034e-05
     CL-       OM  1   0.0055883  8.903774e-06
     CL-       OA  1   0.0055883  1.268718e-05
     CL-       OE  1   0.0055883  1.1374e-05
     CL-       OW  1   0.0060113  1.678182e-05
     CL-        N  1   0.0057998  2.009062e-05
     CL-       NT  1   0.0057998  2.3265e-05
     CL-       NL  1   0.0057998  3.172312e-05
     CL-       NR  1   0.0057998  1.903594e-05
     CL-       NZ  1   0.0057998  2.221032e-05
     CL-       NE  1   0.0057998  2.051456e-05
     CL-        C  1  0.00568465  2.297548e-05
     CL-      CH0  1   0.0057528  0.0001481722
     CL-      CH1  1  0.00915325  0.000101849
     CL-      CH2  1  0.01015435  6.026152e-05
     CL-      CH3  1  0.011520875  5.337508e-05
     CL-      CH4  1    0.013489  6.061308e-05
     CL-     CH2r  1   0.0100627  5.477098e-05
     CL-      CR1  1  0.008724375  4.020192e-05
     CL-       HC  1    0.001081  1.27182e-06
     CL-        H  1           0           0
     CL-      DUM  1           0           0
     CL-        S  1   0.0117406  3.738944e-05
     CL-     CU1+  1  0.002402875  2.3265e-06
     CL-     CU2+  1  0.002402875  4.230094e-06
     CL-       FE  1           0           0
     CL-     ZN2+  1  0.002402875  1.0046344e-06
     CL-     MG2+  1   0.0009494  6.036492e-07
     CL-     CA2+  1  0.00372475  7.296938e-06
     CL-        P  1   0.0142645  4.871174e-05
     CL-       AR  1  0.009300125  3.244692e-05
     CL-        F  1   0.0040326  9.018548e-06
     CL-       CL  1  0.01100035  4.043974e-05
     CL-       BR  1  0.01954025  8.367128e-05
     CL-     CMet  1  0.011069675  4.5496e-05
     CL-     OMet  1   0.0055883  1.57685e-05
     CL-      NA+  1  0.0009974575  1.4993e-06
    CChl        O  1  0.0024394475   2.016e-06
    CChl       OM  1  0.0024394475  1.7359776e-06
    CChl       OA  1  0.0024394475  2.2176e-06
    CChl       OE  1  0.0024394475  2.2176e-06
    CChl       OW  1  0.0026240987  3.271968e-06
    CChl        N  1  0.0025317731  3.070368e-06
    CChl       NT  1  0.0025317731  3.070368e-06
    CChl       NL  1  0.0025317731  3.070368e-06
    CChl       NR  1  0.0025317731  3.070368e-06
    CChl       NZ  1  0.0025317731  3.070368e-06
    CChl       NE  1  0.0025317731  3.070368e-06
    CChl        C  1  0.002481507  4.479552e-06
    CChl      CH0  1  0.0025112563  2.888928e-05
    CChl      CH1  1  0.0039956468  1.98576e-05
    CChl      CH2  1  0.0044326546  1.1749248e-05
    CChl      CH3  1  0.0050291806  1.0406592e-05
    CChl      CH4  1  0.0058883216  1.1817792e-05
    CChl     CH2r  1  0.0043926469  1.0678752e-05
    CChl      CR1  1  0.003808431  7.838208e-06
    CChl       HC  1  0.0004718864  2.47968e-07
    CChl        H  1           0           0
    CChl      DUM  1           0           0
    CChl        S  1  0.0051250966  7.289856e-06
    CChl     CU1+  1  0.0010489214  1.4432544e-07
    CChl     CU2+  1  0.0010489214  1.4432544e-07
    CChl       FE  1           0           0
    CChl     ZN2+  1  0.0010489214  1.9587456e-07
    CChl     MG2+  1  0.00041443936  1.1769408e-07
    CChl     CA2+  1  0.0016259564  1.4226912e-06
    CChl        P  1  0.0062268488  9.497376e-06
    CChl       AR  1  0.0040597618  6.326208e-06
    CChl        F  1  0.0017603414  1.7583552e-06
    CChl       CL  1  0.004801957  7.884576e-06
    CChl       BR  1  0.0085298596  1.6313472e-05
    CChl     CMet  1  0.0048322193  8.8704e-06
    CChl     OMet  1  0.0024394475  3.0744e-06
    CChl      NA+  1  0.00043541779  2.9232e-07
    CChl      CL-  1  0.00602681  2.084544e-05
   CLChl        O  1  0.004334666  3.7101e-06
   CLChl       OM  1  0.004334666  3.1947671e-06
   CLChl       OA  1  0.004334666  4.08111e-06
   CLChl       OE  1  0.004334666  4.08111e-06
   CLChl       OW  1  0.0046627736  6.0214923e-06
   CLChl        N  1  0.0044987198  5.6504823e-06
   CLChl       NT  1  0.0044987198  5.6504823e-06
   CLChl       NL  1  0.0044987198  5.6504823e-06
   CLChl       NR  1  0.0044987198  5.6504823e-06
   CLChl       NZ  1  0.0044987198  5.6504823e-06
   CLChl       NE  1  0.0044987198  5.6504823e-06
   CLChl        C  1  0.0044094016  8.2438422e-06
   CLChl      CH0  1  0.0044622634  5.3165733e-05
   CLChl      CH1  1  0.0070998839  3.6544485e-05
   CLChl      CH2  1  0.0078764052  2.1622463e-05
   CLChl      CH3  1  0.0089363751  1.9151536e-05
   CLChl      CH4  1  0.010462987  2.1748606e-05
   CLChl     CH2r  1  0.0078053152  1.96524e-05
   CLChl      CR1  1  0.0067672192  1.4424869e-05
   CLChl       HC  1  0.0008384972  4.563423e-07
   CLChl        H  1           0           0
   CLChl      DUM  1           0           0
   CLChl        S  1  0.0091068087  1.3415722e-05
   CLChl     CU1+  1  0.0018638335  2.6560606e-07
   CLChl     CU2+  1  0.0018638335  2.6560606e-07
   CLChl       FE  1           0           0
   CLChl     ZN2+  1  0.0018638335  3.6047332e-07
   CLChl     MG2+  1  0.00073641928  2.1659564e-07
   CLChl     CA2+  1  0.0028891697  2.6182176e-06
   CLChl        P  1  0.011064517  1.7478281e-05
   CLChl       AR  1  0.0072138101  1.1642294e-05
   CLChl        F  1  0.0031279591  3.2359492e-06
   CLChl       CL  1  0.0085326204  1.4510201e-05
   CLChl       BR  1  0.015156748  3.0022129e-05
   CLChl     CMet  1  0.0085863936  1.632444e-05
   CLChl     OMet  1  0.004334666  5.6579025e-06
   CLChl      NA+  1  0.00077369595  5.379645e-07
   CLChl      CL-  1  0.010709067  3.8362434e-05
   CLChl     CChl  1  0.0046754     7.4813e-06
    HChl        O  1  0.0002920184  6.5574e-08
    HChl       OM  1  0.0002920184  5.6465771e-08
    HChl       OA  1  0.0002920184  7.21314e-08
    HChl       OE  1  0.0002920184  7.21314e-08
    HChl       OW  1  0.0003141224  1.064266e-07
    HChl        N  1  0.0003030704  9.9869202e-08
    HChl       NT  1  0.0003030704  9.9869202e-08
    HChl       NL  1  0.0003030704  9.9869202e-08
    HChl       NR  1  0.0003030704  9.9869202e-08
    HChl       NZ  1  0.0003030704  9.9869202e-08
    HChl       NE  1  0.0003030704  9.9869202e-08
    HChl        C  1  0.0002970532  1.4570543e-07
    HChl      CH0  1  0.0003006144  9.3967542e-07
    HChl      CH1  1  0.000478306  6.459039e-07
    HChl      CH2  1  0.0005306188  3.8216527e-07
    HChl      CH3  1  0.000602027  3.3849299e-07
    HChl      CH4  1  0.000704872  3.8439479e-07
    HChl     CH2r  1  0.0005258296  3.4734548e-07
    HChl      CR1  1  0.000455895  2.5495171e-07
    HChl       HC  1  5.6488e-05  8.065602e-09
    HChl        H  1           0           0
    HChl      DUM  1           0           0
    HChl        S  1  0.0006135088  2.3711558e-07
    HChl     CU1+  1  0.000125563  4.6944427e-09
    HChl     CU2+  1  0.000125563  4.6944427e-09
    HChl       FE  1           0           0
    HChl     ZN2+  1  0.000125563  6.3711698e-09
    HChl     MG2+  1  4.96112e-05  3.8282101e-09
    HChl     CA2+  1  0.000194638  4.6275572e-08
    HChl        P  1  0.000745396  3.0891911e-07
    HChl       AR  1  0.000485981  2.0577121e-07
    HChl        F  1  0.0002107248  5.7193643e-08
    HChl       CL  1  0.0005748268  2.5645991e-07
    HChl       BR  1  0.001021082  5.3062481e-07
    HChl     CMet  1  0.0005784494  2.885256e-07
    HChl     OMet  1  0.0002920184  1.0000035e-07
    HChl      NA+  1  5.212246e-05  9.50823e-09
    HChl      CL-  1  0.00072145  6.7803516e-07
    HChl     CChl  1  0.0003622     0.1745e-06
    HChl    CLChl  1  0.0006493     0.3266e-06
   SDmso        O  1  0.0048877412  4.6366e-06
   SDmso       OM  1  0.0048877412  3.9925763e-06
   SDmso       OA  1  0.0048877412  5.10026e-06
   SDmso       OE  1  0.0048877412  5.10026e-06
   SDmso       OW  1  0.0052577132  7.5252018e-06
   SDmso        N  1  0.0050727272  7.0615418e-06
   SDmso       NT  1  0.0050727272  7.0615418e-06
   SDmso       NL  1  0.0050727272  7.0615418e-06
   SDmso       NR  1  0.0050727272  7.0615418e-06
   SDmso       NZ  1  0.0050727272  7.0615418e-06
   SDmso       NE  1  0.0050727272  7.0615418e-06
   SDmso        C  1  0.0049720126  1.0302525e-05
   SDmso      CH0  1  0.0050316192  6.6442478e-05
   SDmso      CH1  1  0.008005783  4.567051e-05
   SDmso      CH2  1  0.0088813834  2.7022105e-05
   SDmso      CH3  1  0.010076599  2.3934129e-05
   SDmso      CH4  1  0.011797996  2.7179749e-05
   SDmso     CH2r  1  0.0088012228  2.456007e-05
   SDmso      CR1  1  0.0076306725  1.8027101e-05
   SDmso       HC  1  0.000945484  5.703018e-07
   SDmso        H  1           0           0
   SDmso      DUM  1           0           0
   SDmso        S  1  0.010268778  1.6765946e-05
   SDmso     CU1+  1  0.0021016465  3.3193419e-07
   SDmso     CU2+  1  0.0021016465  3.3193419e-07
   SDmso       FE  1           0           0
   SDmso     ZN2+  1  0.0021016465  4.5049206e-07
   SDmso     MG2+  1  0.0008303816  2.7068471e-07
   SDmso     CA2+  1  0.003257809  3.2720486e-06
   SDmso        P  1  0.012476278  2.1843023e-05
   SDmso       AR  1  0.0081342455  1.4549651e-05
   SDmso        F  1  0.0035270664  4.0440425e-06
   SDmso       CL  1  0.0096213274  1.8133743e-05
   SDmso       BR  1  0.017090651  3.7519367e-05
   SDmso     CMet  1  0.0096819617  2.040104e-05
   SDmso     OMet  1  0.0048877412  7.070815e-06
   SDmso      NA+  1  0.00087241453  6.72307e-07
   SDmso      CL-  1  0.012075475  4.7942444e-05
   SDmso     CChl  1  0.0052712788  9.3473856e-06
   SDmso    CLChl  1  0.0093665606  1.720225e-05
   SDmso     HChl  1  0.0006310078  3.0404041e-07
   CDmso        O  1  0.004663258   5.162e-06
   CDmso       OM  1  0.004663258  4.4449982e-06
   CDmso       OA  1  0.004663258  5.6782e-06
   CDmso       OE  1  0.004663258  5.6782e-06
   CDmso       OW  1  0.005016238  8.377926e-06
   CDmso        N  1  0.004839748  7.861726e-06
   CDmso       NT  1  0.004839748  7.861726e-06
   CDmso       NL  1  0.004839748  7.861726e-06
   CDmso       NR  1  0.004839748  7.861726e-06
   CDmso       NZ  1  0.004839748  7.861726e-06
   CDmso       NE  1  0.004839748  7.861726e-06
   CDmso        C  1  0.004743659  1.1469964e-05
   CDmso      CH0  1  0.004800528  7.397146e-05
   CDmso      CH1  1  0.007638095  5.08457e-05
   CDmso      CH2  1  0.008473481  3.0084136e-05
   CDmso      CH3  1  0.0096138025  2.6646244e-05
   CDmso      CH4  1  0.01125614  3.0259644e-05
   CDmso     CH2r  1  0.008397002  2.7343114e-05
   CDmso      CR1  1  0.0072802125  2.0069856e-05
   CDmso       HC  1  0.00090206  6.34926e-07
   CDmso        H  1           0           0
   CDmso      DUM  1           0           0
   CDmso        S  1  0.009797156  1.8665792e-05
   CDmso     CU1+  1  0.0020051225  3.6954758e-07
   CDmso     CU2+  1  0.0020051225  3.6954758e-07
   CDmso       FE  1           0           0
   CDmso     ZN2+  1  0.0020051225  5.0153992e-07
   CDmso     MG2+  1  0.000792244  3.0135756e-07
   CDmso     CA2+  1  0.003108185  3.6428234e-06
   CDmso        P  1  0.01190327  2.4318182e-05
   CDmso       AR  1  0.0077606575  1.6198356e-05
   CDmso        F  1  0.003365076  4.5022964e-06
   CDmso       CL  1  0.009179441  2.0188582e-05
   CDmso       BR  1  0.016305715  4.1770904e-05
   CDmso     CMet  1  0.0092372905  2.27128e-05
   CDmso     OMet  1  0.004663258  7.87205e-06
   CDmso      NA+  1  0.00083234645  7.4849e-07
   CDmso      CL-  1  0.011520875  5.337508e-05
   CDmso     CChl  1  0.0050291806  1.0406592e-05
   CDmso    CLChl  1  0.0089363751  1.9151536e-05
   CDmso     HChl  1  0.000602027  3.3849299e-07
   CDmso    SDmso  1  0.010076599  2.3934129e-05
   ODmso        O  1  0.0022663291  8.6686e-07
   ODmso       OM  1  0.0022663291  7.4645315e-07
   ODmso       OA  1  0.0022663291  1.380375e-06
   ODmso       OE  1  0.0022663291  9.53546e-07
   ODmso       OW  1  0.0024378763  1.825875e-06
   ODmso        N  1  0.0023521027  2.185875e-06
   ODmso       NT  1  0.0023521027  2.53125e-06
   ODmso       NL  1  0.0023521027  3.4515e-06
   ODmso       NR  1  0.0023521027  2.071125e-06
   ODmso       NZ  1  0.0023521027  2.4165e-06
   ODmso       NE  1  0.0023521027   2.232e-06
   ODmso        C  1  0.0023054038  1.9261629e-06
   ODmso      CH0  1  0.0023330419  1.2422104e-05
   ODmso      CH1  1  0.0037120908  8.538571e-06
   ODmso      CH2  1  0.0041180858  5.0520601e-06
   ODmso      CH3  1  0.0046722786  4.4747313e-06
   ODmso      CH4  1  0.0054704496  5.0815333e-06
   ODmso     CH2r  1  0.0040809173  4.5917574e-06
   ODmso      CR1  1  0.003538161  3.3703517e-06
   ODmso       HC  1  0.0004383984  1.0662378e-07
   ODmso        H  1           0           0
   ODmso      DUM  1           0           0
   ODmso        S  1  0.0047613878  3.1345658e-06
   ODmso     CU1+  1  0.0009744834  2.53125e-07
   ODmso     CU2+  1  0.0009744834  4.602375e-07
   ODmso       FE  1           0           0
   ODmso     ZN2+  1  0.0009744834  1.09305e-07
   ODmso     MG2+  1  0.00038502816  6.56775e-08
   ODmso     CA2+  1  0.0015105684  7.939125e-07
   ODmso        P  1  0.0057849528  5.299875e-06
   ODmso       AR  1  0.0037716558  2.7202067e-06
   ODmso        F  1  0.0016354166  7.5607529e-07
   ODmso       CL  1  0.0044611802  3.3902895e-06
   ODmso       BR  1  0.0079245276  7.0146311e-06
   ODmso     CMet  1  0.0044892949  3.814184e-06
   ODmso     OMet  1  0.0022663291  1.715625e-06
   ODmso      NA+  1  0.00040451783  1.63125e-07
   ODmso      CL-  1  0.00559911  8.9633324e-06
   ODmso     CChl  1  0.0024441664  1.7475898e-06
   ODmso    CLChl  1  0.0043430509  3.2161373e-06
   ODmso     HChl  1  0.00029258328  5.6843478e-08
   ODmso    SDmso  1  0.004897196  4.0192831e-06
   ODmso    CDmso  1  0.0046722786  4.4747313e-06
    CCl4        O  1  0.0024394475  2.7568e-06
    CCl4       OM  1  0.0024394475  2.3738805e-06
    CCl4       OA  1  0.0024394475  3.03248e-06
    CCl4       OE  1  0.0024394475  3.03248e-06
    CCl4       OW  1  0.0026240987  4.4742864e-06
    CCl4        N  1  0.0025317731  4.1986064e-06
    CCl4       NT  1  0.0025317731  4.1986064e-06
    CCl4       NL  1  0.0025317731  4.1986064e-06
    CCl4       NR  1  0.0025317731  4.1986064e-06
    CCl4       NZ  1  0.0025317731  4.1986064e-06
    CCl4       NE  1  0.0025317731  4.1986064e-06
    CCl4        C  1  0.002481507  6.1256096e-06
    CCl4      CH0  1  0.0025112563  3.9504944e-05
    CCl4      CH1  1  0.0039956468  2.715448e-05
    CCl4      CH2  1  0.0044326546  1.606663e-05
    CCl4      CH3  1  0.0050291806  1.4230602e-05
    CCl4      CH4  1  0.0058883216  1.6160362e-05
    CCl4     CH2r  1  0.0043926469  1.460277e-05
    CCl4      CR1  1  0.003808431  1.0718438e-05
    CCl4       HC  1  0.0004718864  3.390864e-07
    CCl4        H  1           0           0
    CCl4      DUM  1           0           0
    CCl4        S  1  0.0051250966  9.9685888e-06
    CCl4     CU1+  1  0.0010489214  1.9735931e-07
    CCl4     CU2+  1  0.0010489214  1.9735931e-07
    CCl4       FE  1           0           0
    CCl4     ZN2+  1  0.0010489214  2.6785069e-07
    CCl4     MG2+  1  0.00041443936  1.6094198e-07
    CCl4     CA2+  1  0.0016259564  1.9454738e-06
    CCl4        P  1  0.0062268488  1.2987285e-05
    CCl4       AR  1  0.0040597618  8.6508384e-06
    CCl4        F  1  0.0017603414  2.404481e-06
    CCl4       CL  1  0.004801957  1.0781845e-05
    CCl4       BR  1  0.0085298596  2.2308026e-05
    CCl4     CMet  1  0.0048322193  1.212992e-05
    CCl4     OMet  1  0.0024394475  4.20412e-06
    CCl4      NA+  1  0.00043541779  3.99736e-07
    CCl4      CL-  1  0.00602681  2.8505312e-05
    CCl4     CChl  1  0.0026308693  5.5577088e-06
    CCl4    CLChl  1  0.0046748042  1.0228004e-05
    CCl4     HChl  1  0.00031493288  1.807744e-07
    CCl4    SDmso  1  0.0052712788  1.2782179e-05
    CCl4    CDmso  1  0.0050291806  1.4230602e-05
    CCl4    ODmso  1  0.0024441664  2.3897596e-06
   CLCl4        O  1  0.0041472796  3.5732e-06
   CLCl4       OM  1  0.0041472796  3.0768825e-06
   CLCl4       OA  1  0.0041472796  3.93052e-06
   CLCl4       OE  1  0.0041472796  3.93052e-06
   CLCl4       OW  1  0.0044612032  5.7993036e-06
   CLCl4        N  1  0.0043042414  5.4419836e-06
   CLCl4       NT  1  0.0043042414  5.4419836e-06
   CLCl4       NL  1  0.0043042414  5.4419836e-06
   CLCl4       NR  1  0.0043042414  5.4419836e-06
   CLCl4       NZ  1  0.0043042414  5.4419836e-06
   CLCl4       NE  1  0.0043042414  5.4419836e-06
   CLCl4        C  1  0.0042187844  7.9396504e-06
   CLCl4      CH0  1  0.004269361  5.1203956e-05
   CLCl4      CH1  1  0.0067929579  3.519602e-05
   CLCl4      CH2  1  0.0075359104  2.082461e-05
   CLCl4      CH3  1  0.008550058  1.8444858e-05
   CLCl4      CH4  1  0.010010675  2.0946098e-05
   CLCl4     CH2r  1  0.0074678936  1.892724e-05
   CLCl4      CR1  1  0.0064746742  1.3892602e-05
   CLCl4       HC  1  0.0008022492  4.395036e-07
   CLCl4        H  1           0           0
   CLCl4      DUM  1           0           0
   CLCl4        S  1  0.0087131239  1.2920691e-05
   CLCl4     CU1+  1  0.0017832604  2.5580539e-07
   CLCl4     CU2+  1  0.0017832604  2.5580539e-07
   CLCl4       FE  1           0           0
   CLCl4     ZN2+  1  0.0017832604  3.4717211e-07
   CLCl4     MG2+  1  0.00070458408  2.0860342e-07
   CLCl4     CA2+  1  0.0027642717  2.5216072e-06
   CLCl4        P  1  0.010586201  1.6833345e-05
   CLCl4       AR  1  0.0069019592  1.1212702e-05
   CLCl4        F  1  0.0029927383  3.116545e-06
   CLCl4       CL  1  0.0081637576  1.3974785e-05
   CLCl4       BR  1  0.014501526  2.8914334e-05
   CLCl4     CMet  1  0.0082152062  1.572208e-05
   CLCl4     OMet  1  0.0041472796  5.44913e-06
   CLCl4      NA+  1  0.00074024929  5.18114e-07
   CLCl4      CL-  1  0.010246117  3.6946888e-05
   CLCl4     CChl  1  0.0044727137  7.2035712e-06
   CLCl4    CLChl  1  0.0079475863  1.3256929e-05
   CLCl4     HChl  1  0.00053541414  2.3430902e-07
   CLCl4    SDmso  1  0.0089616468  1.6567499e-05
   CLCl4    CDmso  1  0.008550058  1.8444858e-05
   CLCl4    ODmso  1  0.0041553021  3.0974642e-06
   CLCl4     CCl4  1  0.0044727137  9.8505978e-06
    FTFE        O  1  0.0016322592       1e-06
    FTFE       OM  1  0.0016322592   8.611e-07
    FTFE       OA  1  0.0016322592   1.227e-06
    FTFE       OE  1  0.0016322592     1.1e-06
    FTFE       OW  1  0.0017558112   1.623e-06
    FTFE        N  1  0.0016940352   1.943e-06
    FTFE       NT  1  0.0016940352    2.25e-06
    FTFE       NL  1  0.0016940352   3.068e-06
    FTFE       NR  1  0.0016940352   1.841e-06
    FTFE       NZ  1  0.0016940352   2.148e-06
    FTFE       NE  1  0.0016940352   1.984e-06
    FTFE        C  1  0.0016604016   2.222e-06
    FTFE      CH0  1  0.0016803072   1.433e-05
    FTFE      CH1  1  0.002673528    9.85e-06
    FTFE      CH2  1  0.0029659344   5.828e-06
    FTFE      CH3  1  0.003365076   5.162e-06
    FTFE      CH4  1  0.003939936   5.862e-06
    FTFE     CH2r  1  0.0029391648   5.297e-06
    FTFE      CR1  1  0.00254826   3.888e-06
    FTFE       HC  1  0.000315744    1.23e-07
    FTFE        H  1           0           0
    FTFE      DUM  1           0           0
    FTFE        S  1  0.0034292544   3.616e-06
    FTFE     CU1+  1  0.000701844    2.25e-07
    FTFE     CU2+  1  0.000701844   4.091e-07
    FTFE       FE  1           0           0
    FTFE     ZN2+  1  0.000701844   9.716e-08
    FTFE     MG2+  1  0.0002773056   5.838e-08
    FTFE     CA2+  1  0.001087944   7.057e-07
    FTFE        P  1  0.004166448   4.711e-06
    FTFE       AR  1  0.002716428   3.138e-06
    FTFE        F  1  0.0011778624   8.722e-07
    FTFE       CL  1  0.0032130384   3.911e-06
    FTFE       BR  1  0.005707416   8.092e-06
    FTFE     CMet  1  0.0032332872     4.4e-06
    FTFE     OMet  1  0.0016322592   1.525e-06
    FTFE      NA+  1  0.00029134248    1.45e-07
    FTFE      CL-  1   0.0040326   1.034e-05
    FTFE     CChl  1  0.0017603414   2.016e-06
    FTFE    CLChl  1  0.0031279591  3.7101e-06
    FTFE     HChl  1  0.0002107248  6.5574e-08
    FTFE    SDmso  1  0.0035270664  4.6366e-06
    FTFE    CDmso  1  0.003365076   5.162e-06
    FTFE    ODmso  1  0.0016354166  8.6686e-07
    FTFE     CCl4  1  0.0017603414  2.7568e-06
    FTFE    CLCl4  1  0.0029927383  3.5732e-06
    CTFE        O  1  0.0023009528   1.837e-06
    CTFE       OM  1  0.0023009528  1.5818407e-06
    CTFE       OA  1  0.0023009528  2.0207e-06
    CTFE       OE  1  0.0023009528  2.0207e-06
    CTFE       OW  1  0.0024751208  2.981451e-06
    CTFE        N  1  0.0023880368  2.797751e-06
    CTFE       NT  1  0.0023880368  2.797751e-06
    CTFE       NL  1  0.0023880368  2.797751e-06
    CTFE       NR  1  0.0023880368  2.797751e-06
    CTFE       NZ  1  0.0023880368  2.797751e-06
    CTFE       NE  1  0.0023880368  2.797751e-06
    CTFE        C  1  0.0023406244  4.081814e-06
    CTFE      CH0  1  0.0023686848  2.632421e-05
    CTFE      CH1  1  0.003768802  1.809445e-05
    CTFE      CH2  1  0.0041809996  1.0706036e-05
    CTFE      CH3  1  0.004743659  9.482594e-06
    CTFE      CH4  1  0.005554024  1.0768494e-05
    CTFE     CH2r  1  0.0041432632  9.730589e-06
    CTFE      CR1  1  0.003592215  7.142256e-06
    CTFE       HC  1  0.000445096  2.25951e-07
    CTFE        H  1           0           0
    CTFE      DUM  1           0           0
    CTFE        S  1  0.0048341296  6.642592e-06
    CTFE     CU1+  1  0.000989371  1.3151083e-07
    CTFE     CU2+  1  0.000989371  1.3151083e-07
    CTFE       FE  1           0           0
    CTFE     ZN2+  1  0.000989371  1.7848292e-07
    CTFE     MG2+  1  0.0003909104  1.0724406e-07
    CTFE     CA2+  1  0.001533646  1.2963709e-06
    CTFE        P  1  0.005873332  8.654107e-06
    CTFE       AR  1  0.003829277  5.764506e-06
    CTFE        F  1  0.0016604016  1.6022314e-06
    CTFE       CL  1  0.0045293356  7.184507e-06
    CTFE       BR  1  0.008045594  1.4865004e-05
    CTFE     CMet  1  0.0045578798  8.0828e-06
    CTFE     OMet  1  0.0023009528  2.801425e-06
    CTFE      NA+  1  0.00041069782  2.66365e-07
    CTFE      CL-  1  0.00568465  1.899458e-05
    CTFE     CChl  1  0.002481507  3.703392e-06
    CTFE    CLChl  1  0.0044094016  6.8154537e-06
    CTFE     HChl  1  0.0002970532  1.2045944e-07
    CTFE    SDmso  1  0.0049720126  8.5174342e-06
    CTFE    CDmso  1  0.004743659  9.482594e-06
    CTFE    ODmso  1  0.0023054038  1.5924218e-06
    CTFE     CCl4  1  0.002481507  5.0642416e-06
    CTFE    CLCl4  1  0.0042187844  6.5639684e-06
    CTFE     FTFE  1  0.0016604016   1.837e-06
   CHTFE        O  1  0.0040088324   5.077e-06
   CHTFE       OM  1  0.0040088324  4.3718047e-06
   CHTFE       OA  1  0.0040088324  5.5847e-06
   CHTFE       OE  1  0.0040088324  5.5847e-06
   CHTFE       OW  1  0.0043122764  8.239971e-06
   CHTFE        N  1  0.0041605544  7.732271e-06
   CHTFE       NT  1  0.0041605544  7.732271e-06
   CHTFE       NL  1  0.0041605544  7.732271e-06
   CHTFE       NR  1  0.0041605544  7.732271e-06
   CHTFE       NZ  1  0.0041605544  7.732271e-06
   CHTFE       NE  1  0.0041605544  7.732271e-06
   CHTFE        C  1  0.0040779502  1.1281094e-05
   CHTFE      CH0  1  0.0041268384  7.275341e-05
   CHTFE      CH1  1  0.006566191  5.000845e-05
   CHTFE      CH2  1  0.0072843418  2.9588756e-05
   CHTFE      CH3  1  0.0082646345  2.6207474e-05
   CHTFE      CH4  1  0.009676492  2.9761374e-05
   CHTFE     CH2r  1  0.0072185956  2.6892869e-05
   CHTFE      CR1  1  0.0062585325  1.9739376e-05
   CHTFE       HC  1  0.000775468  6.24471e-07
   CHTFE        H  1           0           0
   CHTFE      DUM  1           0           0
   CHTFE        S  1  0.0084222568  1.8358432e-05
   CHTFE     CU1+  1  0.0017237305  3.6346243e-07
   CHTFE     CU2+  1  0.0017237305  3.6346243e-07
   CHTFE       FE  1           0           0
   CHTFE     ZN2+  1  0.0017237305  4.9328132e-07
   CHTFE     MG2+  1  0.0006810632  2.9639526e-07
   CHTFE     CA2+  1  0.002671993  3.5828389e-06
   CHTFE        P  1  0.010232806  2.3917747e-05
   CHTFE       AR  1  0.0066715535  1.5931626e-05
   CHTFE        F  1  0.0028928328  4.4281594e-06
   CHTFE       CL  1  0.0078912298  1.9856147e-05
   CHTFE       BR  1  0.014017427  4.1083084e-05
   CHTFE     CMet  1  0.0079409609  2.23388e-05
   CHTFE     OMet  1  0.0040088324  7.742425e-06
   CHTFE      NA+  1  0.00071553781  7.36165e-07
   CHTFE      CL-  1  0.009904075  5.249618e-05
   CHTFE     CChl  1  0.0043234027  1.0235232e-05
   CHTFE    CLChl  1  0.0076822749  1.8836178e-05
   CHTFE     HChl  1  0.0005175406  3.329192e-07
   CHTFE    SDmso  1  0.0086624833  2.3540018e-05
   CHTFE    CDmso  1  0.0082646345  2.6207474e-05
   CHTFE    ODmso  1  0.0040165871  4.4010482e-06
   CHTFE     CCl4  1  0.0043234027  1.3996274e-05
   CHTFE    CLCl4  1  0.0073501723  1.8141136e-05
   CHTFE     FTFE  1  0.0028928328   5.077e-06
   CHTFE     CTFE  1  0.0040779502  9.326449e-06
    OTFE        O  1  0.0022619536   1.227e-06
    OTFE       OM  1  0.0022619536  1.0565697e-06
    OTFE       OA  1  0.0022619536  1.505529e-06
    OTFE       OE  1  0.0022619536  1.3497e-06
    OTFE       OW  1  0.0024331696  1.991421e-06
    OTFE        N  1  0.0023475616  1.868721e-06
    OTFE       NT  1  0.0023475616  2.76075e-06
    OTFE       NL  1  0.0023475616  1.868721e-06
    OTFE       NR  1  0.0023475616  2.258907e-06
    OTFE       NZ  1  0.0023475616  1.868721e-06
    OTFE       NE  1  0.0023475616  1.868721e-06
    OTFE        C  1  0.0023009528  2.726394e-06
    OTFE      CH0  1  0.0023285376  1.758291e-05
    OTFE      CH1  1  0.003704924  1.208595e-05
    OTFE      CH2  1  0.0041101352  7.150956e-06
    OTFE      CH3  1  0.004663258  6.333774e-06
    OTFE      CH4  1  0.005459888  7.192674e-06
    OTFE     CH2r  1  0.0040730384  6.499419e-06
    OTFE      CR1  1  0.00353133  4.770576e-06
    OTFE       HC  1  0.000437552  1.50921e-07
    OTFE        H  1           0           0
    OTFE      DUM  1           0           0
    OTFE        S  1  0.0047521952  4.436832e-06
    OTFE     CU1+  1  0.000972602  8.784093e-08
    OTFE     CU2+  1  0.000972602  8.784093e-08
    OTFE       FE  1           0           0
    OTFE     ZN2+  1  0.000972602  1.1921532e-07
    OTFE     MG2+  1  0.0003842848  7.163226e-08
    OTFE     CA2+  1  0.001507652  8.658939e-07
    OTFE        P  1  0.005773784  5.780397e-06
    OTFE       AR  1  0.003764374  3.850326e-06
    OTFE        F  1  0.0016322592  1.0701894e-06
    OTFE       CL  1  0.0044525672  4.798797e-06
    OTFE       BR  1  0.007909228  9.928884e-06
    OTFE     CMet  1  0.0044806276  5.3988e-06
    OTFE     OMet  1  0.0022619536  1.871175e-06
    OTFE      NA+  1  0.00040373684  1.77915e-07
    OTFE      CL-  1   0.0055883  1.268718e-05
    OTFE     CChl  1  0.0024394475  2.473632e-06
    OTFE    CLChl  1  0.004334666  4.5522927e-06
    OTFE     HChl  1  0.0002920184  8.0459298e-08
    OTFE    SDmso  1  0.0048877412  5.6891082e-06
    OTFE    CDmso  1  0.004663258  6.333774e-06
    OTFE    ODmso  1  0.0022663291  1.380375e-06
    OTFE     CCl4  1  0.0024394475  3.3825936e-06
    OTFE    CLCl4  1  0.0041472796  4.3843164e-06
    OTFE     FTFE  1  0.0016322592   1.227e-06
    OTFE     CTFE  1  0.0023009528  2.253999e-06
    OTFE    CHTFE  1  0.0040088324  6.229479e-06
   CUrea        O  1  0.0033247294  3.6864e-06
   CUrea       OM  1  0.0033247294  3.174359e-06
   CUrea       OA  1  0.0033247294  4.05504e-06
   CUrea       OE  1  0.0033247294  4.05504e-06
   CUrea       OW  1  0.003576391  5.9830272e-06
   CUrea        N  1  0.0034505602  5.6143872e-06
   CUrea       NT  1  0.0034505602  5.6143872e-06
   CUrea       NL  1  0.0034505602  5.6143872e-06
   CUrea       NR  1  0.0034505602  5.6143872e-06
   CUrea       NZ  1  0.0034505602  5.6143872e-06
   CUrea       NE  1  0.0034505602  5.6143872e-06
   CUrea        C  1  0.0033820523  8.1911808e-06
   CUrea      CH0  1  0.0034225978  5.2826112e-05
   CUrea      CH1  1  0.0054456774  3.631104e-05
   CUrea      CH2  1  0.0060412765  2.1484339e-05
   CUrea      CH3  1  0.0068542833  1.9029197e-05
   CUrea      CH4  1  0.0080252088  2.1609677e-05
   CUrea     CH2r  1  0.0059867498  1.9526861e-05
   CUrea      CR1  1  0.0051905205  1.4332723e-05
   CUrea       HC  1  0.0006431352  4.534272e-07
   CUrea        H  1           0           0
   CUrea      DUM  1           0           0
   CUrea        S  1  0.0069850075  1.3330022e-05
   CUrea     CU1+  1  0.0014295777  2.6390938e-07
   CUrea     CU2+  1  0.0014295777  2.6390938e-07
   CUrea       FE  1           0           0
   CUrea     ZN2+  1  0.0014295777  3.5817062e-07
   CUrea     MG2+  1  0.00056484048  2.1521203e-07
   CUrea     CA2+  1  0.0022160202  2.6014925e-06
   CUrea        P  1  0.0084865884  1.736663e-05
   CUrea       AR  1  0.0055330599  1.1567923e-05
   CUrea        F  1  0.0023991739  3.2152781e-06
   CUrea       CL  1  0.0065445997  1.441751e-05
   CUrea       BR  1  0.011625368  2.9830349e-05
   CUrea     CMet  1  0.0065858443  1.622016e-05
   CUrea     OMet  1  0.0033247294  5.62176e-06
   CUrea      NA+  1  0.00059343203  5.34528e-07
   CUrea      CL-  1  0.008213955  3.8117376e-05
   CUrea     CChl  1  0.0035856186  7.4317824e-06
   CUrea    CLChl  1  0.0063713027  1.3676913e-05
   CUrea     HChl  1  0.00042922284  2.4173199e-07
   CUrea    SDmso  1  0.0071842396  1.7092362e-05
   CUrea    CDmso  1  0.0068542833  1.9029197e-05
   CUrea    ODmso  1  0.0033311607  3.1955927e-06
   CUrea     CCl4  1  0.0035856186  1.0162668e-05
   CUrea    CLCl4  1  0.0060958731  1.3172244e-05
   CUrea     FTFE  1  0.0023991739  3.6864e-06
   CUrea     CTFE  1  0.0033820523  6.7719168e-06
   CUrea    CHTFE  1  0.0058923767  1.8715853e-05
   CUrea     OTFE  1  0.0033247294  4.5232128e-06
   OUrea        O  1  0.0023123672  1.2609e-06
   OUrea       OM  1  0.0023123672  1.085761e-06
   OUrea       OA  1  0.0023123672  1.5471243e-06
   OUrea       OE  1  0.0023123672  1.38699e-06
   OUrea       OW  1  0.0024873992  2.0464407e-06
   OUrea        N  1  0.0023998832  2.4499287e-06
   OUrea       NT  1  0.0023998832  2.837025e-06
   OUrea       NL  1  0.0023998832  3.8684412e-06
   OUrea       NR  1  0.0023998832  2.3213169e-06
   OUrea       NZ  1  0.0023998832  2.7084132e-06
   OUrea       NE  1  0.0023998832  2.5016256e-06
   OUrea        C  1  0.0023522356  2.8017198e-06
   OUrea      CH0  1  0.0023804352  1.8068697e-05
   OUrea      CH1  1  0.003787498  1.2419865e-05
   OUrea      CH2  1  0.0042017404  7.3485252e-06
   OUrea      CH3  1  0.004767191  6.5087658e-06
   OUrea      CH4  1  0.005581576  7.3913958e-06
   OUrea     CH2r  1  0.0041638168  6.6789873e-06
   OUrea      CR1  1  0.003610035  4.9023792e-06
   OUrea       HC  1  0.000447304  1.550907e-07
   OUrea        H  1           0           0
   OUrea      DUM  1           0           0
   OUrea        S  1  0.0048581104  4.5594144e-06
   OUrea     CU1+  1  0.000994279  2.837025e-07
   OUrea     CU2+  1  0.000994279  5.1583419e-07
   OUrea       FE  1           0           0
   OUrea     ZN2+  1  0.000994279  1.2250904e-07
   OUrea     MG2+  1  0.0003928496  7.3611342e-08
   OUrea     CA2+  1  0.001541254  8.8981713e-07
   OUrea        P  1  0.005902468  5.9400999e-06
   OUrea       AR  1  0.003848273  3.9567042e-06
   OUrea        F  1  0.0016686384  1.099757e-06
   OUrea       CL  1  0.0045518044  4.9313799e-06
   OUrea       BR  1  0.008085506  1.0203203e-05
   OUrea     CMet  1  0.0045804902  5.54796e-06
   OUrea     OMet  1  0.0023123672  1.9228725e-06
   OUrea      NA+  1  0.00041273518  1.828305e-07
   OUrea      CL-  1  0.00571285  1.3037706e-05
   OUrea     CChl  1  0.002493817  2.5419744e-06
   OUrea    CLChl  1  0.0044312754  4.6780651e-06
   OUrea     HChl  1  0.0002985268  8.2682257e-08
   OUrea    SDmso  1  0.0049966774  5.8462889e-06
   OUrea    CDmso  1  0.004767191  6.5087658e-06
   OUrea    ODmso  1  0.0023168402  1.0930238e-06
   OUrea     CCl4  1  0.002493817  3.4760491e-06
   OUrea    CLCl4  1  0.0042397126  4.5054479e-06
   OUrea     FTFE  1  0.0016686384  1.2609e-06
   OUrea     CTFE  1  0.0023522356  2.3162733e-06
   OUrea    CHTFE  1  0.0040981798  6.4015893e-06
   OUrea     OTFE  1  0.0023123672  1.5471243e-06
   OUrea    CUrea  1  0.0033988297  4.6481818e-06
   NUrea        O  1  0.0027538667  2.246101e-06
   NUrea       OM  1  0.0027538667  3.6593557e-06
   NUrea       OA  1  0.0027538667  2.4389079e-06
   NUrea       OE  1  0.0027538667  2.4389079e-06
   NUrea       OW  1  0.0029623175  3.2260371e-06
   NUrea        N  1  0.0028580921  3.8621011e-06
   NUrea       NT  1  0.0028580921  4.472325e-06
   NUrea       NL  1  0.0028580921  6.0982636e-06
   NUrea       NR  1  0.0028580921  3.6593557e-06
   NUrea       NZ  1  0.0028580921  4.2695796e-06
   NUrea       NE  1  0.0028580921  3.9435968e-06
   NUrea        C  1  0.0028013471  4.4166694e-06
   NUrea      CH0  1  0.0028349309  2.8483741e-05
   NUrea      CH1  1  0.0045106437  1.9578845e-05
   NUrea      CH2  1  0.0050039773  1.1584316e-05
   NUrea      CH3  1  0.0056773891  1.0260507e-05
   NUrea      CH4  1  0.0066472644  1.1651897e-05
   NUrea     CH2r  1  0.0049588129  1.0528847e-05
   NUrea      CR1  1  0.0042992978  7.7281776e-06
   NUrea       HC  1  0.0005327076  2.444871e-07
   NUrea        H  1           0           0
   NUrea      DUM  1           0           0
   NUrea        S  1  0.0057856678  7.1875232e-06
   NUrea     CU1+  1  0.0011841163  1.4229944e-07
   NUrea     CU2+  1  0.0011841163  1.4229944e-07
   NUrea       FE  1           0           0
   NUrea     ZN2+  1  0.0011841163  1.9312493e-07
   NUrea     MG2+  1  0.00046785624  1.1604193e-07
   NUrea     CA2+  1  0.0018355251  1.4027199e-06
   NUrea        P  1  0.0070294242  9.3640547e-06
   NUrea       AR  1  0.0045830224  6.2374026e-06
   NUrea        F  1  0.001987231  2.4389079e-06
   NUrea       CL  1  0.0054208789  7.7738947e-06
   NUrea       BR  1  0.0096292689  1.6084468e-05
   NUrea     CMet  1  0.0054550416  8.74588e-06
   NUrea     OMet  1  0.0027538667  3.0312425e-06
   NUrea      NA+  1  0.00049153857  2.882165e-07
   NUrea      CL-  1  0.0068036025  2.0552818e-05
   NUrea     CChl  1  0.0029699607  4.0072032e-06
   NUrea    CLChl  1  0.0052773373  7.3745658e-06
   NUrea     HChl  1  0.00035552442  1.3034144e-07
   NUrea    SDmso  1  0.0059506913  9.2161698e-06
   NUrea    CDmso  1  0.0056773891  1.0260507e-05
   NUrea    ODmso  1  0.0027591938  2.2361625e-06
   NUrea     CCl4  1  0.0029699607  5.4796914e-06
   NUrea    CLCl4  1  0.0050491995  7.1024496e-06
   NUrea     FTFE  1  0.001987231  1.9877e-06
   NUrea     CTFE  1  0.0028013471  3.6514049e-06
   NUrea    CHTFE  1  0.0048806439  1.0091553e-05
   NUrea     OTFE  1  0.0027538667  2.4389079e-06
   NUrea    CUrea  1  0.0040477671  7.3274573e-06
   NUrea    OUrea  1  0.0028152439  2.5062909e-06
      SI        O  1  0.005773784  5.32343e-06
      SI       OM  1  0.005773784  1.4453348e-05
      SI       OA  1  0.005773784  5.780397e-06
      SI       OE  1  0.005773784  5.780397e-06
      SI       OW  1  0.006210824  7.645953e-06
      SI        N  1  0.005992304  7.174853e-06
      SI       NT  1  0.005992304  7.174853e-06
      SI       NL  1  0.005992304  7.174853e-06
      SI       NR  1  0.005992304  8.672951e-06
      SI       NZ  1  0.005992304  7.174853e-06
      SI       NE  1  0.005992304  7.174853e-06
      SI        C  1  0.005873332  1.0467842e-05
      SI      CH0  1  0.005943744  6.750863e-05
      SI      CH1  1  0.00945706  4.640335e-05
      SI      CH2  1  0.010491388  2.7455708e-05
      SI      CH3  1  0.01190327  2.4318182e-05
      SI      CH4  1  0.01393672  2.7615882e-05
      SI     CH2r  1  0.010396696  2.4954167e-05
      SI      CR1  1  0.00901395  1.8316368e-05
      SI       HC  1  0.00111688  5.79453e-07
      SI        H  1           0           0
      SI      DUM  1           0           0
      SI        S  1  0.012130288  1.7034976e-05
      SI     CU1+  1  0.00248263  3.3726049e-07
      SI     CU2+  1  0.00248263  3.3726049e-07
      SI       FE  1           0           0
      SI     ZN2+  1  0.00248263  4.5772076e-07
      SI     MG2+  1  0.000980912  2.7502818e-07
      SI     CA2+  1  0.00384838  3.3245527e-06
      SI        P  1  0.01473796  2.2193521e-05
      SI       AR  1  0.00960881  1.4783118e-05
      SI        F  1  0.004166448  5.780397e-06
      SI       CL  1  0.011365468  1.8424721e-05
      SI       BR  1  0.02018882  3.8121412e-05
      SI     CMet  1  0.011437094  2.07284e-05
      SI     OMet  1  0.005773784  7.184275e-06
      SI      NA+  1  0.0010305646  6.83095e-07
      SI      CL-  1   0.0142645  4.871174e-05
      SI     CChl  1  0.0062268488  9.497376e-06
      SI    CLChl  1  0.011064517  1.7478281e-05
      SI     HChl  1  0.000745396  3.0891911e-07
      SI    SDmso  1  0.012476278  2.1843023e-05
      SI    CDmso  1  0.01190327  2.4318182e-05
      SI    ODmso  1  0.0057849528  5.299875e-06
      SI     CCl4  1  0.0062268488  1.2987285e-05
      SI    CLCl4  1  0.010586201  1.6833345e-05
      SI     FTFE  1  0.004166448   4.711e-06
      SI     CTFE  1  0.005873332  8.654107e-06
      SI    CHTFE  1  0.010232806  2.3917747e-05
      SI     OTFE  1  0.005773784  5.780397e-06
      SI    CUrea  1  0.0084865884  1.736663e-05
      SI    OUrea  1  0.005902468  5.9400999e-06
      SI    NUrea  1  0.0070294242  9.3640547e-06


; --- Appended from ATB 54a7 [ nonbond_params ] ---
	CH3p	O	1	4.663258E-03	5.162000E-06
	CH3p	OM	1	4.663258E-03	1.583702E-05
	CH3p	OA	1	4.663258E-03	5.678200E-06
	CH3p	OE	1	4.663258E-03	5.678200E-06
	CH3p	OW	1	5.016238E-03	8.377926E-06
	CH3p	N	1	4.839748E-03	7.861726E-06
	CH3p	NT	1	4.839748E-03	7.861726E-06
	CH3p	NL	1	4.839748E-03	7.861726E-06
	CH3p	NR	1	4.839748E-03	7.861726E-06
	CH3p	NZ	1	4.839748E-03	7.861726E-06
	CH3p	NE	1	4.839748E-03	7.861726E-06
	CH3p	C	1	4.743659E-03	1.146996E-05
	CH3p	CH0	1	4.800528E-03	7.397146E-05
	CH3p	CH1	1	7.638095E-03	5.084570E-05
	CH3p	CH2	1	8.473481E-03	3.008414E-05
	CH3p	CH3	1	9.613802E-03	2.664624E-05
	CH3p	CH4	1	1.125614E-02	3.025964E-05
	CH3p	CH2r	1	8.397002E-03	2.734311E-05
	CH3p	CR1	1	7.280212E-03	2.006986E-05
	CH3p	HC	1	9.020600E-04	6.349260E-07
	CH3p	H	1	0.000000E+00	0.000000E+00
	CH3p	DUM	1	0.000000E+00	0.000000E+00
	CH3p	S	1	9.797156E-03	1.866579E-05
	CH3p	CU1+	1	2.005122E-03	3.695476E-07
	CH3p	CU2+	1	2.005122E-03	3.695476E-07
	CH3p	FE	1	0.000000E+00	0.000000E+00
	CH3p	ZN2+	1	2.005122E-03	5.015399E-07
	CH3p	MG2+	1	7.922440E-04	3.013576E-07
	CH3p	CA2+	1	3.108185E-03	3.642823E-06
	CH3p	P	1	1.190327E-02	2.431818E-05
	CH3p	AR	1	7.760657E-03	1.619836E-05
	CH3p	F	1	3.365076E-03	4.502296E-06
	CH3p	CL	1	9.179441E-03	2.018858E-05
	CH3p	BR	1	1.630571E-02	4.177090E-05
	CH3p	CMet	1	9.237291E-03	2.271280E-05
	CH3p	OMet	1	4.663258E-03	7.872050E-06
	CH3p	NA+	1	8.706056E-04	1.393740E-06
	CH3p	CL-	1	1.109730E-02	4.013971E-05
	CH3p	CChl	1	5.029181E-03	1.040659E-05
	CH3p	CLChl	1	8.936375E-03	1.915154E-05
	CH3p	HChl	1	6.020270E-04	3.384930E-07
	CH3p	SDmso	1	1.007660E-02	2.393413E-05
	CH3p	CDmso	1	9.613802E-03	2.664624E-05
	CH3p	ODmso	1	4.672279E-03	4.474731E-06
	CH3p	CCl4	1	5.029181E-03	1.423060E-05
	CH3p	CLCl4	1	8.550058E-03	1.844486E-05
	CH3p	FTFE	1	3.365076E-03	5.162000E-06
	CH3p	CTFE	1	4.743659E-03	9.482594E-06
	CH3p	CHTFE	1	8.264634E-03	2.620747E-05
	CH3p	OTFE	1	4.663258E-03	6.333774E-06
	CH3p	CUrea	1	6.854283E-03	1.902920E-05
	CH3p	OUrea	1	4.767191E-03	6.508766E-06
	CH3p	NUrea	1	5.677389E-03	1.026051E-05
	SI	CH3p	1	1.190327E-02	2.431818E-05
   CLCl4        I 1  0.0186172       4.352158e-05   
   CLCl4    CLOpt 1  0.00716348      1.026223e-05   
   CLCl4        B 1  0.004218736     7.93965e-06    
   CLCl4       SE 1  0.008713024     1.292069e-05   
   CLCl4     HS14 1  0               0              
   CLCl4    CLAro 1  0.00716348      1.026223e-05   
   CLCl4    BROpt 1  0.01612677      3.9198e-05     
   CLCl4    OEOpt 1  0.004846576     7.807442e-06   
   CLCl4     NOpt 1  0.00792648      1.929528e-05   
   CLCl4     CAro 1  0.004218736     7.543025e-06   
   CLCl4     CPos 1  0.003924        3.5732e-06     
   CLCl4     NPri 1  0.0090688       2.50124e-05    
   CLCl4     NTer 1  0.00810088      1.60794e-05    
   CLCl4     OAlc 1  0.003673736     3.93052e-06    
   CUrea        I 1  0.01492578      4.490035e-05   
   CUrea    CLOpt 1  0.005743107     1.058734e-05   
   CUrea        B 1  0.003382246     8.191181e-06   
   CUrea       SE 1  0.006985407     1.333002e-05   
   CUrea     HS14 1  0               0              
   CUrea    CLAro 1  0.005743107     1.058734e-05   
   CUrea    BROpt 1  0.01292916      4.043981e-05   
   CUrea    OEOpt 1  0.003885598     8.054784e-06   
   CUrea     NOpt 1  0.006354819     1.990656e-05   
   CUrea     CAro 1  0.003382246     7.78199e-06    
   CUrea     CPos 1  0.00314595      3.6864e-06     
   CUrea     NPri 1  0.00727064      2.58048e-05    
   CUrea     NTer 1  0.006494639     1.65888e-05    
   CUrea     OAlc 1  0.002945308     4.05504e-06    
    CU2+        I 1  0.004366075     8.719662e-07   
    CU2+    CLOpt 1  0.001679968     2.056065e-07   
    CU2+        B 1  0.000989371     1.59073e-07    
    CU2+       SE 1  0.002043364     2.588694e-07   
    CU2+     HS14 1  0               0              
    CU2+    CLAro 1  0.001679968     2.056065e-07   
    CU2+    BROpt 1  0.003782023     7.853423e-07   
    CU2+    OEOpt 1  0.001136611     1.564241e-07   
    CU2+     NOpt 1  0.001858905     3.86586e-07    
    CU2+     CAro 1  0.000989371     1.511265e-07   
    CU2+     CPos 1  0.00092025      7.159e-08      
    CU2+     NPri 1  0.0021268       5.0113e-07     
    CU2+     NTer 1  0.001899805     3.22155e-07    
    CU2+     OAlc 1  0.0008615585    7.8749e-08     
    ZN2+        I 1  0.004366075     1.183409e-06   
    ZN2+    CLOpt 1  0.001679968     2.790435e-07   
    ZN2+        B 1  0.000989371     2.158895e-07   
    ZN2+       SE 1  0.002043364     3.513306e-07   
    ZN2+     HS14 1  0               0              
    ZN2+    CLAro 1  0.001679968     2.790435e-07   
    ZN2+    BROpt 1  0.003782023     1.065845e-06   
    ZN2+    OEOpt 1  0.001136611     2.122946e-07   
    ZN2+     NOpt 1  0.001858905     5.24664e-07    
    ZN2+     CAro 1  0.000989371     2.051048e-07   
    ZN2+     CPos 1  0.00092025      9.716e-08      
    ZN2+     NPri 1  0.0021268       6.8012e-07     
    ZN2+     NTer 1  0.001899805     4.3722e-07     
    ZN2+     OAlc 1  0.0008615585    1.06876e-07    
       O        I 1  0.01015406      1.218e-05      
       O    CLOpt 1  0.003907054     2.872e-06      
       O        B 1  0.002300953     2.222e-06      
       O       SE 1  0.004752195     3.616e-06      
       O     HS14 1  0               0              
       O    CLAro 1  0.003907054     2.872e-06      
       O    BROpt 1  0.008795746     1.097e-05      
       O    OEOpt 1  0.002643385     2.185e-06      
       O     NOpt 1  0.004323204     5.4e-06        
       O     CAro 1  0.002300953     2.111e-06      
       O     CPos 1  0.0021402       1e-06          
       O     NPri 1  0.00494624      7e-06          
       O     NTer 1  0.004418324     4.5e-06        
       O     OAlc 1  0.002003703     1.1e-06        
      NR        I 1  0.01053836      1.855014e-05   
      NR    CLOpt 1  0.004054924     4.374056e-06   
      NR        B 1  0.002388037     3.384106e-06   
      NR       SE 1  0.004932051     5.507168e-06   
      NR     HS14 1  0               0              
      NR    CLAro 1  0.004054924     4.374056e-06   
      NR    BROpt 1  0.009128638     1.670731e-05   
      NR    OEOpt 1  0.002743429     3.327755e-06   
      NR     NOpt 1  0.004486824     8.2242e-06     
      NR     CAro 1  0.002388037     3.215053e-06   
      NR     CPos 1  0.0022212       1.523e-06      
      NR     NPri 1  0.00513344      1.0661e-05     
      NR     NTer 1  0.004585544     6.8535e-06     
      NR     OAlc 1  0.002079537     1.6753e-06     
   ODmso        I 1  0.01017327      1.055835e-05   
   ODmso    CLOpt 1  0.003914448     2.489622e-06   
   ODmso        B 1  0.002305307     1.926163e-06   
   ODmso       SE 1  0.004761188     3.134566e-06   
   ODmso     HS14 1  0               0              
   ODmso    CLAro 1  0.003914448     2.489622e-06   
   ODmso    BROpt 1  0.008812391     9.509454e-06   
   ODmso    OEOpt 1  0.002648387     1.894089e-06   
   ODmso     NOpt 1  0.004331385     4.681044e-06   
   ODmso     CAro 1  0.002305307     1.829941e-06   
   ODmso     CPos 1  0.00214425      8.6686e-07     
   ODmso     NPri 1  0.0049556       6.06802e-06    
   ODmso     NTer 1  0.004426685     3.90087e-06    
   ODmso     OAlc 1  0.002007495     9.53546e-07    
    HChl        I 1  0.00131089      7.986913e-07   
    HChl    CLOpt 1  0.000504401     1.883285e-07   
    HChl        B 1  0.0002970532    1.457054e-07   
    HChl       SE 1  0.0006135088    2.371156e-07   
    HChl     HS14 1  0               0              
    HChl    CLAro 1  0.000504401     1.883285e-07   
    HChl    BROpt 1  0.001135532     7.193468e-07   
    HChl    OEOpt 1  0.0003412612    1.432792e-07   
    HChl     NOpt 1  0.000558126     3.540996e-07   
    HChl     CAro 1  0.0002970532    1.384267e-07   
    HChl     CPos 1  0.0002763       6.5574e-08     
    HChl     NPri 1  0.00063856      4.59018e-07    
    HChl     NTer 1  0.000570406     2.95083e-07    
    HChl     OAlc 1  0.0002586782    7.21314e-08    
     CL-        I 1  0.02416393      9.471168e-05   
     CL-    CLOpt 1  0.009297737     2.233267e-05   
     CL-        B 1  0.005475648     1.727827e-05   
     CL-       SE 1  0.01130895      2.811802e-05   
     CL-     HS14 1  0               0              
     CL-    CLAro 1  0.009297737     2.233267e-05   
     CL-    BROpt 1  0.02093151      8.530272e-05   
     CL-    OEOpt 1  0.006290544     1.699056e-05   
     CL-     NOpt 1  0.01028806      4.19904e-05    
     CL-     CAro 1  0.005475648     1.641514e-05   
     CL-     CPos 1  0.0050931       7.776e-06      
     CL-     NPri 1  0.01177072      5.4432e-05     
     CL-     NTer 1  0.01051442      3.4992e-05     
     CL-     OAlc 1  0.004768273     8.5536e-06     
    CCl4        I 1  0.01095041      3.357782e-05   
    CCl4    CLOpt 1  0.004213474     7.91753e-06    
    CCl4        B 1  0.00248141      6.12561e-06    
    CCl4       SE 1  0.005124897     9.968589e-06   
    CCl4     HS14 1  0               0              
    CCl4    CLAro 1  0.004213474     7.91753e-06    
    CCl4    BROpt 1  0.009485573     3.02421e-05    
    CCl4    OEOpt 1  0.002850698     6.023608e-06   
    CCl4     NOpt 1  0.004662261     1.488672e-05   
    CCl4     CAro 1  0.00248141      5.819605e-06   
    CCl4     CPos 1  0.00230805      2.7568e-06     
    CCl4     NPri 1  0.00533416      1.92976e-05    
    CCl4     NTer 1  0.004764841     1.24056e-05    
    CCl4     OAlc 1  0.002160848     3.03248e-06    
    CChl        I 1  0.01095041      2.455488e-05   
    CChl    CLOpt 1  0.004213474     5.789952e-06   
    CChl        B 1  0.00248141      4.479552e-06   
    CChl       SE 1  0.005124897     7.289856e-06   
    CChl     HS14 1  0               0              
    CChl    CLAro 1  0.004213474     5.789952e-06   
    CChl    BROpt 1  0.009485573     2.211552e-05   
    CChl    OEOpt 1  0.002850698     4.40496e-06    
    CChl     NOpt 1  0.004662261     1.08864e-05    
    CChl     CAro 1  0.00248141      4.255776e-06   
    CChl     CPos 1  0.00230805      2.016e-06      
    CChl     NPri 1  0.00533416      1.4112e-05     
    CChl     NTer 1  0.004764841     9.072e-06      
    CChl     OAlc 1  0.002160848     2.2176e-06     
      OE        I 1  0.01015406      1.3398e-05     
      OE    CLOpt 1  0.003907054     3.1592e-06     
      OE        B 1  0.002300953     2.4442e-06     
      OE       SE 1  0.004752195     3.9776e-06     
      OE     HS14 1  0               0              
      OE    CLAro 1  0.003907054     3.1592e-06     
      OE    BROpt 1  0.008795746     1.2067e-05     
      OE    OEOpt 1  0.002643385     2.4035e-06     
      OE     NOpt 1  0.004323204     5.94e-06       
      OE     CAro 1  0.002300953     2.3221e-06     
      OE     CPos 1  0.0021402       1.1e-06        
      OE     NPri 1  0.00494624      7.7e-06        
      OE     NTer 1  0.004418324     4.95e-06       
      OE     OAlc 1  0.002003703     1.21e-06       
       C        I 1  0.01032913      2.706396e-05   
       C    CLOpt 1  0.003974417     6.381584e-06   
       C        B 1  0.002340624     4.937284e-06   
       C       SE 1  0.00483413      8.034752e-06   
       C     HS14 1  0               0              
       C    CLAro 1  0.003974417     6.381584e-06   
       C    BROpt 1  0.008947397     2.437534e-05   
       C    OEOpt 1  0.00268896      4.85507e-06    
       C     NOpt 1  0.004397742     1.19988e-05    
       C     CAro 1  0.002340624     4.690642e-06   
       C     CPos 1  0.0021771       2.222e-06      
       C     NPri 1  0.00503152      1.5554e-05     
       C     NTer 1  0.004494502     9.999e-06      
       C     OAlc 1  0.002038249     2.4442e-06     
      BR        I 1  0.03550505      9.856056e-05   
      BR    CLOpt 1  0.01366155      2.324022e-05   
      BR        B 1  0.008045594     1.798042e-05   
      BR       SE 1  0.0166167       2.926067e-05   
      BR     HS14 1  0               0              
      BR    CLAro 1  0.01366155      2.324022e-05   
      BR    BROpt 1  0.03075552      8.876924e-05   
      BR    OEOpt 1  0.009242954     1.768102e-05   
      BR     NOpt 1  0.01511667      4.36968e-05    
      BR     CAro 1  0.008045594     1.708221e-05   
      BR     CPos 1  0.0074835       8.092e-06      
      BR     NPri 1  0.0172952       5.6644e-05     
      BR     NTer 1  0.01544927      3.6414e-05     
      BR     OAlc 1  0.007006219     8.9012e-06     
   NUrea        I 1  0.01236165      2.421019e-05   
   NUrea    CLOpt 1  0.004756485     5.708674e-06   
   NUrea        B 1  0.002801202     4.416669e-06   
   NUrea       SE 1  0.005785368     7.187523e-06   
   NUrea     HS14 1  0               0              
   NUrea    CLAro 1  0.004756485     5.708674e-06   
   NUrea    BROpt 1  0.01070803      2.180507e-05   
   NUrea    OEOpt 1  0.003218082     4.343124e-06   
   NUrea     NOpt 1  0.00526311      1.073358e-05   
   NUrea     CAro 1  0.002801202     4.196035e-06   
   NUrea     CPos 1  0.0026055       1.9877e-06     
   NUrea     NPri 1  0.0060216       1.39139e-05    
   NUrea     NTer 1  0.00537891      8.94465e-06    
   NUrea     OAlc 1  0.002439327     2.18647e-06    
      NT        I 1  0.01053836      1.855014e-05   
      NT    CLOpt 1  0.004054924     4.374056e-06   
      NT        B 1  0.002388037     3.384106e-06   
      NT       SE 1  0.004932051     5.507168e-06   
      NT     HS14 1  0               0              
      NT    CLAro 1  0.004054924     4.374056e-06   
      NT    BROpt 1  0.009128638     1.670731e-05   
      NT    OEOpt 1  0.002743429     3.327755e-06   
      NT     NOpt 1  0.004486824     8.2242e-06     
      NT     CAro 1  0.002388037     3.215053e-06   
      NT     CPos 1  0.0022212       1.523e-06      
      NT     NPri 1  0.00513344      1.0661e-05     
      NT     NTer 1  0.004585544     6.8535e-06     
      NT     OAlc 1  0.002079537     1.6753e-06     
     CR1        I 1  0.01585237      4.735584e-05   
     CR1    CLOpt 1  0.006099637     1.116634e-05   
     CR1        B 1  0.003592215     8.639136e-06   
     CR1       SE 1  0.00741906      1.405901e-05   
     CR1     HS14 1  0               0              
     CR1    CLAro 1  0.006099637     1.116634e-05   
     CR1    BROpt 1  0.01373179      4.265136e-05   
     CR1    OEOpt 1  0.004126815     8.49528e-06    
     CR1     NOpt 1  0.006749325     2.09952e-05    
     CR1     CAro 1  0.003592215     8.207568e-06   
     CR1     CPos 1  0.00334125      3.888e-06      
     CR1     NPri 1  0.007722        2.7216e-05     
     CR1     NTer 1  0.006897825     1.7496e-05     
     CR1     OAlc 1  0.003128153     4.2768e-06     
       S        I 1  0.02133292      4.404288e-05   
       S    CLOpt 1  0.008208428     1.038515e-05   
       S        B 1  0.00483413      8.034752e-06   
       S       SE 1  0.009984006     1.307546e-05   
       S     HS14 1  0               0              
       S    CLAro 1  0.008208428     1.038515e-05   
       S    BROpt 1  0.0184792       3.966752e-05   
       S    OEOpt 1  0.005553554     7.90096e-06    
       S     NOpt 1  0.009082728     1.95264e-05    
       S     CAro 1  0.00483413      7.633376e-06   
       S     CPos 1  0.0044964       3.616e-06      
       S     NPri 1  0.01039168      2.5312e-05     
       S     NTer 1  0.009282568     1.6272e-05     
       S     OAlc 1  0.00420963      3.9776e-06     
    CH3p        I 1  0.02093367      6.287316e-05   
    CH3p    CLOpt 1  0.008054808     1.482526e-05   
    CH3p        B 1  0.004743659     1.146996e-05   
    CH3p       SE 1  0.009797156     1.866579e-05   
    CH3p     HS14 1  0               0              
    CH3p    CLAro 1  0.008054808     1.482526e-05   
    CH3p    BROpt 1  0.01813337      5.662714e-05   
    CH3p    OEOpt 1  0.005449619     1.127897e-05   
    CH3p     NOpt 1  0.008912745     2.78748e-05    
    CH3p     CAro 1  0.004743659     1.089698e-05   
    CH3p     CPos 1  0.00441225      5.162e-06      
    CH3p     NPri 1  0.0101972       3.6134e-05     
    CH3p     NTer 1  0.009108845     2.3229e-05     
    CH3p     OAlc 1  0.004130846     5.6782e-06     
       H        I 1  0               0              
       H    CLOpt 1  0               0              
       H        B 1  0               0              
       H       SE 1  0               0              
       H     HS14 1  0               0              
       H    CLAro 1  0               0              
       H    BROpt 1  0               0              
       H    OEOpt 1  0               0              
       H     NOpt 1  0               0              
       H     CAro 1  0               0              
       H     CPos 1  0               0              
       H     NPri 1  0               0              
       H     NTer 1  0               0              
       H     OAlc 1  0               0              
    CA2+        I 1  0.00676795      8.595426e-06   
    CA2+    CLOpt 1  0.002604155     2.02677e-06    
    CA2+        B 1  0.001533646     1.568065e-06   
    CA2+       SE 1  0.003167464     2.551811e-06   
    CA2+     HS14 1  0               0              
    CA2+    CLAro 1  0.002604155     2.02677e-06    
    CA2+    BROpt 1  0.005862598     7.741529e-06   
    CA2+    OEOpt 1  0.001761886     1.541954e-06   
    CA2+     NOpt 1  0.00288153      3.81078e-06    
    CA2+     CAro 1  0.001533646     1.489733e-06   
    CA2+     CPos 1  0.0014265       7.057e-07      
    CA2+     NPri 1  0.0032968       4.9399e-06     
    CA2+     NTer 1  0.00294493      3.17565e-06    
    CA2+     OAlc 1  0.001335521     7.7627e-07     
       F        I 1  0.00732732      1.06234e-05    
       F    CLOpt 1  0.002819388     2.504958e-06   
       F        B 1  0.001660402     1.938028e-06   
       F       SE 1  0.003429254     3.153875e-06   
       F     HS14 1  0               0              
       F    CLAro 1  0.002819388     2.504958e-06   
       F    BROpt 1  0.006347141     9.568034e-06   
       F    OEOpt 1  0.001907506     1.905757e-06   
       F     NOpt 1  0.003119688     4.70988e-06    
       F     CAro 1  0.001660402     1.841214e-06   
       F     CPos 1  0.0015444       8.722e-07      
       F     NPri 1  0.00356928      6.1054e-06     
       F     NTer 1  0.003188328     3.9249e-06     
       F     OAlc 1  0.001445902     9.5942e-07     
       N        I 1  0.01053836      1.855014e-05   
       N    CLOpt 1  0.004054924     4.374056e-06   
       N        B 1  0.002388037     3.384106e-06   
       N       SE 1  0.004932051     5.507168e-06   
       N     HS14 1  0               0              
       N    CLAro 1  0.004054924     4.374056e-06   
       N    BROpt 1  0.009128638     1.670731e-05   
       N    OEOpt 1  0.002743429     3.327755e-06   
       N     NOpt 1  0.004486824     8.2242e-06     
       N     CAro 1  0.002388037     3.215053e-06   
       N     CPos 1  0.0022212       1.523e-06      
       N     NPri 1  0.00513344      1.0661e-05     
       N     NTer 1  0.004585544     6.8535e-06     
       N     OAlc 1  0.002079537     1.6753e-06     
     CH0        I 1  0.01045296      0.0001745394   
     CH0    CLOpt 1  0.004022064     4.115576e-05   
     CH0        B 1  0.002368685     3.184126e-05   
     CH0       SE 1  0.004892083     5.181728e-05   
     CH0     HS14 1  0               0              
     CH0    CLAro 1  0.004022064     4.115576e-05   
     CH0    BROpt 1  0.009054662     0.0001572001   
     CH0    OEOpt 1  0.002721197     3.131105e-05   
     CH0     NOpt 1  0.004450464     7.7382e-05     
     CH0     CAro 1  0.002368685     3.025063e-05   
     CH0     CPos 1  0.0022032       1.433e-05      
     CH0     NPri 1  0.00509184      0.00010031     
     CH0     NTer 1  0.004548384     6.4485e-05     
     CH0     OAlc 1  0.002062685     1.5763e-05     
   CLChl        I 1  0.01945839      4.518902e-05   
   CLChl    CLOpt 1  0.007487151     1.065541e-05   
   CLChl        B 1  0.004409353     8.243842e-06   
   CLChl       SE 1  0.009106709     1.341572e-05   
   CLChl     HS14 1  0               0              
   CLChl    CLAro 1  0.007487151     1.065541e-05   
   CLChl    BROpt 1  0.01685543      4.06998e-05    
   CLChl    OEOpt 1  0.005065561     8.106569e-06   
   CLChl     NOpt 1  0.008284626     2.003454e-05   
   CLChl     CAro 1  0.004409353     7.832021e-06   
   CLChl     CPos 1  0.0041013       3.7101e-06     
   CLChl     NPri 1  0.00947856      2.59707e-05    
   CLChl     NTer 1  0.008466906     1.669545e-05   
   CLChl     OAlc 1  0.003839728     4.08111e-06    
    FTFE        I 1  0.00732732      1.218e-05      
    FTFE    CLOpt 1  0.002819388     2.872e-06      
    FTFE        B 1  0.001660402     2.222e-06      
    FTFE       SE 1  0.003429254     3.616e-06      
    FTFE     HS14 1  0               0              
    FTFE    CLAro 1  0.002819388     2.872e-06      
    FTFE    BROpt 1  0.006347141     1.097e-05      
    FTFE    OEOpt 1  0.001907506     2.185e-06      
    FTFE     NOpt 1  0.003119688     5.4e-06        
    FTFE     CAro 1  0.001660402     2.111e-06      
    FTFE     CPos 1  0.0015444       1e-06          
    FTFE     NPri 1  0.00356928      7e-06          
    FTFE     NTer 1  0.003188328     4.5e-06        
    FTFE     OAlc 1  0.001445902     1.1e-06        
      SI        I 1  0.0259189       5.737998e-05   
      SI    CLOpt 1  0.00997301      1.352999e-05   
      SI        B 1  0.005873332     1.046784e-05   
      SI       SE 1  0.01213029      1.703498e-05   
      SI     HS14 1  0               0              
      SI    CLAro 1  0.00997301      1.352999e-05   
      SI    BROpt 1  0.02245172      5.167967e-05   
      SI    OEOpt 1  0.006747412     1.029353e-05   
      SI     NOpt 1  0.01103526      2.54394e-05    
      SI     CAro 1  0.005873332     9.944921e-06   
      SI     CPos 1  0.005463        4.711e-06      
      SI     NPri 1  0.0126256       3.2977e-05     
      SI     NTer 1  0.01127806      2.11995e-05    
      SI     OAlc 1  0.005114582     5.1821e-06     
   CDmso        I 1  0.02093367      6.287316e-05   
   CDmso    CLOpt 1  0.008054808     1.482526e-05   
   CDmso        B 1  0.004743659     1.146996e-05   
   CDmso       SE 1  0.009797156     1.866579e-05   
   CDmso     HS14 1  0               0              
   CDmso    CLAro 1  0.008054808     1.482526e-05   
   CDmso    BROpt 1  0.01813337      5.662714e-05   
   CDmso    OEOpt 1  0.005449619     1.127897e-05   
   CDmso     NOpt 1  0.008912745     2.78748e-05    
   CDmso     CAro 1  0.004743659     1.089698e-05   
   CDmso     CPos 1  0.00441225      5.162e-06      
   CDmso     NPri 1  0.0101972       3.6134e-05     
   CDmso     NTer 1  0.009108845     2.3229e-05     
   CDmso     OAlc 1  0.004130846     5.6782e-06     
     CH4        I 1  0.0245098       7.139916e-05   
     CH4    CLOpt 1  0.00943082      1.683566e-05   
     CH4        B 1  0.005554024     1.302536e-05   
     CH4       SE 1  0.01147082      2.119699e-05   
     CH4     HS14 1  0               0              
     CH4    CLAro 1  0.00943082      1.683566e-05   
     CH4    BROpt 1  0.02123111      6.430614e-05   
     CH4    OEOpt 1  0.006380584     1.280847e-05   
     CH4     NOpt 1  0.01043532      3.16548e-05    
     CH4     CAro 1  0.005554024     1.237468e-05   
     CH4     CPos 1  0.005166        5.862e-06      
     CH4     NPri 1  0.0119392       4.1034e-05     
     CH4     NTer 1  0.01066492      2.6379e-05     
     CH4     OAlc 1  0.004836524     6.4482e-06     
      FE        I 1  0               0              
      FE    CLOpt 1  0               0              
      FE        B 1  0               0              
      FE       SE 1  0               0              
      FE     HS14 1  0               0              
      FE    CLAro 1  0               0              
      FE    BROpt 1  0               0              
      FE    OEOpt 1  0               0              
      FE     NOpt 1  0               0              
      FE     CAro 1  0               0              
      FE     CPos 1  0               0              
      FE     NPri 1  0               0              
      FE     NTer 1  0               0              
      FE     OAlc 1  0               0              
    CTFE        I 1  0.01032913      2.237466e-05   
    CTFE    CLOpt 1  0.003974417     5.275864e-06   
    CTFE        B 1  0.002340624     4.081814e-06   
    CTFE       SE 1  0.00483413      6.642592e-06   
    CTFE     HS14 1  0               0              
    CTFE    CLAro 1  0.003974417     5.275864e-06   
    CTFE    BROpt 1  0.008947397     2.015189e-05   
    CTFE    OEOpt 1  0.00268896      4.013845e-06   
    CTFE     NOpt 1  0.004397742     9.9198e-06     
    CTFE     CAro 1  0.002340624     3.877907e-06   
    CTFE     CPos 1  0.0021771       1.837e-06      
    CTFE     NPri 1  0.00503152      1.2859e-05     
    CTFE     NTer 1  0.004494502     8.2665e-06     
    CTFE     OAlc 1  0.002038249     2.0207e-06     
      OA        I 1  0.01015406      1.3398e-05     
      OA    CLOpt 1  0.003907054     3.1592e-06     
      OA        B 1  0.002300953     2.4442e-06     
      OA       SE 1  0.004752195     3.9776e-06     
      OA     HS14 1  0               0              
      OA    CLAro 1  0.003907054     3.1592e-06     
      OA    BROpt 1  0.008795746     1.2067e-05     
      OA    OEOpt 1  0.002643385     2.4035e-06     
      OA     NOpt 1  0.004323204     5.94e-06       
      OA     CAro 1  0.002300953     2.3221e-06     
      OA     CPos 1  0.0021402       1.1e-06        
      OA     NPri 1  0.00494624      7.7e-06        
      OA     NTer 1  0.004418324     4.95e-06       
      OA     OAlc 1  0.002003703     1.21e-06       
      OW        I 1  0.01092266      1.976814e-05   
      OW    CLOpt 1  0.004202794     4.661256e-06   
      OW        B 1  0.002475121     3.606306e-06   
      OW       SE 1  0.005111907     5.868768e-06   
      OW     HS14 1  0               0              
      OW    CLAro 1  0.004202794     4.661256e-06   
      OW    BROpt 1  0.00946153      1.780431e-05   
      OW    OEOpt 1  0.002843473     3.546255e-06   
      OW     NOpt 1  0.004650444     8.7642e-06     
      OW     CAro 1  0.002475121     3.426153e-06   
      OW     CPos 1  0.0023022       1.623e-06      
      OW     NPri 1  0.00532064      1.1361e-05     
      OW     NTer 1  0.004752764     7.3035e-06     
      OW     OAlc 1  0.002155371     1.7853e-06     
     CH2        I 1  0.01845067      7.098504e-05   
     CH2    CLOpt 1  0.007099403     1.673802e-05   
     CH2        B 1  0.004181        1.294982e-05   
     CH2       SE 1  0.008635086     2.107405e-05   
     CH2     HS14 1  0               0              
     CH2    CLAro 1  0.007099403     1.673802e-05   
     CH2    BROpt 1  0.01598251      6.393316e-05   
     CH2    OEOpt 1  0.004803224     1.273418e-05   
     CH2     NOpt 1  0.007855578     3.14712e-05    
     CH2     CAro 1  0.004181        1.230291e-05   
     CH2     CPos 1  0.0038889       5.828e-06      
     CH2     NPri 1  0.00898768      4.0796e-05     
     CH2     NTer 1  0.008028418     2.6226e-05     
     CH2     OAlc 1  0.003640875     6.4108e-06     
   SDmso        I 1  0.02194139      5.647379e-05   
   SDmso    CLOpt 1  0.008442556     1.331632e-05   
   SDmso        B 1  0.004972013     1.030253e-05   
   SDmso       SE 1  0.01026878      1.676595e-05   
   SDmso     HS14 1  0               0              
   SDmso    CLAro 1  0.008442556     1.331632e-05   
   SDmso    BROpt 1  0.01900628      5.08635e-05    
   SDmso    OEOpt 1  0.005711957     1.013097e-05   
   SDmso     NOpt 1  0.009341793     2.503764e-05   
   SDmso     CAro 1  0.004972013     9.787863e-06   
   SDmso     CPos 1  0.00462465      4.6366e-06     
   SDmso     NPri 1  0.01068808      3.24562e-05    
   SDmso     NTer 1  0.009547333     2.08647e-05    
   SDmso     OAlc 1  0.0043297       5.10026e-06    
     DUM        I 1  0               0              
     DUM    CLOpt 1  0               0              
     DUM        B 1  0               0              
     DUM       SE 1  0               0              
     DUM     HS14 1  0               0              
     DUM    CLAro 1  0               0              
     DUM    BROpt 1  0               0              
     DUM    OEOpt 1  0               0              
     DUM     NOpt 1  0               0              
     DUM     CAro 1  0               0              
     DUM     CPos 1  0               0              
     DUM     NPri 1  0               0              
     DUM     NTer 1  0               0              
     DUM     OAlc 1  0               0              
     CH1        I 1  0.01663165      0.000119973    
     CH1    CLOpt 1  0.006399485     2.82892e-05    
     CH1        B 1  0.003768802     2.18867e-05    
     CH1       SE 1  0.007783768     3.56176e-05    
     CH1     HS14 1  0               0              
     CH1    CLAro 1  0.006399485     2.82892e-05    
     CH1    BROpt 1  0.01440683      0.0001080545   
     CH1    OEOpt 1  0.004329682     2.152225e-05   
     CH1     NOpt 1  0.00708111      5.319e-05      
     CH1     CAro 1  0.003768802     2.079335e-05   
     CH1     CPos 1  0.0035055       9.85e-06       
     CH1     NPri 1  0.0081016       6.895e-05      
     CH1     NTer 1  0.00723691      4.4325e-05     
     CH1     OAlc 1  0.003281927     1.0835e-05     
   CHTFE        I 1  0.01799592      6.183786e-05   
   CHTFE    CLOpt 1  0.006924424     1.458114e-05   
   CHTFE        B 1  0.00407795      1.128109e-05   
   CHTFE       SE 1  0.008422257     1.835843e-05   
   CHTFE     HS14 1  0               0              
   CHTFE    CLAro 1  0.006924424     1.458114e-05   
   CHTFE    BROpt 1  0.01558859      5.569469e-05   
   CHTFE    OEOpt 1  0.004684838     1.109324e-05   
   CHTFE     NOpt 1  0.007661961     2.74158e-05    
   CHTFE     CAro 1  0.00407795      1.071755e-05   
   CHTFE     CPos 1  0.00379305      5.077e-06      
   CHTFE     NPri 1  0.00876616      3.5539e-05     
   CHTFE     NTer 1  0.007830541     2.28465e-05    
   CHTFE     OAlc 1  0.003551138     5.5847e-06     
      NL        I 1  0.01053836      1.855014e-05   
      NL    CLOpt 1  0.004054924     4.374056e-06   
      NL        B 1  0.002388037     3.384106e-06   
      NL       SE 1  0.004932051     5.507168e-06   
      NL     HS14 1  0               0              
      NL    CLAro 1  0.004054924     4.374056e-06   
      NL    BROpt 1  0.009128638     1.670731e-05   
      NL    OEOpt 1  0.002743429     3.327755e-06   
      NL     NOpt 1  0.004486824     8.2242e-06     
      NL     CAro 1  0.002388037     3.215053e-06   
      NL     CPos 1  0.0022212       1.523e-06      
      NL     NPri 1  0.00513344      1.0661e-05     
      NL     NTer 1  0.004585544     6.8535e-06     
      NL     OAlc 1  0.002079537     1.6753e-06     
      AR        I 1  0.01689853      3.822084e-05   
      AR    CLOpt 1  0.006502172     9.012336e-06   
      AR        B 1  0.003829277     6.972636e-06   
      AR       SE 1  0.007908668     1.134701e-05   
      AR     HS14 1  0               0              
      AR    CLAro 1  0.006502172     9.012336e-06   
      AR    BROpt 1  0.014638        3.442386e-05   
      AR    OEOpt 1  0.004399157     6.85653e-06    
      AR     NOpt 1  0.007194735     1.69452e-05    
      AR     CAro 1  0.003829277     6.624318e-06   
      AR     CPos 1  0.00356175      3.138e-06      
      AR     NPri 1  0.0082316       2.1966e-05     
      AR     NTer 1  0.007353035     1.4121e-05     
      AR     OAlc 1  0.003334589     3.4518e-06     
    CH2r        I 1  0.01828414      6.451746e-05   
    CH2r    CLOpt 1  0.007035326     1.521298e-05   
    CH2r        B 1  0.004143263     1.176993e-05   
    CH2r       SE 1  0.008557149     1.915395e-05   
    CH2r     HS14 1  0               0              
    CH2r    CLAro 1  0.007035326     1.521298e-05   
    CH2r    BROpt 1  0.01583826      5.810809e-05   
    CH2r    OEOpt 1  0.004759871     1.157394e-05   
    CH2r     NOpt 1  0.007784676     2.86038e-05    
    CH2r     CAro 1  0.004143263     1.118197e-05   
    CH2r     CPos 1  0.0038538       5.297e-06      
    CH2r     NPri 1  0.00890656      3.7079e-05     
    CH2r     NTer 1  0.007955956     2.38365e-05    
    CH2r     OAlc 1  0.003608013     5.8267e-06     
     NA+        I 1  0.00189588      3.2886e-06     
     NA+    CLOpt 1  0.000729492     7.7544e-07     
     NA+        B 1  0.0004296144    5.9994e-07     
     NA+       SE 1  0.0008872896    9.7632e-07     
     NA+     HS14 1  0               0              
     NA+    CLAro 1  0.000729492     7.7544e-07     
     NA+    BROpt 1  0.001642267     2.9619e-06     
     NA+    OEOpt 1  0.0004935504    5.8995e-07     
     NA+     NOpt 1  0.000807192     1.458e-06      
     NA+     CAro 1  0.0004296144    5.6997e-07     
     NA+     CPos 1  0.0003996       2.7e-07        
     NA+     NPri 1  0.00092352      1.89e-06       
     NA+     NTer 1  0.000824952     1.215e-06      
     NA+     OAlc 1  0.0003741144    2.97e-07       
    OTFE        I 1  0.01015406      1.494486e-05   
    OTFE    CLOpt 1  0.003907054     3.523944e-06   
    OTFE        B 1  0.002300953     2.726394e-06   
    OTFE       SE 1  0.004752195     4.436832e-06   
    OTFE     HS14 1  0               0              
    OTFE    CLAro 1  0.003907054     3.523944e-06   
    OTFE    BROpt 1  0.008795746     1.346019e-05   
    OTFE    OEOpt 1  0.002643385     2.680995e-06   
    OTFE     NOpt 1  0.004323204     6.6258e-06     
    OTFE     CAro 1  0.002300953     2.590197e-06   
    OTFE     CPos 1  0.0021402       1.227e-06      
    OTFE     NPri 1  0.00494624      8.589e-06      
    OTFE     NTer 1  0.004418324     5.5215e-06     
    OTFE     OAlc 1  0.002003703     1.3497e-06     
    OMet        I 1  0.01015406      1.85745e-05    
    OMet    CLOpt 1  0.003907054     4.3798e-06     
    OMet        B 1  0.002300953     3.38855e-06    
    OMet       SE 1  0.004752195     5.5144e-06     
    OMet     HS14 1  0               0              
    OMet    CLAro 1  0.003907054     4.3798e-06     
    OMet    BROpt 1  0.008795746     1.672925e-05   
    OMet    OEOpt 1  0.002643385     3.332125e-06   
    OMet     NOpt 1  0.004323204     8.235e-06      
    OMet     CAro 1  0.002300953     3.219275e-06   
    OMet     CPos 1  0.0021402       1.525e-06      
    OMet     NPri 1  0.00494624      1.0675e-05     
    OMet     NTer 1  0.004418324     6.8625e-06     
    OMet     OAlc 1  0.002003703     1.6775e-06     
    CU1+        I 1  0.004366075     8.719662e-07   
    CU1+    CLOpt 1  0.001679968     2.056065e-07   
    CU1+        B 1  0.000989371     1.59073e-07    
    CU1+       SE 1  0.002043364     2.588694e-07   
    CU1+     HS14 1  0               0              
    CU1+    CLAro 1  0.001679968     2.056065e-07   
    CU1+    BROpt 1  0.003782023     7.853423e-07   
    CU1+    OEOpt 1  0.001136611     1.564241e-07   
    CU1+     NOpt 1  0.001858905     3.86586e-07    
    CU1+     CAro 1  0.000989371     1.511265e-07   
    CU1+     CPos 1  0.00092025      7.159e-08      
    CU1+     NPri 1  0.0021268       5.0113e-07     
    CU1+     NTer 1  0.001899805     3.22155e-07    
    CU1+     OAlc 1  0.0008615585    7.8749e-08     
   OUrea        I 1  0.01038037      1.535776e-05   
   OUrea    CLOpt 1  0.003994133     3.621305e-06   
   OUrea        B 1  0.002352236     2.80172e-06    
   OUrea       SE 1  0.00485811      4.559414e-06   
   OUrea     HS14 1  0               0              
   OUrea    CLAro 1  0.003994133     3.621305e-06   
   OUrea    BROpt 1  0.008991783     1.383207e-05   
   OUrea    OEOpt 1  0.0027023       2.755066e-06   
   OUrea     NOpt 1  0.004419558     6.80886e-06    
   OUrea     CAro 1  0.002352236     2.66176e-06    
   OUrea     CPos 1  0.0021879       1.2609e-06     
   OUrea     NPri 1  0.00505648      8.8263e-06     
   OUrea     NTer 1  0.004516798     5.67405e-06    
   OUrea     OAlc 1  0.002048361     1.38699e-06    
    CMet        I 1  0.02011384      5.3592e-05     
    CMet    CLOpt 1  0.007739351     1.26368e-05    
    CMet        B 1  0.00455788      9.7768e-06     
    CMet       SE 1  0.009413463     1.59104e-05    
    CMet     HS14 1  0               0              
    CMet    CLAro 1  0.007739351     1.26368e-05    
    CMet    BROpt 1  0.0174232       4.8268e-05     
    CMet    OEOpt 1  0.005236192     9.614e-06      
    CMet     NOpt 1  0.008563689     2.376e-05      
    CMet     CAro 1  0.00455788      9.2884e-06     
    CMet     CPos 1  0.00423945      4.4e-06        
    CMet     NPri 1  0.00979784      3.08e-05       
    CMet     NTer 1  0.008752109     1.98e-05       
    CMet     OAlc 1  0.003969067     4.84e-06       
      NZ        I 1  0.01053836      1.855014e-05   
      NZ    CLOpt 1  0.004054924     4.374056e-06   
      NZ        B 1  0.002388037     3.384106e-06   
      NZ       SE 1  0.004932051     5.507168e-06   
      NZ     HS14 1  0               0              
      NZ    CLAro 1  0.004054924     4.374056e-06   
      NZ    BROpt 1  0.009128638     1.670731e-05   
      NZ    OEOpt 1  0.002743429     3.327755e-06   
      NZ     NOpt 1  0.004486824     8.2242e-06     
      NZ     CAro 1  0.002388037     3.215053e-06   
      NZ     CPos 1  0.0022212       1.523e-06      
      NZ     NPri 1  0.00513344      1.0661e-05     
      NZ     NTer 1  0.004585544     6.8535e-06     
      NZ     OAlc 1  0.002079537     1.6753e-06     
     CH3        I 1  0.02093367      6.287316e-05   
     CH3    CLOpt 1  0.008054808     1.482526e-05   
     CH3        B 1  0.004743659     1.146996e-05   
     CH3       SE 1  0.009797156     1.866579e-05   
     CH3     HS14 1  0               0              
     CH3    CLAro 1  0.008054808     1.482526e-05   
     CH3    BROpt 1  0.01813337      5.662714e-05   
     CH3    OEOpt 1  0.005449619     1.127897e-05   
     CH3     NOpt 1  0.008912745     2.78748e-05    
     CH3     CAro 1  0.004743659     1.089698e-05   
     CH3     CPos 1  0.00441225      5.162e-06      
     CH3     NPri 1  0.0101972       3.6134e-05     
     CH3     NTer 1  0.009108845     2.3229e-05     
     CH3     OAlc 1  0.004130846     5.6782e-06     
       P        I 1  0.0259189       5.737998e-05   
       P    CLOpt 1  0.00997301      1.352999e-05   
       P        B 1  0.005873332     1.046784e-05   
       P       SE 1  0.01213029      1.703498e-05   
       P     HS14 1  0               0              
       P    CLAro 1  0.00997301      1.352999e-05   
       P    BROpt 1  0.02245172      5.167967e-05   
       P    OEOpt 1  0.006747412     1.029353e-05   
       P     NOpt 1  0.01103526      2.54394e-05    
       P     CAro 1  0.005873332     9.944921e-06   
       P     CPos 1  0.005463        4.711e-06      
       P     NPri 1  0.0126256       3.2977e-05     
       P     NTer 1  0.01127806      2.11995e-05    
       P     OAlc 1  0.005114582     5.1821e-06     
      NE        I 1  0.01053836      1.855014e-05   
      NE    CLOpt 1  0.004054924     4.374056e-06   
      NE        B 1  0.002388037     3.384106e-06   
      NE       SE 1  0.004932051     5.507168e-06   
      NE     HS14 1  0               0              
      NE    CLAro 1  0.004054924     4.374056e-06   
      NE    BROpt 1  0.009128638     1.670731e-05   
      NE    OEOpt 1  0.002743429     3.327755e-06   
      NE     NOpt 1  0.004486824     8.2242e-06     
      NE     CAro 1  0.002388037     3.215053e-06   
      NE     CPos 1  0.0022212       1.523e-06      
      NE     NPri 1  0.00513344      1.0661e-05     
      NE     NTer 1  0.004585544     6.8535e-06     
      NE     OAlc 1  0.002079537     1.6753e-06     
    MG2+        I 1  0.00172508      7.110684e-07   
    MG2+    CLOpt 1  0.000663772     1.676674e-07   
    MG2+        B 1  0.0003909104    1.297204e-07   
    MG2+       SE 1  0.0008073536    2.111021e-07   
    MG2+     HS14 1  0               0              
    MG2+    CLAro 1  0.000663772     1.676674e-07   
    MG2+    BROpt 1  0.001494315     6.404286e-07   
    MG2+    OEOpt 1  0.0004490864    1.275603e-07   
    MG2+     NOpt 1  0.000734472     3.15252e-07    
    MG2+     CAro 1  0.0003909104    1.232402e-07   
    MG2+     CPos 1  0.0003636       5.838e-08      
    MG2+     NPri 1  0.00084032      4.0866e-07     
    MG2+     NTer 1  0.000750632     2.6271e-07     
    MG2+     OAlc 1  0.0003404104    6.4218e-08     
      CL        I 1  0.01998787      4.763598e-05   
      CL    CLOpt 1  0.007690883     1.123239e-05   
      CL        B 1  0.004529336     8.690242e-06   
      CL       SE 1  0.00935451      1.414218e-05   
      CL     HS14 1  0               0              
      CL    CLAro 1  0.007690883     1.123239e-05   
      CL    BROpt 1  0.01731408      4.290367e-05   
      CL    OEOpt 1  0.0052034       8.545535e-06   
      CL     NOpt 1  0.008510058     2.11194e-05    
      CL     CAro 1  0.004529336     8.256121e-06   
      CL     CPos 1  0.0042129       3.911e-06      
      CL     NPri 1  0.00973648      2.7377e-05     
      CL     NTer 1  0.008697298     1.75995e-05    
      CL     OAlc 1  0.003944211     4.3021e-06     
      OM        I 1  0.01015406      1.04882e-05    
      OM    CLOpt 1  0.003907054     2.473079e-06   
      OM        B 1  0.002300953     1.913364e-06   
      OM       SE 1  0.004752195     3.113738e-06   
      OM     HS14 1  0               0              
      OM    CLAro 1  0.003907054     2.473079e-06   
      OM    BROpt 1  0.008795746     9.446267e-06   
      OM    OEOpt 1  0.002643385     1.881503e-06   
      OM     NOpt 1  0.004323204     4.64994e-06    
      OM     CAro 1  0.002300953     1.817782e-06   
      OM     CPos 1  0.0021402       8.611e-07      
      OM     NPri 1  0.00494624      6.0277e-06     
      OM     NTer 1  0.004418324     3.87495e-06    
      OM     OAlc 1  0.002003703     9.4721e-07     
      HC        I 1  0.0019642       1.49814e-06    
      HC    CLOpt 1  0.00075578      3.53256e-07    
      HC        B 1  0.000445096     2.73306e-07    
      HC       SE 1  0.000919264     4.44768e-07    
      HC     HS14 1  0               0              
      HC    CLAro 1  0.00075578      3.53256e-07    
      HC    BROpt 1  0.001701448     1.34931e-06    
      HC    OEOpt 1  0.000511336     2.68755e-07    
      HC     NOpt 1  0.00083628      6.642e-07      
      HC     CAro 1  0.000445096     2.59653e-07    
      HC     CPos 1  0.000414        1.23e-07       
      HC     NPri 1  0.0009568       8.61e-07       
      HC     NTer 1  0.00085468      5.535e-07      
      HC     OAlc 1  0.000387596     1.353e-07      
       I    CLOpt 1  0.01753902      3.498096e-05   
       I        B 1  0.01032913      2.706396e-05   
       I       SE 1  0.02133292      4.404288e-05   
       I     HS14 1  0               0              
       I    CLAro 1  0.01753902      3.498096e-05   
       I    BROpt 1  0.03948469      0.0001336146   
       I    OEOpt 1  0.01186633      2.66133e-05    
       I     NOpt 1  0.01940715      6.5772e-05     
       I     CAro 1  0.01032913      2.571198e-05   
       I     CPos 1  0.0096075       1.218e-05      
       I     NPri 1  0.022204        8.526e-05      
       I     NTer 1  0.01983415      5.481e-05      
       I     OAlc 1  0.008994755     1.3398e-05     
   CLOpt        I 1  0.01753902      3.498096e-05   
   CLOpt        B 1  0.003974417     6.381584e-06   
   CLOpt       SE 1  0.008208428     1.038515e-05   
   CLOpt     HS14 1  0               0              
   CLOpt    CLAro 1  0.006748622     8.248384e-06   
   CLOpt    BROpt 1  0.01519282      3.150584e-05   
   CLOpt    OEOpt 1  0.004565897     6.27532e-06    
   CLOpt     NOpt 1  0.007467435     1.55088e-05    
   CLOpt     CAro 1  0.003974417     6.062792e-06   
   CLOpt     CPos 1  0.00369675      2.872e-06      
   CLOpt     NPri 1  0.0085436       2.0104e-05     
   CLOpt     NTer 1  0.007631735     1.2924e-05     
   CLOpt     OAlc 1  0.00346098      3.1592e-06     
       B        I 1  0.01032913      2.706396e-05   
       B    CLOpt 1  0.003974417     6.381584e-06   
       B       SE 1  0.00483413      8.034752e-06   
       B     HS14 1  0               0              
       B    CLAro 1  0.003974417     6.381584e-06   
       B    BROpt 1  0.008947397     2.437534e-05   
       B    OEOpt 1  0.00268896      4.85507e-06    
       B     NOpt 1  0.004397742     1.19988e-05    
       B     CAro 1  0.002340624     4.690642e-06   
       B     CPos 1  0.0021771       2.222e-06      
       B     NPri 1  0.00503152      1.5554e-05     
       B     NTer 1  0.004494502     9.999e-06      
       B     OAlc 1  0.002038249     2.4442e-06     
      SE        I 1  0.02133292      4.404288e-05   
      SE    CLOpt 1  0.008208428     1.038515e-05   
      SE        B 1  0.00483413      8.034752e-06   
      SE     HS14 1  0               0              
      SE    CLAro 1  0.008208428     1.038515e-05   
      SE    BROpt 1  0.0184792       3.966752e-05   
      SE    OEOpt 1  0.005553554     7.90096e-06    
      SE     NOpt 1  0.009082728     1.95264e-05    
      SE     CAro 1  0.00483413      7.633376e-06   
      SE     CPos 1  0.0044964       3.616e-06      
      SE     NPri 1  0.01039168      2.5312e-05     
      SE     NTer 1  0.009282568     1.6272e-05     
      SE     OAlc 1  0.00420963      3.9776e-06     
    HS14        I 1  0               0              
    HS14    CLOpt 1  0               0              
    HS14        B 1  0               0              
    HS14       SE 1  0               0              
    HS14    CLAro 1  0               0              
    HS14    BROpt 1  0               0              
    HS14    OEOpt 1  0               0              
    HS14     NOpt 1  0               0              
    HS14     CAro 1  0               0              
    HS14     CPos 1  0               0              
    HS14     NPri 1  0               0              
    HS14     NTer 1  0               0              
    HS14     OAlc 1  0               0              
   CLAro        I 1  0.01753902      3.498096e-05   
   CLAro    CLOpt 1  0.006748622     8.248384e-06   
   CLAro        B 1  0.003974417     6.381584e-06   
   CLAro       SE 1  0.008208428     1.038515e-05   
   CLAro     HS14 1  0               0              
   CLAro    BROpt 1  0.01519282      3.150584e-05   
   CLAro    OEOpt 1  0.004565897     6.27532e-06    
   CLAro     NOpt 1  0.007467435     1.55088e-05    
   CLAro     CAro 1  0.003974417     6.062792e-06   
   CLAro     CPos 1  0.00369675      2.872e-06      
   CLAro     NPri 1  0.0085436       2.0104e-05     
   CLAro     NTer 1  0.007631735     1.2924e-05     
   CLAro     OAlc 1  0.00346098      3.1592e-06     
   BROpt        I 1  0.03948469      0.0001336146   
   BROpt    CLOpt 1  0.01519282      3.150584e-05   
   BROpt        B 1  0.008947397     2.437534e-05   
   BROpt       SE 1  0.0184792       3.966752e-05   
   BROpt     HS14 1  0               0              
   BROpt    CLAro 1  0.01519282      3.150584e-05   
   BROpt    OEOpt 1  0.01027897      2.396945e-05   
   BROpt     NOpt 1  0.01681105      5.9238e-05     
   BROpt     CAro 1  0.008947397     2.315767e-05   
   BROpt     CPos 1  0.0083223       1.097e-05      
   BROpt     NPri 1  0.01923376      7.679e-05      
   BROpt     NTer 1  0.01718093      4.9365e-05     
   BROpt     OAlc 1  0.007791522     1.2067e-05     
   OEOpt        I 1  0.01186633      2.66133e-05    
   OEOpt    CLOpt 1  0.004565897     6.27532e-06    
   OEOpt        B 1  0.00268896      4.85507e-06    
   OEOpt       SE 1  0.005553554     7.90096e-06    
   OEOpt     HS14 1  0               0              
   OEOpt    CLAro 1  0.004565897     6.27532e-06    
   OEOpt    BROpt 1  0.01027897      2.396945e-05   
   OEOpt     NOpt 1  0.005052222     1.1799e-05     
   OEOpt     CAro 1  0.00268896      4.612535e-06   
   OEOpt     CPos 1  0.0025011       2.185e-06      
   OEOpt     NPri 1  0.00578032      1.5295e-05     
   OEOpt     NTer 1  0.005163382     9.8325e-06     
   OEOpt     OAlc 1  0.002341585     2.4035e-06     
    NOpt        I 1  0.01940715      6.5772e-05     
    NOpt    CLOpt 1  0.007467435     1.55088e-05    
    NOpt        B 1  0.004397742     1.19988e-05    
    NOpt       SE 1  0.009082728     1.95264e-05    
    NOpt     HS14 1  0               0              
    NOpt    CLAro 1  0.007467435     1.55088e-05    
    NOpt    BROpt 1  0.01681105      5.9238e-05     
    NOpt    OEOpt 1  0.005052222     1.1799e-05     
    NOpt     CAro 1  0.004397742     1.13994e-05    
    NOpt     CPos 1  0.0040905       5.4e-06        
    NOpt     NPri 1  0.0094536       3.78e-05       
    NOpt     NTer 1  0.00844461      2.43e-05       
    NOpt     OAlc 1  0.003829617     5.94e-06       
    CAro        I 1  0.01032913      2.571198e-05   
    CAro    CLOpt 1  0.003974417     6.062792e-06   
    CAro        B 1  0.002340624     4.690642e-06   
    CAro       SE 1  0.00483413      7.633376e-06   
    CAro     HS14 1  0               0              
    CAro    CLAro 1  0.003974417     6.062792e-06   
    CAro    BROpt 1  0.008947397     2.315767e-05   
    CAro    OEOpt 1  0.00268896      4.612535e-06   
    CAro     NOpt 1  0.004397742     1.13994e-05    
    CAro     CPos 1  0.0021771       2.111e-06      
    CAro     NPri 1  0.00503152      1.4777e-05     
    CAro     NTer 1  0.004494502     9.4995e-06     
    CAro     OAlc 1  0.002038249     2.3221e-06     
    CPos        I 1  0.0096075       1.218e-05      
    CPos    CLOpt 1  0.00369675      2.872e-06      
    CPos        B 1  0.0021771       2.222e-06      
    CPos       SE 1  0.0044964       3.616e-06      
    CPos     HS14 1  0               0              
    CPos    CLAro 1  0.00369675      2.872e-06      
    CPos    BROpt 1  0.0083223       1.097e-05      
    CPos    OEOpt 1  0.0025011       2.185e-06      
    CPos     NOpt 1  0.0040905       5.4e-06        
    CPos     CAro 1  0.0021771       2.111e-06      
    CPos     NPri 1  0.00468         7e-06          
    CPos     NTer 1  0.0041805       4.5e-06        
    CPos     OAlc 1  0.00189585      1.1e-06        
    NPri        I 1  0.022204        8.526e-05      
    NPri    CLOpt 1  0.0085436       2.0104e-05     
    NPri        B 1  0.00503152      1.5554e-05     
    NPri       SE 1  0.01039168      2.5312e-05     
    NPri     HS14 1  0               0              
    NPri    CLAro 1  0.0085436       2.0104e-05     
    NPri    BROpt 1  0.01923376      7.679e-05      
    NPri    OEOpt 1  0.00578032      1.5295e-05     
    NPri     NOpt 1  0.0094536       3.78e-05       
    NPri     CAro 1  0.00503152      1.4777e-05     
    NPri     CPos 1  0.00468         7e-06          
    NPri     NTer 1  0.0096616       3.15e-05       
    NPri     OAlc 1  0.00438152      7.7e-06        
    NTer        I 1  0.01983415      5.481e-05      
    NTer    CLOpt 1  0.007631735     1.2924e-05     
    NTer        B 1  0.004494502     9.999e-06      
    NTer       SE 1  0.009282568     1.6272e-05     
    NTer     HS14 1  0               0              
    NTer    CLAro 1  0.007631735     1.2924e-05     
    NTer    BROpt 1  0.01718093      4.9365e-05     
    NTer    OEOpt 1  0.005163382     9.8325e-06     
    NTer     NOpt 1  0.00844461      2.43e-05       
    NTer     CAro 1  0.004494502     9.4995e-06     
    NTer     CPos 1  0.0041805       4.5e-06        
    NTer     NPri 1  0.0096616       3.15e-05       
    NTer     OAlc 1  0.003913877     4.95e-06       
    OAlc        I 1  0.008994755     1.3398e-05     
    OAlc    CLOpt 1  0.00346098      3.1592e-06     
    OAlc        B 1  0.002038249     2.4442e-06     
    OAlc       SE 1  0.00420963      3.9776e-06     
    OAlc     HS14 1  0               0              
    OAlc    CLAro 1  0.00346098      3.1592e-06     
    OAlc    BROpt 1  0.007791522     1.2067e-05     
    OAlc    OEOpt 1  0.002341585     2.4035e-06     
    OAlc     NOpt 1  0.003829617     5.94e-06       
    OAlc     CAro 1  0.002038249     2.3221e-06     
    OAlc     CPos 1  0.00189585      1.1e-06        
    OAlc     NPri 1  0.00438152      7.7e-06        
    OAlc     NTer 1  0.003913877     4.95e-06       

[ pairtypes ]
; i    j func          c6           c12 
   LO    LO     1 2.95200e-04  1.98700e-07
   LO   LOM     1 2.95200e-04  1.98700e-07
   LO    OW     1 3.12800e-04  2.58400e-07
   LO   LNL     1 3.51800e-04  3.13300e-07
   LO    LC     1 4.24600e-04  5.80900e-07
   LO   LH1     1 3.85500e-04  5.49000e-07
   LO   LH2     1 5.08200e-04  7.85200e-07
   LO    H     1 0.00000e+00  0.00000e+00
   LO    LP     1 5.81300e-04  7.89000e-07
   LO   LOS     1 3.07500e-04  2.15300e-07
   LO   LP2     1 4.65700e-04  7.50000e-07
   LO   LP3     1 5.69000e-04  9.16800e-07
   LO   LC3     1 5.87600e-04  9.46600e-07
   LO   LC2     1 4.68500e-04  6.66800e-07
  LOM   LOM     1 2.95200e-04  1.98700e-07
  LOM    OW     1 3.12800e-04  2.58400e-07
  LOM   LNL     1 3.51800e-04  3.13300e-07
  LOM    LC     1 4.24600e-04  5.80900e-07
  LOM   LH1     1 3.85500e-04  5.49000e-07
  LOM   LH2     1 5.08200e-04  7.85200e-07
  LOM    H     1 0.00000e+00  0.00000e+00
  LOM    LP     1 5.81300e-04  7.89000e-07
  LOM   LOS     1 3.07500e-04  2.15300e-07
  LOM   LP2     1 4.65700e-04  7.50000e-07
  LOM   LP3     1 5.69000e-04  9.16800e-07
  LOM   LC3     1 5.87600e-04  9.46600e-07
  LOM   LC2     1 4.68500e-04  6.66800e-07
   OW    OW     1 3.31400e-04  3.36000e-07
   OW   LNL     1 3.72700e-04  4.07400e-07
   OW    LC     1 4.49800e-04  7.55600e-07
   OW   LH1     1 4.08500e-04  7.14100e-07
   OW   LH2     1 5.38500e-04  1.02100e-06
   OW    H     1 0.00000e+00  0.00000e+00
   OW    LP     1 6.15900e-04  1.02600e-06
   OW   LOS     1 3.25800e-04  2.80100e-07
   OW   LP2     1 4.93400e-04  9.75400e-07
   OW   LP3     1 6.02900e-04  1.19200e-06
   OW   LC3     1 6.22600e-04  1.23100e-06
   OW   LC2     1 4.96400e-04  8.67300e-07
  LNL   LNL     1 4.19200e-04  4.94000e-07
  LNL    LC     1 5.05900e-04  9.16100e-07
  LNL   LH1     1 4.59400e-04  8.65700e-07
  LNL   LH2     1 6.05600e-04  1.23800e-06
  LNL    H     1 0.00000e+00  0.00000e+00
  LNL    LP     1 6.92700e-04  1.24400e-06
  LNL   LOS     1 3.66500e-04  3.39600e-07
  LNL   LP2     1 5.54900e-04  1.18300e-06
  LNL   LP3     1 6.78100e-04  1.44600e-06
  LNL   LC3     1 7.00300e-04  1.49300e-06
  LNL   LC2     1 5.58300e-04  1.05100e-06
   LC    LC     1 6.10600e-04  1.69900e-06
   LC   LH1     1 5.54500e-04  1.60500e-06
   LC   LH2     1 7.30800e-04  2.29600e-06
   LC    H     1 0.00000e+00  0.00000e+00
   LC    LP     1 8.36000e-04  2.30700e-06
   LC   LOS     1 4.42200e-04  6.29700e-07
   LC   LP2     1 6.69700e-04  2.19300e-06
   LC   LP3     1 8.18300e-04  2.68100e-06
   LC   LC3     1 8.45100e-04  2.76800e-06
   LC   LC2     1 6.73700e-04  1.95000e-06
  LH1   LH1     1 5.03500e-04  1.51700e-06
  LH1   LH2     1 6.63700e-04  2.17000e-06
  LH1    H     1 0.00000e+00  0.00000e+00
  LH1    LP     1 7.59200e-04  2.18000e-06
  LH1   LOS     1 4.01600e-04  5.95100e-07
  LH1   LP2     1 6.08200e-04  2.07300e-06
  LH1   LP3     1 7.43100e-04  2.53400e-06
  LH1   LC3     1 7.67400e-04  2.61600e-06
  LH1   LC2     1 6.11800e-04  1.84300e-06
  LH2   LH2     1 8.74800e-04  3.10400e-06
  LH2    H     1 0.00000e+00  0.00000e+00
  LH2    LP     1 1.00100e-03  3.11900e-06
  LH2   LOS     1 5.29400e-04  8.51200e-07
  LH2   LP2     1 8.01600e-04  2.96400e-06
  LH2   LP3     1 9.79500e-04  3.62400e-06
  LH2   LC3     1 1.01200e-03  3.74200e-06
  LH2   LC2     1 8.06500e-04  2.63600e-06
   H    H     1 0.00000e+00  0.00000e+00
   H    LP     1 0.00000e+00  0.00000e+00
   H   LOS     1 0.00000e+00  0.00000e+00
   H   LP2     1 0.00000e+00  0.00000e+00
   H   LP3     1 0.00000e+00  0.00000e+00
   H   LC3     1 0.00000e+00  0.00000e+00
   H   LC2     1 0.00000e+00  0.00000e+00
   LP    LP     1 1.14500e-03  3.13300e-06
   LP   LOS     1 6.05500e-04  8.55200e-07
   LP   LP2     1 9.16900e-04  2.97800e-06
   LP   LP3     1 1.12000e-03  3.64100e-06
   LP   LC3     1 1.15700e-03  3.76000e-06
   LP   LC2     1 9.22500e-04  2.64800e-06
  LOS   LOS     1 3.20300e-04  2.33400e-07
  LOS   LP2     1 4.85100e-04  8.12900e-07
  LOS   LP3     1 5.92700e-04  9.93800e-07
  LOS   LC3     1 6.12100e-04  1.02600e-06
  LOS   LC2     1 4.88000e-04  7.22800e-07
  LP2   LP2     1 7.34600e-04  2.83100e-06
  LP2   LP3     1 8.97500e-04  3.46100e-06
  LP2   LC3     1 9.26900e-04  3.57400e-06
  LP2   LC2     1 7.39000e-04  2.51700e-06
  LP3   LP3     1 1.09700e-03  4.23100e-06
  LP3   LC3     1 1.13300e-03  4.36900e-06
  LP3   LC2     1 9.03000e-04  3.07700e-06
  LC3   LC3     1 1.17000e-03  4.51100e-06
  LC3   LC2     1 9.32500e-04  3.17700e-06
  LC2   LC2     1 7.43500e-04  2.23800e-06
       O        O  1  0.0022619536  7.4149321e-07
      OM        O  1  0.0022619536  7.4149321e-07
      OM       OM  1  0.0022619536  7.4149321e-07
      OA        O  1  0.0022619536  9.687375e-07
      OA       OM  1  0.0022619536  9.687375e-07
      OA       OA  1  0.0022619536  1.265625e-06
      OE        O  1  0.0022619536  9.687375e-07
      OE       OM  1  0.0022619536  9.687375e-07
      OE       OA  1  0.0022619536  1.265625e-06
      OE       OE  1  0.0022619536  1.265625e-06
      OW        O  1  0.0024331696  1.3975653e-06
      OW       OM  1  0.0024331696  1.3975653e-06
      OW       OA  1  0.0024331696  1.825875e-06
      OW       OE  1  0.0024331696  1.825875e-06
       N        O  1  0.0023475616  1.1202911e-06
       N       OM  1  0.0023475616  1.1202911e-06
       N       OA  1  0.0023475616  1.463625e-06
       N       OE  1  0.0023475616  1.463625e-06
       N       OW  1  0.0025252576  2.111523e-06
       N        N  1  0.0024364096  1.692601e-06
      NT        O  1  0.0023475616  1.1202911e-06
      NT       OM  1  0.0023475616  1.1202911e-06
      NT       OA  1  0.0023475616  1.463625e-06
      NT       OE  1  0.0023475616  1.463625e-06
      NT       OW  1  0.0025252576  2.111523e-06
      NT        N  1  0.0024364096  1.692601e-06
      NT       NT  1  0.0024364096  1.692601e-06
      NL        O  1  0.0023475616  1.1202911e-06
      NL       OM  1  0.0023475616  1.1202911e-06
      NL       OA  1  0.0023475616  1.463625e-06
      NL       OE  1  0.0023475616  1.463625e-06
      NL       OW  1  0.0025252576  2.111523e-06
      NL        N  1  0.0024364096  1.692601e-06
      NL       NT  1  0.0024364096  1.692601e-06
      NL       NL  1  0.0024364096  1.692601e-06
      NR        O  1  0.0023475616  1.1202911e-06
      NR       OM  1  0.0023475616  1.1202911e-06
      NR       OA  1  0.0023475616  1.463625e-06
      NR       OE  1  0.0023475616  1.463625e-06
      NR       OW  1  0.0025252576  2.111523e-06
      NR        N  1  0.0024364096  1.692601e-06
      NR       NT  1  0.0024364096  1.692601e-06
      NR       NL  1  0.0024364096  1.692601e-06
      NR       NR  1  0.0024364096  1.692601e-06
      NZ        O  1  0.0023475616  1.1202911e-06
      NZ       OM  1  0.0023475616  1.1202911e-06
      NZ       OA  1  0.0023475616  1.463625e-06
      NZ       OE  1  0.0023475616  1.463625e-06
      NZ       OW  1  0.0025252576  2.111523e-06
      NZ        N  1  0.0024364096  1.692601e-06
      NZ       NT  1  0.0024364096  1.692601e-06
      NZ       NL  1  0.0024364096  1.692601e-06
      NZ       NR  1  0.0024364096  1.692601e-06
      NZ       NZ  1  0.0024364096  1.692601e-06
      NE        O  1  0.0023475616  1.1202911e-06
      NE       OM  1  0.0023475616  1.1202911e-06
      NE       OA  1  0.0023475616  1.463625e-06
      NE       OE  1  0.0023475616  1.463625e-06
      NE       OW  1  0.0025252576  2.111523e-06
      NE        N  1  0.0024364096  1.692601e-06
      NE       NT  1  0.0024364096  1.692601e-06
      NE       NL  1  0.0024364096  1.692601e-06
      NE       NR  1  0.0024364096  1.692601e-06
      NE       NZ  1  0.0024364096  1.692601e-06
      NE       NE  1  0.0024364096  1.692601e-06
       C        O  1  0.0023009528  1.5818407e-06
       C       OM  1  0.0023009528  1.5818407e-06
       C       OA  1  0.0023009528  2.066625e-06
       C       OE  1  0.0023009528  2.066625e-06
       C       OW  1  0.0024751208  2.981451e-06
       C        N  1  0.0023880368  2.389937e-06
       C       NT  1  0.0023880368  2.389937e-06
       C       NL  1  0.0023880368  2.389937e-06
       C       NR  1  0.0023880368  2.389937e-06
       C       NZ  1  0.0023880368  2.389937e-06
       C       NE  1  0.0023880368  2.389937e-06
       C        C  1  0.0023406244  3.374569e-06
     CH0        O  1  0.0023009528  1.5818407e-06
     CH0       OM  1  0.0023009528  1.5818407e-06
     CH0       OA  1  0.0023009528  2.066625e-06
     CH0       OE  1  0.0023009528  2.066625e-06
     CH0       OW  1  0.0024751208  2.981451e-06
     CH0        N  1  0.0023880368  2.389937e-06
     CH0       NT  1  0.0023880368  2.389937e-06
     CH0       NL  1  0.0023880368  2.389937e-06
     CH0       NR  1  0.0023880368  2.389937e-06
     CH0       NZ  1  0.0023880368  2.389937e-06
     CH0       NE  1  0.0023880368  2.389937e-06
     CH0        C  1  0.0023406244  3.374569e-06
     CH0      CH0  1  0.0023406244  3.374569e-06
     CH1        O  1  0.0025663376  1.6645063e-06
     CH1       OM  1  0.0025663376  1.6645063e-06
     CH1       OA  1  0.0025663376  2.174625e-06
     CH1       OE  1  0.0025663376  2.174625e-06
     CH1       OW  1  0.0027605936  3.137259e-06
     CH1        N  1  0.0026634656  2.514833e-06
     CH1       NT  1  0.0026634656  2.514833e-06
     CH1       NL  1  0.0026634656  2.514833e-06
     CH1       NR  1  0.0026634656  2.514833e-06
     CH1       NZ  1  0.0026634656  2.514833e-06
     CH1       NE  1  0.0026634656  2.514833e-06
     CH1        C  1  0.0026105848  3.550921e-06
     CH1      CH0  1  0.0026105848  3.550921e-06
     CH1      CH1  1  0.0029116816  3.736489e-06
     CH2        O  1  0.0032687988  1.8751283e-06
     CH2       OM  1  0.0032687988  1.8751283e-06
     CH2       OA  1  0.0032687988  2.4497959e-06
     CH2       OE  1  0.0032687988  2.4497959e-06
     CH2       OW  1  0.0035162268  3.534239e-06
     CH2        N  1  0.0033925128  2.8330529e-06
     CH2       NT  1  0.0033925128  2.8330529e-06
     CH2       NL  1  0.0033925128  2.8330529e-06
     CH2       NR  1  0.0033925128  2.8330529e-06
     CH2       NZ  1  0.0033925128  2.8330529e-06
     CH2       NE  1  0.0033925128  2.8330529e-06
     CH2        C  1  0.0033251574  4.0002446e-06
     CH2      CH0  1  0.0033251574  4.0002446e-06
     CH2      CH1  1  0.0037086708  4.2092938e-06
     CH2      CH2  1  0.0047238129  4.7419261e-06
     CH3        O  1  0.0039370168  2.1146739e-06
     CH3       OM  1  0.0039370168  2.1146739e-06
     CH3       OA  1  0.0039370168  2.7627548e-06
     CH3       OE  1  0.0039370168  2.7627548e-06
     CH3       OW  1  0.0042350248  3.9857342e-06
     CH3        N  1  0.0040860208  3.1949724e-06
     CH3       NT  1  0.0040860208  3.1949724e-06
     CH3       NL  1  0.0040860208  3.1949724e-06
     CH3       NR  1  0.0040860208  3.1949724e-06
     CH3       NZ  1  0.0040860208  3.1949724e-06
     CH3       NE  1  0.0040860208  3.1949724e-06
     CH3        C  1  0.0040048964  4.5112715e-06
     CH3      CH0  1  0.0040048964  4.5112715e-06
     CH3      CH1  1  0.0044668088  4.7470266e-06
     CH3      CH2  1  0.0056894694  5.347702e-06
     CH3      CH3  1  0.0068525284  6.0308652e-06
     CH4        O  1  0.005459888  5.0477682e-06
     CH4       OM  1  0.005459888  5.0477682e-06
     CH4       OA  1  0.005459888  6.59475e-06
     CH4       OE  1  0.005459888  6.59475e-06
     CH4       OW  1  0.005873168  9.514026e-06
     CH4        N  1  0.005666528  7.626462e-06
     CH4       NT  1  0.005666528  7.626462e-06
     CH4       NL  1  0.005666528  7.626462e-06
     CH4       NR  1  0.005666528  7.626462e-06
     CH4       NZ  1  0.005666528  7.626462e-06
     CH4       NE  1  0.005666528  7.626462e-06
     CH4        C  1  0.005554024  1.0768494e-05
     CH4      CH0  1  0.005554024  1.0768494e-05
     CH4      CH1  1  0.006194608  1.1331246e-05
     CH4      CH2  1  0.007890204  1.276507e-05
     CH4      CH3  1  0.009503144  1.4395794e-05
     CH4      CH4  1  0.01317904  3.4363044e-05
    CH2r        O  1  0.0032687988  1.8751283e-06
    CH2r       OM  1  0.0032687988  1.8751283e-06
    CH2r       OA  1  0.0032687988  2.4497959e-06
    CH2r       OE  1  0.0032687988  2.4497959e-06
    CH2r       OW  1  0.0035162268  3.534239e-06
    CH2r        N  1  0.0033925128  2.8330529e-06
    CH2r       NT  1  0.0033925128  2.8330529e-06
    CH2r       NL  1  0.0033925128  2.8330529e-06
    CH2r       NR  1  0.0033925128  2.8330529e-06
    CH2r       NZ  1  0.0033925128  2.8330529e-06
    CH2r       NE  1  0.0033925128  2.8330529e-06
    CH2r        C  1  0.0033251574  4.0002446e-06
    CH2r      CH0  1  0.0033251574  4.0002446e-06
    CH2r      CH1  1  0.0037086708  4.2092938e-06
    CH2r      CH2  1  0.0047238129  4.7419261e-06
    CH2r      CH3  1  0.0056894694  5.347702e-06
    CH2r      CH4  1  0.007890204  1.276507e-05
    CH2r     CH2r  1  0.0047238129  4.7419261e-06
     CR1        O  1  0.003536086  2.4851346e-06
     CR1       OM  1  0.003536086  2.4851346e-06
     CR1       OA  1  0.003536086  3.24675e-06
     CR1       OE  1  0.003536086  3.24675e-06
     CR1       OW  1  0.003803746  4.683978e-06
     CR1        N  1  0.003669916  3.754686e-06
     CR1       NT  1  0.003669916  3.754686e-06
     CR1       NL  1  0.003669916  3.754686e-06
     CR1       NR  1  0.003669916  3.754686e-06
     CR1       NZ  1  0.003669916  3.754686e-06
     CR1       NE  1  0.003669916  3.754686e-06
     CR1        C  1  0.003597053  5.301582e-06
     CR1      CH0  1  0.003597053  5.301582e-06
     CR1      CH1  1  0.004011926  5.578638e-06
     CR1      CH2  1  0.0051100755  6.2845432e-06
     CR1      CH3  1  0.006154693  7.0873869e-06
     CR1      CH4  1  0.00853538  1.6917732e-05
     CR1     CH2r  1  0.0051100755  6.2845432e-06
     CR1      CR1  1  0.0055279225  8.328996e-06
      HC        O  1  0.000437552  1.059153e-07
      HC       OM  1  0.000437552  1.059153e-07
      HC       OA  1  0.000437552  1.38375e-07
      HC       OE  1  0.000437552  1.38375e-07
      HC       OW  1  0.000470672  1.99629e-07
      HC        N  1  0.000454112  1.60023e-07
      HC       NT  1  0.000454112  1.60023e-07
      HC       NL  1  0.000454112  1.60023e-07
      HC       NR  1  0.000454112  1.60023e-07
      HC       NZ  1  0.000454112  1.60023e-07
      HC       NE  1  0.000454112  1.60023e-07
      HC        C  1  0.000445096  2.25951e-07
      HC      CH0  1  0.000445096  2.25951e-07
      HC      CH1  1  0.000496432  2.37759e-07
      HC      CH2  1  0.000632316  2.6784436e-07
      HC      CH3  1  0.000761576  3.0206119e-07
      HC      CH4  1  0.00105616  7.21026e-07
      HC     CH2r  1  0.000632316  2.6784436e-07
      HC      CR1  1  0.00068402  3.54978e-07
      HC       HC  1   8.464e-05  1.5129e-08
       H        O  1           0           0
       H       OM  1           0           0
       H       OA  1           0           0
       H       OE  1           0           0
       H       OW  1           0           0
       H        N  1           0           0
       H       NT  1           0           0
       H       NL  1           0           0
       H       NR  1           0           0
       H       NZ  1           0           0
       H       NE  1           0           0
       H        C  1           0           0
       H      CH0  1           0           0
       H      CH1  1           0           0
       H      CH2  1           0           0
       H      CH3  1           0           0
       H      CH4  1           0           0
       H     CH2r  1           0           0
       H      CR1  1           0           0
       H       HC  1           0           0
       H        H  1           0           0
     DUM        O  1           0           0
     DUM       OM  1           0           0
     DUM       OA  1           0           0
     DUM       OE  1           0           0
     DUM       OW  1           0           0
     DUM        N  1           0           0
     DUM       NT  1           0           0
     DUM       NL  1           0           0
     DUM       NR  1           0           0
     DUM       NZ  1           0           0
     DUM       NE  1           0           0
     DUM        C  1           0           0
     DUM      CH0  1           0           0
     DUM      CH1  1           0           0
     DUM      CH2  1           0           0
     DUM      CH3  1           0           0
     DUM      CH4  1           0           0
     DUM     CH2r  1           0           0
     DUM      CR1  1           0           0
     DUM       HC  1           0           0
     DUM        H  1           0           0
     DUM      DUM  1           0           0
       S        O  1  0.0047521952  3.1137376e-06
       S       OM  1  0.0047521952  3.1137376e-06
       S       OA  1  0.0047521952   4.068e-06
       S       OE  1  0.0047521952   4.068e-06
       S       OW  1  0.0051119072  5.868768e-06
       S        N  1  0.0049320512  4.704416e-06
       S       NT  1  0.0049320512  4.704416e-06
       S       NL  1  0.0049320512  4.704416e-06
       S       NR  1  0.0049320512  4.704416e-06
       S       NZ  1  0.0049320512  4.704416e-06
       S       NE  1  0.0049320512  4.704416e-06
       S        C  1  0.0048341296  6.642592e-06
       S      CH0  1  0.0048341296  6.642592e-06
       S      CH1  1  0.0053916832  6.989728e-06
       S      CH2  1  0.0068675016  7.8741886e-06
       S      CH3  1  0.0082713776  8.8801077e-06
       S      CH4  1  0.011470816  2.1196992e-05
       S     CH2r  1  0.0068675016  7.8741886e-06
       S      CR1  1  0.007429052  1.0435776e-05
       S       HC  1  0.000919264  4.44768e-07
       S        H  1           0           0
       S      DUM  1           0           0
       S        S  1  0.0099840064  1.3075456e-05
    CU1+        O  1  0.000972602  6.1646149e-08
    CU1+       OM  1  0.000972602  6.1646149e-08
    CU1+       OA  1  0.000972602  8.053875e-08
    CU1+       OE  1  0.000972602  8.053875e-08
    CU1+       OW  1  0.001046222  1.1619057e-07
    CU1+        N  1  0.001009412  9.313859e-08
    CU1+       NT  1  0.001009412  9.313859e-08
    CU1+       NL  1  0.001009412  9.313859e-08
    CU1+       NR  1  0.001009412  9.313859e-08
    CU1+       NZ  1  0.001009412  9.313859e-08
    CU1+       NE  1  0.001009412  9.313859e-08
    CU1+        C  1  0.000989371  1.3151083e-07
    CU1+      CH0  1  0.000989371  1.3151083e-07
    CU1+      CH1  1  0.001103482  1.3838347e-07
    CU1+      CH2  1  0.0014055285  1.5589413e-07
    CU1+      CH3  1  0.001692851  1.7580943e-07
    CU1+      CH4  1  0.00234766  4.1966058e-07
    CU1+     CH2r  1  0.0014055285  1.5589413e-07
    CU1+      CR1  1  0.0015204575  2.0660874e-07
    CU1+       HC  1  0.00018814  8.80557e-09
    CU1+        H  1           0           0
    CU1+      DUM  1           0           0
    CU1+        S  1  0.002043364  2.5886944e-07
    CU1+     CU1+  1  0.0004182025  5.1251281e-09
    CU2+        O  1  0.000972602  6.1646149e-08
    CU2+       OM  1  0.000972602  6.1646149e-08
    CU2+       OA  1  0.000972602  8.053875e-08
    CU2+       OE  1  0.000972602  8.053875e-08
    CU2+       OW  1  0.001046222  1.1619057e-07
    CU2+        N  1  0.001009412  9.313859e-08
    CU2+       NT  1  0.001009412  9.313859e-08
    CU2+       NL  1  0.001009412  9.313859e-08
    CU2+       NR  1  0.001009412  9.313859e-08
    CU2+       NZ  1  0.001009412  9.313859e-08
    CU2+       NE  1  0.001009412  9.313859e-08
    CU2+        C  1  0.000989371  1.3151083e-07
    CU2+      CH0  1  0.000989371  1.3151083e-07
    CU2+      CH1  1  0.001103482  1.3838347e-07
    CU2+      CH2  1  0.0014055285  1.5589413e-07
    CU2+      CH3  1  0.001692851  1.7580943e-07
    CU2+      CH4  1  0.00234766  4.1966058e-07
    CU2+     CH2r  1  0.0014055285  1.5589413e-07
    CU2+      CR1  1  0.0015204575  2.0660874e-07
    CU2+       HC  1  0.00018814  8.80557e-09
    CU2+        H  1           0           0
    CU2+      DUM  1           0           0
    CU2+        S  1  0.002043364  2.5886944e-07
    CU2+     CU1+  1  0.0004182025  5.1251281e-09
    CU2+     CU2+  1  0.0004182025  5.1251281e-09
      FE        O  1           0           0
      FE       OM  1           0           0
      FE       OA  1           0           0
      FE       OE  1           0           0
      FE       OW  1           0           0
      FE        N  1           0           0
      FE       NT  1           0           0
      FE       NL  1           0           0
      FE       NR  1           0           0
      FE       NZ  1           0           0
      FE       NE  1           0           0
      FE        C  1           0           0
      FE      CH0  1           0           0
      FE      CH1  1           0           0
      FE      CH2  1           0           0
      FE      CH3  1           0           0
      FE      CH4  1           0           0
      FE     CH2r  1           0           0
      FE      CR1  1           0           0
      FE       HC  1           0           0
      FE        H  1           0           0
      FE      DUM  1           0           0
      FE        S  1           0           0
      FE     CU1+  1           0           0
      FE     CU2+  1           0           0
      FE       FE  1           0           0
    ZN2+        O  1  0.000972602  8.3664476e-08
    ZN2+       OM  1  0.000972602  8.3664476e-08
    ZN2+       OA  1  0.000972602  1.09305e-07
    ZN2+       OE  1  0.000972602  1.09305e-07
    ZN2+       OW  1  0.001046222  1.5769068e-07
    ZN2+        N  1  0.001009412  1.2640516e-07
    ZN2+       NT  1  0.001009412  1.2640516e-07
    ZN2+       NL  1  0.001009412  1.2640516e-07
    ZN2+       NR  1  0.001009412  1.2640516e-07
    ZN2+       NZ  1  0.001009412  1.2640516e-07
    ZN2+       NE  1  0.001009412  1.2640516e-07
    ZN2+        C  1  0.000989371  1.7848292e-07
    ZN2+      CH0  1  0.000989371  1.7848292e-07
    ZN2+      CH1  1  0.001103482  1.8781028e-07
    ZN2+      CH2  1  0.0014055285  2.1157527e-07
    ZN2+      CH3  1  0.001692851  2.3860378e-07
    ZN2+      CH4  1  0.00234766  5.6955192e-07
    ZN2+     CH2r  1  0.0014055285  2.1157527e-07
    ZN2+      CR1  1  0.0015204575  2.8040376e-07
    ZN2+       HC  1  0.00018814  1.195068e-08
    ZN2+        H  1           0           0
    ZN2+      DUM  1           0           0
    ZN2+        S  1  0.002043364  3.5133056e-07
    ZN2+     CU1+  1  0.0004182025  6.9556844e-09
    ZN2+     CU2+  1  0.0004182025  6.9556844e-09
    ZN2+       FE  1           0           0
    ZN2+     ZN2+  1  0.0004182025  9.4400656e-09
    MG2+        O  1  0.0003842848  5.0271018e-08
    MG2+       OM  1  0.0003842848  5.0271018e-08
    MG2+       OA  1  0.0003842848  6.56775e-08
    MG2+       OE  1  0.0003842848  6.56775e-08
    MG2+       OW  1  0.0004133728  9.475074e-08
    MG2+        N  1  0.0003988288  7.595238e-08
    MG2+       NT  1  0.0003988288  7.595238e-08
    MG2+       NL  1  0.0003988288  7.595238e-08
    MG2+       NR  1  0.0003988288  7.595238e-08
    MG2+       NZ  1  0.0003988288  7.595238e-08
    MG2+       NE  1  0.0003988288  7.595238e-08
    MG2+        C  1  0.0003909104  1.0724406e-07
    MG2+      CH0  1  0.0003909104  1.0724406e-07
    MG2+      CH1  1  0.0004359968  1.1284854e-07
    MG2+      CH2  1  0.0005553384  1.2712808e-07
    MG2+      CH3  1  0.0006688624  1.4336855e-07
    MG2+      CH4  1  0.000927584  3.4222356e-07
    MG2+     CH2r  1  0.0005553384  1.2712808e-07
    MG2+      CR1  1  0.000600748  1.6848468e-07
    MG2+       HC  1  7.4336e-05  7.18074e-09
    MG2+        H  1           0           0
    MG2+      DUM  1           0           0
    MG2+        S  1  0.0008073536  2.1110208e-07
    MG2+     CU1+  1  0.000165236  4.1794242e-09
    MG2+     CU2+  1  0.000165236  4.1794242e-09
    MG2+       FE  1           0           0
    MG2+     ZN2+  1  0.000165236  5.6722008e-09
    MG2+     MG2+  1  6.52864e-05  3.4082244e-09
    CA2+        O  1  0.001507652  6.0767827e-07
    CA2+       OM  1  0.001507652  6.0767827e-07
    CA2+       OA  1  0.001507652  7.939125e-07
    CA2+       OE  1  0.001507652  7.939125e-07
    CA2+       OW  1  0.001621772  1.1453511e-06
    CA2+        N  1  0.001564712  9.181157e-07
    CA2+       NT  1  0.001564712  9.181157e-07
    CA2+       NL  1  0.001564712  9.181157e-07
    CA2+       NR  1  0.001564712  9.181157e-07
    CA2+       NZ  1  0.001564712  9.181157e-07
    CA2+       NE  1  0.001564712  9.181157e-07
    CA2+        C  1  0.001533646  1.2963709e-06
    CA2+      CH0  1  0.001533646  1.2963709e-06
    CA2+      CH1  1  0.001710532  1.3641181e-06
    CA2+      CH2  1  0.002178741  1.5367298e-06
    CA2+      CH3  1  0.002624126  1.7330454e-06
    CA2+      CH4  1  0.00363916  4.1368134e-06
    CA2+     CH2r  1  0.002178741  1.5367298e-06
    CA2+      CR1  1  0.002356895  2.0366502e-06
    CA2+       HC  1  0.00029164  8.68011e-08
    CA2+        H  1           0           0
    CA2+      DUM  1           0           0
    CA2+        S  1  0.003167464  2.5518112e-06
    CA2+     CU1+  1  0.000648265  5.0521063e-08
    CA2+     CU2+  1  0.000648265  5.0521063e-08
    CA2+       FE  1           0           0
    CA2+     ZN2+  1  0.000648265  6.8565812e-08
    CA2+     MG2+  1  0.000256136  4.1198766e-08
    CA2+     CA2+  1  0.00100489  4.9801249e-07
       P        O  1  0.005773784  4.0566421e-06
       P       OM  1  0.005773784  4.0566421e-06
       P       OA  1  0.005773784  5.299875e-06
       P       OE  1  0.005773784  5.299875e-06
       P       OW  1  0.006210824  7.645953e-06
       P        N  1  0.005992304  6.129011e-06
       P       NT  1  0.005992304  6.129011e-06
       P       NL  1  0.005992304  6.129011e-06
       P       NR  1  0.005992304  6.129011e-06
       P       NZ  1  0.005992304  6.129011e-06
       P       NE  1  0.005992304  6.129011e-06
       P        C  1  0.005873332  8.654107e-06
       P      CH0  1  0.005873332  8.654107e-06
       P      CH1  1  0.006550744  9.106363e-06
       P      CH2  1  0.008343822  1.0258657e-05
       P      CH3  1  0.010049492  1.1569189e-05
       P      CH4  1  0.01393672  2.7615882e-05
       P     CH2r  1  0.008343822  1.0258657e-05
       P      CR1  1  0.00902609  1.3595946e-05
       P       HC  1  0.00111688  5.79453e-07
       P        H  1           0           0
       P      DUM  1           0           0
       P        S  1  0.012130288  1.7034976e-05
       P     CU1+  1  0.00248263  3.3726049e-07
       P     CU2+  1  0.00248263  3.3726049e-07
       P       FE  1           0           0
       P     ZN2+  1  0.00248263  4.5772076e-07
       P     MG2+  1  0.000980912  2.7502818e-07
       P     CA2+  1  0.00384838  3.3245527e-06
       P        P  1  0.01473796  2.2193521e-05
      AR        O  1  0.003764374  2.7021318e-06
      AR       OM  1  0.003764374  2.7021318e-06
      AR       OA  1  0.003764374  3.53025e-06
      AR       OE  1  0.003764374  3.53025e-06
      AR       OW  1  0.004049314  5.092974e-06
      AR        N  1  0.003906844  4.082538e-06
      AR       NT  1  0.003906844  4.082538e-06
      AR       NL  1  0.003906844  4.082538e-06
      AR       NR  1  0.003906844  4.082538e-06
      AR       NZ  1  0.003906844  4.082538e-06
      AR       NE  1  0.003906844  4.082538e-06
      AR        C  1  0.003829277  5.764506e-06
      AR      CH0  1  0.003829277  5.764506e-06
      AR      CH1  1  0.004270934  6.065754e-06
      AR      CH2  1  0.0054399795  6.8332975e-06
      AR      CH3  1  0.006552037  7.7062439e-06
      AR      CH4  1  0.00908642  1.8394956e-05
      AR     CH2r  1  0.0054399795  6.8332975e-06
      AR      CR1  1  0.0058848025  9.056268e-06
      AR       HC  1  0.00072818  3.85974e-07
      AR        H  1           0           0
      AR      DUM  1           0           0
      AR        S  1  0.007908668  1.1347008e-05
      AR     CU1+  1  0.0016186175  2.2464942e-07
      AR     CU2+  1  0.0016186175  2.2464942e-07
      AR       FE  1           0           0
      AR     ZN2+  1  0.0016186175  3.0488808e-07
      AR     MG2+  1  0.000639532  1.8319644e-07
      AR     CA2+  1  0.002509055  2.2144866e-06
      AR        P  1  0.00960881  1.4783118e-05
      AR       AR  1  0.0062647225  9.847044e-06
       F        O  1  0.0016322592  7.5105142e-07
       F       OM  1  0.0016322592  7.5105142e-07
       F       OA  1  0.0016322592  9.81225e-07
       F       OE  1  0.0016322592  9.81225e-07
       F       OW  1  0.0017558112  1.4155806e-06
       F        N  1  0.0016940352  1.1347322e-06
       F       NT  1  0.0016940352  1.1347322e-06
       F       NL  1  0.0016940352  1.1347322e-06
       F       NR  1  0.0016940352  1.1347322e-06
       F       NZ  1  0.0016940352  1.1347322e-06
       F       NE  1  0.0016940352  1.1347322e-06
       F        C  1  0.0016604016  1.6022314e-06
       F      CH0  1  0.0016604016  1.6022314e-06
       F      CH1  1  0.0018519072  1.6859626e-06
       F      CH2  1  0.0023588136  1.8992996e-06
       F      CH3  1  0.0028410096  2.1419331e-06
       F      CH4  1  0.003939936  5.1128364e-06
       F     CH2r  1  0.0023588136  1.8992996e-06
       F      CR1  1  0.002551692  2.5171692e-06
       F       HC  1  0.000315744  1.072806e-07
       F        H  1           0           0
       F      DUM  1           0           0
       F        S  1  0.0034292544  3.1538752e-06
       F     CU1+  1  0.000701844  6.2440798e-08
       F     CU2+  1  0.000701844  6.2440798e-08
       F       FE  1           0           0
       F     ZN2+  1  0.000701844  8.4742952e-08
       F     MG2+  1  0.0002773056  5.0919036e-08
       F     CA2+  1  0.001087944  6.1551154e-07
       F        P  1  0.004166448  4.1089342e-06
       F       AR  1  0.002716428  2.7369636e-06
       F        F  1  0.0011778624  7.6073284e-07
      CL        O  1  0.0044525672  3.3677621e-06
      CL       OM  1  0.0044525672  3.3677621e-06
      CL       OA  1  0.0044525672  4.399875e-06
      CL       OE  1  0.0044525672  4.399875e-06
      CL       OW  1  0.0047895992  6.347553e-06
      CL        N  1  0.0046210832  5.088211e-06
      CL       NT  1  0.0046210832  5.088211e-06
      CL       NL  1  0.0046210832  5.088211e-06
      CL       NR  1  0.0046210832  5.088211e-06
      CL       NZ  1  0.0046210832  5.088211e-06
      CL       NE  1  0.0046210832  5.088211e-06
      CL        C  1  0.0045293356  7.184507e-06
      CL      CH0  1  0.0045293356  7.184507e-06
      CL      CH1  1  0.0050517352  7.559963e-06
      CL      CH2  1  0.0064345026  8.5165795e-06
      CL      CH3  1  0.0077498636  9.6045634e-06
      CL      CH4  1  0.010747576  2.2926282e-05
      CL     CH2r  1  0.0064345026  8.5165795e-06
      CL      CR1  1  0.006960647  1.1287146e-05
      CL       HC  1  0.000861304  4.81053e-07
      CL        H  1           0           0
      CL      DUM  1           0           0
      CL        S  1  0.0093545104  1.4142176e-05
      CL     CU1+  1  0.001914529  2.7998849e-07
      CL     CU2+  1  0.001914529  2.7998849e-07
      CL       FE  1           0           0
      CL     ZN2+  1  0.001914529  3.7999276e-07
      CL     MG2+  1  0.0007564496  2.2832418e-07
      CL     CA2+  1  0.002967754  2.7599927e-06
      CL        P  1  0.011365468  1.8424721e-05
      CL       AR  1  0.007410023  1.2272718e-05
      CL        F  1  0.0032130384  3.4111742e-06
      CL       CL  1  0.0087647044  1.5295921e-05
      BR        O  1  0.007909228  6.9680212e-06
      BR       OM  1  0.007909228  6.9680212e-06
      BR       OA  1  0.007909228  9.1035e-06
      BR       OE  1  0.007909228  9.1035e-06
      BR       OW  1  0.008507908  1.3133316e-05
      BR        N  1  0.008208568  1.0527692e-05
      BR       NT  1  0.008208568  1.0527692e-05
      BR       NL  1  0.008208568  1.0527692e-05
      BR       NR  1  0.008208568  1.0527692e-05
      BR       NZ  1  0.008208568  1.0527692e-05
      BR       NE  1  0.008208568  1.0527692e-05
      BR        C  1  0.008045594  1.4865004e-05
      BR      CH0  1  0.008045594  1.4865004e-05
      BR      CH1  1  0.008973548  1.5641836e-05
      BR      CH2  1  0.011429799  1.762111e-05
      BR      CH3  1  0.013766314  1.9872188e-05
      BR      CH4  1  0.01909124  4.7435304e-05
      BR     CH2r  1  0.011429799  1.762111e-05
      BR      CR1  1  0.012364405  2.3353512e-05
      BR       HC  1  0.00152996  9.95316e-07
      BR        H  1           0           0
      BR      DUM  1           0           0
      BR        S  1  0.016616696  2.9260672e-05
      BR     CU1+  1  0.003400835  5.7930628e-07
      BR     CU2+  1  0.003400835  5.7930628e-07
      BR       FE  1           0           0
      BR     ZN2+  1  0.003400835  7.8621872e-07
      BR     MG2+  1  0.001343704  4.7241096e-07
      BR     CA2+  1  0.00527171  5.7105244e-06
      BR        P  1  0.02018882  3.8121412e-05
      BR       AR  1  0.013162645  2.5392696e-05
      BR        F  1  0.005707416  7.0578424e-06
      BR       CL  1  0.015569006  3.1647812e-05
      BR       BR  1  0.02765569  6.5480464e-05
    CMet        O  1  0.0044806276  3.78884e-06
    CMet       OM  1  0.0044806276  3.78884e-06
    CMet       OA  1  0.0044806276    4.95e-06
    CMet       OE  1  0.0044806276    4.95e-06
    CMet       OW  1  0.0048197836  7.1412e-06
    CMet        N  1  0.0046502056  5.7244e-06
    CMet       NT  1  0.0046502056  5.7244e-06
    CMet       NL  1  0.0046502056  5.7244e-06
    CMet       NR  1  0.0046502056  5.7244e-06
    CMet       NZ  1  0.0046502056  5.7244e-06
    CMet       NE  1  0.0046502056  5.7244e-06
    CMet        C  1  0.0045578798  8.0828e-06
    CMet      CH0  1  0.0045578798  8.0828e-06
    CMet      CH1  1  0.0050835716  8.5052e-06
    CMet      CH2  1  0.0064750533  9.5814242e-06
    CMet      CH3  1  0.0077987038  1.0805441e-05
    CMet      CH4  1  0.010815308  2.57928e-05
    CMet     CH2r  1  0.0064750533  9.5814242e-06
    CMet      CR1  1  0.0070045135  1.26984e-05
    CMet       HC  1  0.000866732   5.412e-07
    CMet        H  1           0           0
    CMet      DUM  1           0           0
    CMet        S  1  0.0094134632  1.59104e-05
    CMet     CU1+  1  0.0019265945  3.14996e-07
    CMet     CU2+  1  0.0019265945  3.14996e-07
    CMet       FE  1           0           0
    CMet     ZN2+  1  0.0019265945  4.27504e-07
    CMet     MG2+  1  0.0007612168  2.56872e-07
    CMet     CA2+  1  0.002986457  3.10508e-06
    CMet        P  1  0.011437094  2.07284e-05
    CMet       AR  1  0.0074567215  1.38072e-05
    CMet        F  1  0.0032332872  3.83768e-06
    CMet       CL  1  0.0088199402  1.72084e-05
    CMet       BR  1  0.015667123  3.56048e-05
    CMet     CMet  1  0.0088755241   1.936e-05
    OMet        O  1  0.0022619536  1.3131775e-06
    OMet       OM  1  0.0022619536  1.3131775e-06
    OMet       OA  1  0.0022619536  1.715625e-06
    OMet       OE  1  0.0022619536  1.715625e-06
    OMet       OW  1  0.0024331696  2.475075e-06
    OMet        N  1  0.0023475616  1.984025e-06
    OMet       NT  1  0.0023475616  1.984025e-06
    OMet       NL  1  0.0023475616  1.984025e-06
    OMet       NR  1  0.0023475616  1.984025e-06
    OMet       NZ  1  0.0023475616  1.984025e-06
    OMet       NE  1  0.0023475616  1.984025e-06
    OMet        C  1  0.0023009528  2.801425e-06
    OMet      CH0  1  0.0023009528  2.801425e-06
    OMet      CH1  1  0.0025663376  2.947825e-06
    OMet      CH2  1  0.0032687988  3.3208345e-06
    OMet      CH3  1  0.0039370168  3.7450676e-06
    OMet      CH4  1  0.005459888  8.93955e-06
    OMet     CH2r  1  0.0032687988  3.3208345e-06
    OMet      CR1  1  0.003536086  4.40115e-06
    OMet       HC  1  0.000437552  1.87575e-07
    OMet        H  1           0           0
    OMet      DUM  1           0           0
    OMet        S  1  0.0047521952  5.5144e-06
    OMet     CU1+  1  0.000972602  1.0917475e-07
    OMet     CU2+  1  0.000972602  1.0917475e-07
    OMet       FE  1           0           0
    OMet     ZN2+  1  0.000972602  1.48169e-07
    OMet     MG2+  1  0.0003842848  8.90295e-08
    OMet     CA2+  1  0.001507652  1.0761925e-06
    OMet        P  1  0.005773784  7.184275e-06
    OMet       AR  1  0.003764374  4.78545e-06
    OMet        F  1  0.0016322592  1.330105e-06
    OMet       CL  1  0.0044525672  5.964275e-06
    OMet       BR  1  0.007909228  1.23403e-05
    OMet     CMet  1  0.0044806276    6.71e-06
    OMet     OMet  1  0.0022619536  2.325625e-06
     NA+        O  1  0.00040373684  1.248595e-07
     NA+       OM  1  0.00040373684  1.248595e-07
     NA+       OA  1  0.00040373684  1.63125e-07
     NA+       OE  1  0.00040373684  1.63125e-07
     NA+       OW  1  0.00043429724  2.35335e-07
     NA+        N  1  0.00041901704  1.88645e-07
     NA+       NT  1  0.00041901704  1.88645e-07
     NA+       NL  1  0.00041901704  1.88645e-07
     NA+       NR  1  0.00041901704  1.88645e-07
     NA+       NZ  1  0.00041901704  1.88645e-07
     NA+       NE  1  0.00041901704  1.88645e-07
     NA+        C  1  0.00041069782  2.66365e-07
     NA+      CH0  1  0.00041069782  2.66365e-07
     NA+      CH1  1  0.00045806644  2.80285e-07
     NA+      CH2  1  0.00058344897  3.1575148e-07
     NA+      CH3  1  0.00070271942  3.5608839e-07
     NA+      CH4  1  0.0009745372  8.4999e-07
     NA+     CH2r  1  0.00058344897  3.1575148e-07
     NA+      CR1  1  0.00063115715  4.1847e-07
     NA+       HC  1  7.80988e-05  1.7835e-08
     NA+        H  1           0           0
     NA+      DUM  1           0           0
     NA+        S  1  0.00084822088  5.2432e-07
     NA+     CU1+  1  0.00017360005  1.038055e-08
     NA+     CU2+  1  0.00017360005  1.038055e-08
     NA+       FE  1           0           0
     NA+     ZN2+  1  0.00017360005  1.40882e-08
     NA+     MG2+  1  6.859112e-05  8.4651e-09
     NA+     CA2+  1  0.0002691013  1.023265e-07
     NA+        P  1  0.0010305646  6.83095e-07
     NA+       AR  1  0.00067190435  4.5501e-07
     NA+        F  1  0.00029134248  1.26469e-07
     NA+       CL  1  0.00079474018  5.67095e-07
     NA+       BR  1  0.0014117207  1.17334e-06
     NA+     CMet  1  0.00079974869    6.38e-07
     NA+     OMet  1  0.00040373684  2.21125e-07
     NA+      NA+  1  7.2063121e-05  2.1025e-08
     CL-        O  1   0.0055883  8.903774e-06
     CL-       OM  1   0.0055883  8.903774e-06
     CL-       OA  1   0.0055883  1.16325e-05
     CL-       OE  1   0.0055883  1.16325e-05
     CL-       OW  1   0.0060113  1.678182e-05
     CL-        N  1   0.0057998  1.345234e-05
     CL-       NT  1   0.0057998  1.345234e-05
     CL-       NL  1   0.0057998  1.345234e-05
     CL-       NR  1   0.0057998  1.345234e-05
     CL-       NZ  1   0.0057998  1.345234e-05
     CL-       NE  1   0.0057998  1.345234e-05
     CL-        C  1  0.00568465  1.899458e-05
     CL-      CH0  1  0.00568465  1.899458e-05
     CL-      CH1  1   0.0063403  1.998722e-05
     CL-      CH2  1  0.008075775  2.2516347e-05
     CL-      CH3  1  0.00972665  2.5392786e-05
     CL-      CH4  1    0.013489  6.061308e-05
     CL-     CH2r  1  0.008075775  2.2516347e-05
     CL-      CR1  1  0.008736125  2.984124e-05
     CL-       HC  1    0.001081  1.27182e-06
     CL-        H  1           0           0
     CL-      DUM  1           0           0
     CL-        S  1   0.0117406  3.738944e-05
     CL-     CU1+  1  0.002402875  7.402406e-07
     CL-     CU2+  1  0.002402875  7.402406e-07
     CL-       FE  1           0           0
     CL-     ZN2+  1  0.002402875  1.0046344e-06
     CL-     MG2+  1   0.0009494  6.036492e-07
     CL-     CA2+  1  0.00372475  7.296938e-06
     CL-        P  1   0.0142645  4.871174e-05
     CL-       AR  1  0.009300125  3.244692e-05
     CL-        F  1   0.0040326  9.018548e-06
     CL-       CL  1  0.01100035  4.043974e-05
     CL-       BR  1  0.01954025  8.367128e-05
     CL-     CMet  1  0.011069675  4.5496e-05
     CL-     OMet  1   0.0055883  1.57685e-05
     CL-      NA+  1  0.0009974575  1.4993e-06
     CL-      CL-  1  0.01380625  0.0001069156
    CChl        O  1  0.0024394475  1.7359776e-06
    CChl       OM  1  0.0024394475  1.7359776e-06
    CChl       OA  1  0.0024394475   2.268e-06
    CChl       OE  1  0.0024394475   2.268e-06
    CChl       OW  1  0.0026240987  3.271968e-06
    CChl        N  1  0.0025317731  2.622816e-06
    CChl       NT  1  0.0025317731  2.622816e-06
    CChl       NL  1  0.0025317731  2.622816e-06
    CChl       NR  1  0.0025317731  2.622816e-06
    CChl       NZ  1  0.0025317731  2.622816e-06
    CChl       NE  1  0.0025317731  2.622816e-06
    CChl        C  1  0.002481507  3.703392e-06
    CChl      CH0  1  0.002481507  3.703392e-06
    CChl      CH1  1  0.0027677163  3.896928e-06
    CChl      CH2  1  0.0035252992  4.3900343e-06
    CChl      CH3  1  0.0042459518  4.9508565e-06
    CChl      CH4  1  0.0058883216  1.1817792e-05
    CChl     CH2r  1  0.0035252992  4.3900343e-06
    CChl      CR1  1  0.0038135602  5.818176e-06
    CChl       HC  1  0.0004718864  2.47968e-07
    CChl        H  1           0           0
    CChl      DUM  1           0           0
    CChl        S  1  0.0051250966  7.289856e-06
    CChl     CU1+  1  0.0010489214  1.4432544e-07
    CChl     CU2+  1  0.0010489214  1.4432544e-07
    CChl       FE  1           0           0
    CChl     ZN2+  1  0.0010489214  1.9587456e-07
    CChl     MG2+  1  0.00041443936  1.1769408e-07
    CChl     CA2+  1  0.0016259564  1.4226912e-06
    CChl        P  1  0.0062268488  9.497376e-06
    CChl       AR  1  0.0040597618  6.326208e-06
    CChl        F  1  0.0017603414  1.7583552e-06
    CChl       CL  1  0.004801957  7.884576e-06
    CChl       BR  1  0.0085298596  1.6313472e-05
    CChl     CMet  1  0.0048322193  8.8704e-06
    CChl     OMet  1  0.0024394475  3.0744e-06
    CChl      NA+  1  0.00043541779  2.9232e-07
    CChl      CL-  1  0.00602681  2.084544e-05
    CChl     CChl  1  0.0026308693  4.064256e-06
   CLChl        O  1  0.004334666  3.1947671e-06
   CLChl       OM  1  0.004334666  3.1947671e-06
   CLChl       OA  1  0.004334666  4.1738625e-06
   CLChl       OE  1  0.004334666  4.1738625e-06
   CLChl       OW  1  0.0046627736  6.0214923e-06
   CLChl        N  1  0.0044987198  4.8268401e-06
   CLChl       NT  1  0.0044987198  4.8268401e-06
   CLChl       NL  1  0.0044987198  4.8268401e-06
   CLChl       NR  1  0.0044987198  4.8268401e-06
   CLChl       NZ  1  0.0044987198  4.8268401e-06
   CLChl       NE  1  0.0044987198  4.8268401e-06
   CLChl        C  1  0.0044094016  6.8154537e-06
   CLChl      CH0  1  0.0044094016  6.8154537e-06
   CLChl      CH1  1  0.0049179684  7.1716233e-06
   CLChl      CH2  1  0.0062641209  8.0791004e-06
   CLChl      CH3  1  0.007544652  9.1111968e-06
   CLChl      CH4  1  0.010462987  2.1748606e-05
   CLChl     CH2r  1  0.0062641209  8.0791004e-06
   CLChl      CR1  1  0.0067763334  1.0707349e-05
   CLChl       HC  1  0.0008384972  4.563423e-07
   CLChl        H  1           0           0
   CLChl      DUM  1           0           0
   CLChl        S  1  0.0091068087  1.3415722e-05
   CLChl     CU1+  1  0.0018638335  2.6560606e-07
   CLChl     CU2+  1  0.0018638335  2.6560606e-07
   CLChl       FE  1           0           0
   CLChl     ZN2+  1  0.0018638335  3.6047332e-07
   CLChl     MG2+  1  0.00073641928  2.1659564e-07
   CLChl     CA2+  1  0.0028891697  2.6182176e-06
   CLChl        P  1  0.011064517  1.7478281e-05
   CLChl       AR  1  0.0072138101  1.1642294e-05
   CLChl        F  1  0.0031279591  3.2359492e-06
   CLChl       CL  1  0.0085326204  1.4510201e-05
   CLChl       BR  1  0.015156748  3.0022129e-05
   CLChl     CMet  1  0.0085863936  1.632444e-05
   CLChl     OMet  1  0.004334666  5.6579025e-06
   CLChl      NA+  1  0.00077369595  5.379645e-07
   CLChl      CL-  1  0.010709067  3.8362434e-05
   CLChl     CChl  1  0.0046754     7.4813e-06
   CLChl    CLChl  1  0.0083066819  1.3764842e-05
    HChl        O  1  0.0002920184  5.6465771e-08
    HChl       OM  1  0.0002920184  5.6465771e-08
    HChl       OA  1  0.0002920184  7.377075e-08
    HChl       OE  1  0.0002920184  7.377075e-08
    HChl       OW  1  0.0003141224  1.064266e-07
    HChl        N  1  0.0003030704  8.5311774e-08
    HChl       NT  1  0.0003030704  8.5311774e-08
    HChl       NL  1  0.0003030704  8.5311774e-08
    HChl       NR  1  0.0003030704  8.5311774e-08
    HChl       NZ  1  0.0003030704  8.5311774e-08
    HChl       NE  1  0.0003030704  8.5311774e-08
    HChl        C  1  0.0002970532  1.2045944e-07
    HChl      CH0  1  0.0002970532  1.2045944e-07
    HChl      CH1  1  0.0003313144  1.2675454e-07
    HChl      CH2  1  0.0004220022  1.4279371e-07
    HChl      CH3  1  0.0005082692  1.6103545e-07
    HChl      CH4  1  0.000704872  3.8439479e-07
    HChl     CH2r  1  0.0004220022  1.4279371e-07
    HChl      CR1  1  0.000456509  1.8924656e-07
    HChl       HC  1  5.6488e-05  8.065602e-09
    HChl        H  1           0           0
    HChl      DUM  1           0           0
    HChl        S  1  0.0006135088  2.3711558e-07
    HChl     CU1+  1  0.000125563  4.6944427e-09
    HChl     CU2+  1  0.000125563  4.6944427e-09
    HChl       FE  1           0           0
    HChl     ZN2+  1  0.000125563  6.3711698e-09
    HChl     MG2+  1  4.96112e-05  3.8282101e-09
    HChl     CA2+  1  0.000194638  4.6275572e-08
    HChl        P  1  0.000745396  3.0891911e-07
    HChl       AR  1  0.000485981  2.0577121e-07
    HChl        F  1  0.0002107248  5.7193643e-08
    HChl       CL  1  0.0005748268  2.5645991e-07
    HChl       BR  1  0.001021082  5.3062481e-07
    HChl     CMet  1  0.0005784494  2.885256e-07
    HChl     OMet  1  0.0002920184  1.0000035e-07
    HChl      NA+  1  5.212246e-05  9.50823e-09
    HChl      CL-  1  0.00072145  6.7803516e-07
    HChl     CChl  1  0.0003622     0.1745e-06
    HChl    CLChl  1  0.0006493     0.3266e-06
    HChl     HChl  1  3.76996e-05  4.2999495e-09
   SDmso        O  1  0.0048877412  3.9925763e-06
   SDmso       OM  1  0.0048877412  3.9925763e-06
   SDmso       OA  1  0.0048877412  5.216175e-06
   SDmso       OE  1  0.0048877412  5.216175e-06
   SDmso       OW  1  0.0052577132  7.5252018e-06
   SDmso        N  1  0.0050727272  6.0322166e-06
   SDmso       NT  1  0.0050727272  6.0322166e-06
   SDmso       NL  1  0.0050727272  6.0322166e-06
   SDmso       NR  1  0.0050727272  6.0322166e-06
   SDmso       NZ  1  0.0050727272  6.0322166e-06
   SDmso       NE  1  0.0050727272  6.0322166e-06
   SDmso        C  1  0.0049720126  8.5174342e-06
   SDmso      CH0  1  0.0049720126  8.5174342e-06
   SDmso      CH1  1  0.0055454692  8.9625478e-06
   SDmso      CH2  1  0.0070633821  1.0096643e-05
   SDmso      CH3  1  0.0085073006  1.1386479e-05
   SDmso      CH4  1  0.011797996  2.7179749e-05
   SDmso     CH2r  1  0.0070633821  1.0096643e-05
   SDmso      CR1  1  0.0076409495  1.3381228e-05
   SDmso       HC  1  0.000945484  5.703018e-07
   SDmso        H  1           0           0
   SDmso      DUM  1           0           0
   SDmso        S  1  0.010268778  1.6765946e-05
   SDmso     CU1+  1  0.0021016465  3.3193419e-07
   SDmso     CU2+  1  0.0021016465  3.3193419e-07
   SDmso       FE  1           0           0
   SDmso     ZN2+  1  0.0021016465  4.5049206e-07
   SDmso     MG2+  1  0.0008303816  2.7068471e-07
   SDmso     CA2+  1  0.003257809  3.2720486e-06
   SDmso        P  1  0.012476278  2.1843023e-05
   SDmso       AR  1  0.0081342455  1.4549651e-05
   SDmso        F  1  0.0035270664  4.0440425e-06
   SDmso       CL  1  0.0096213274  1.8133743e-05
   SDmso       BR  1  0.017090651  3.7519367e-05
   SDmso     CMet  1  0.0096819617  2.040104e-05
   SDmso     OMet  1  0.0048877412  7.070815e-06
   SDmso      NA+  1  0.00087241453  6.72307e-07
   SDmso      CL-  1  0.012075475  4.7942444e-05
   SDmso     CChl  1  0.0052712788  9.3473856e-06
   SDmso    CLChl  1  0.0093665606  1.720225e-05
   SDmso     HChl  1  0.0006310078  3.0404041e-07
   SDmso    SDmso  1  0.010561673  2.149806e-05
   CDmso        O  1  0.004663258  4.4449982e-06
   CDmso       OM  1  0.004663258  4.4449982e-06
   CDmso       OA  1  0.004663258  5.80725e-06
   CDmso       OE  1  0.004663258  5.80725e-06
   CDmso       OW  1  0.005016238  8.377926e-06
   CDmso        N  1  0.004839748  6.715762e-06
   CDmso       NT  1  0.004839748  6.715762e-06
   CDmso       NL  1  0.004839748  6.715762e-06
   CDmso       NR  1  0.004839748  6.715762e-06
   CDmso       NZ  1  0.004839748  6.715762e-06
   CDmso       NE  1  0.004839748  6.715762e-06
   CDmso        C  1  0.004743659  9.482594e-06
   CDmso      CH0  1  0.004743659  9.482594e-06
   CDmso      CH1  1  0.005290778  9.978146e-06
   CDmso      CH2  1  0.0067389765  1.1240753e-05
   CDmso      CH3  1  0.008116579  1.2676747e-05
   CDmso      CH4  1  0.01125614  3.0259644e-05
   CDmso     CH2r  1  0.0067389765  1.1240753e-05
   CDmso      CR1  1  0.0072900175  1.4897532e-05
   CDmso       HC  1  0.00090206  6.34926e-07
   CDmso        H  1           0           0
   CDmso      DUM  1           0           0
   CDmso        S  1  0.009797156  1.8665792e-05
   CDmso     CU1+  1  0.0020051225  3.6954758e-07
   CDmso     CU2+  1  0.0020051225  3.6954758e-07
   CDmso       FE  1           0           0
   CDmso     ZN2+  1  0.0020051225  5.0153992e-07
   CDmso     MG2+  1  0.000792244  3.0135756e-07
   CDmso     CA2+  1  0.003108185  3.6428234e-06
   CDmso        P  1  0.01190327  2.4318182e-05
   CDmso       AR  1  0.0077606575  1.6198356e-05
   CDmso        F  1  0.003365076  4.5022964e-06
   CDmso       CL  1  0.009179441  2.0188582e-05
   CDmso       BR  1  0.016305715  4.1770904e-05
   CDmso     CMet  1  0.0092372905  2.27128e-05
   CDmso     OMet  1  0.004663258  7.87205e-06
   CDmso      NA+  1  0.00083234645  7.4849e-07
   CDmso      CL-  1  0.011520875  5.337508e-05
   CDmso     CChl  1  0.0050291806  1.0406592e-05
   CDmso    CLChl  1  0.0089363751  1.9151536e-05
   CDmso     HChl  1  0.000602027  3.3849299e-07
   CDmso    SDmso  1  0.010076599  2.3934129e-05
   CDmso    CDmso  1  0.0096138025  2.6646244e-05
   ODmso        O  1  0.0022663291  7.4645315e-07
   ODmso       OM  1  0.0022663291  7.4645315e-07
   ODmso       OA  1  0.0022663291  9.752175e-07
   ODmso       OE  1  0.0022663291  9.752175e-07
   ODmso       OW  1  0.0024378763  1.4069138e-06
   ODmso        N  1  0.0023521027  1.1277849e-06
   ODmso       NT  1  0.0023521027  1.1277849e-06
   ODmso       NL  1  0.0023521027  1.1277849e-06
   ODmso       NR  1  0.0023521027  1.1277849e-06
   ODmso       NZ  1  0.0023521027  1.1277849e-06
   ODmso       NE  1  0.0023521027  1.1277849e-06
   ODmso        C  1  0.0023054038  1.5924218e-06
   ODmso      CH0  1  0.0023054038  1.5924218e-06
   ODmso      CH1  1  0.0025713019  1.6756404e-06
   ODmso      CH2  1  0.003275122  1.8876712e-06
   ODmso      CH3  1  0.0039446326  2.1288192e-06
   ODmso      CH4  1  0.0054704496  5.0815333e-06
   ODmso     CH2r  1  0.003275122  1.8876712e-06
   ODmso      CR1  1  0.0035429262  2.501758e-06
   ODmso       HC  1  0.0004383984  1.0662378e-07
   ODmso        H  1           0           0
   ODmso      DUM  1           0           0
   ODmso        S  1  0.0047613878  3.1345658e-06
   ODmso     CU1+  1  0.0009744834  6.2058507e-08
   ODmso     CU2+  1  0.0009744834  6.2058507e-08
   ODmso       FE  1           0           0
   ODmso     ZN2+  1  0.0009744834  8.4224118e-08
   ODmso     MG2+  1  0.00038502816  5.0607287e-08
   ODmso     CA2+  1  0.0015105684  6.117431e-07
   ODmso        P  1  0.0057849528  4.0837775e-06
   ODmso       AR  1  0.0037716558  2.7202067e-06
   ODmso        F  1  0.0016354166  7.5607529e-07
   ODmso       CL  1  0.0044611802  3.3902895e-06
   ODmso       BR  1  0.0079245276  7.0146311e-06
   ODmso     CMet  1  0.0044892949  3.814184e-06
   ODmso     OMet  1  0.0022663291  1.3219615e-06
   ODmso      NA+  1  0.00040451783  1.256947e-07
   ODmso      CL-  1  0.00559911  8.9633324e-06
   ODmso     CChl  1  0.0024441664  1.7475898e-06
   ODmso    CLChl  1  0.0043430509  3.2161373e-06
   ODmso     HChl  1  0.00029258328  5.6843478e-08
   ODmso    SDmso  1  0.004897196  4.0192831e-06
   ODmso    CDmso  1  0.0046722786  4.4747313e-06
   ODmso    ODmso  1  0.0022707131  7.5144626e-07
    CCl4        O  1  0.0024394475  2.3738805e-06
    CCl4       OM  1  0.0024394475  2.3738805e-06
    CCl4       OA  1  0.0024394475  3.1014e-06
    CCl4       OE  1  0.0024394475  3.1014e-06
    CCl4       OW  1  0.0026240987  4.4742864e-06
    CCl4        N  1  0.0025317731  3.5865968e-06
    CCl4       NT  1  0.0025317731  3.5865968e-06
    CCl4       NL  1  0.0025317731  3.5865968e-06
    CCl4       NR  1  0.0025317731  3.5865968e-06
    CCl4       NZ  1  0.0025317731  3.5865968e-06
    CCl4       NE  1  0.0025317731  3.5865968e-06
    CCl4        C  1  0.002481507  5.0642416e-06
    CCl4      CH0  1  0.002481507  5.0642416e-06
    CCl4      CH1  1  0.0027677163  5.3288944e-06
    CCl4      CH2  1  0.0035252992  6.0031978e-06
    CCl4      CH3  1  0.0042459518  6.7700998e-06
    CCl4      CH4  1  0.0058883216  1.6160362e-05
    CCl4     CH2r  1  0.0035252992  6.0031978e-06
    CCl4      CR1  1  0.0038135602  7.9561248e-06
    CCl4       HC  1  0.0004718864  3.390864e-07
    CCl4        H  1           0           0
    CCl4      DUM  1           0           0
    CCl4        S  1  0.0051250966  9.9685888e-06
    CCl4     CU1+  1  0.0010489214  1.9735931e-07
    CCl4     CU2+  1  0.0010489214  1.9735931e-07
    CCl4       FE  1           0           0
    CCl4     ZN2+  1  0.0010489214  2.6785069e-07
    CCl4     MG2+  1  0.00041443936  1.6094198e-07
    CCl4     CA2+  1  0.0016259564  1.9454738e-06
    CCl4        P  1  0.0062268488  1.2987285e-05
    CCl4       AR  1  0.0040597618  8.6508384e-06
    CCl4        F  1  0.0017603414  2.404481e-06
    CCl4       CL  1  0.004801957  1.0781845e-05
    CCl4       BR  1  0.0085298596  2.2308026e-05
    CCl4     CMet  1  0.0048322193  1.212992e-05
    CCl4     OMet  1  0.0024394475  4.20412e-06
    CCl4      NA+  1  0.00043541779  3.99736e-07
    CCl4      CL-  1  0.00602681  2.8505312e-05
    CCl4     CChl  1  0.0026308693  5.5577088e-06
    CCl4    CLChl  1  0.0046748042  1.0228004e-05
    CCl4     HChl  1  0.00031493288  1.807744e-07
    CCl4    SDmso  1  0.0052712788  1.2782179e-05
    CCl4    CDmso  1  0.0050291806  1.4230602e-05
    CCl4    ODmso  1  0.0024441664  2.3897596e-06
    CCl4     CCl4  1  0.0026308693  7.5999462e-06
   CLCl4        O  1  0.0041472796  3.0768825e-06
   CLCl4       OM  1  0.0041472796  3.0768825e-06
   CLCl4       OA  1  0.0041472796  4.01985e-06
   CLCl4       OE  1  0.0041472796  4.01985e-06
   CLCl4       OW  1  0.0044612032  5.7993036e-06
   CLCl4        N  1  0.0043042414  4.6487332e-06
   CLCl4       NT  1  0.0043042414  4.6487332e-06
   CLCl4       NL  1  0.0043042414  4.6487332e-06
   CLCl4       NR  1  0.0043042414  4.6487332e-06
   CLCl4       NZ  1  0.0043042414  4.6487332e-06
   CLCl4       NE  1  0.0043042414  4.6487332e-06
   CLCl4        C  1  0.0042187844  6.5639684e-06
   CLCl4      CH0  1  0.0042187844  6.5639684e-06
   CLCl4      CH1  1  0.004705366  6.9069956e-06
   CLCl4      CH2  1  0.0059933247  7.7809875e-06
   CLCl4      CH3  1  0.0072184988  8.7750002e-06
   CLCl4      CH4  1  0.010010675  2.0946098e-05
   CLCl4     CH2r  1  0.0059933247  7.7809875e-06
   CLCl4      CR1  1  0.0064833944  1.0312255e-05
   CLCl4       HC  1  0.0008022492  4.395036e-07
   CLCl4        H  1           0           0
   CLCl4      DUM  1           0           0
   CLCl4        S  1  0.0087131239  1.2920691e-05
   CLCl4     CU1+  1  0.0017832604  2.5580539e-07
   CLCl4     CU2+  1  0.0017832604  2.5580539e-07
   CLCl4       FE  1           0           0
   CLCl4     ZN2+  1  0.0017832604  3.4717211e-07
   CLCl4     MG2+  1  0.00070458408  2.0860342e-07
   CLCl4     CA2+  1  0.0027642717  2.5216072e-06
   CLCl4        P  1  0.010586201  1.6833345e-05
   CLCl4       AR  1  0.0069019592  1.1212702e-05
   CLCl4        F  1  0.0029927383  3.116545e-06
   CLCl4       CL  1  0.0081637576  1.3974785e-05
   CLCl4       BR  1  0.014501526  2.8914334e-05
   CLCl4     CMet  1  0.0082152062  1.572208e-05
   CLCl4     OMet  1  0.0041472796  5.44913e-06
   CLCl4      NA+  1  0.00074024929  5.18114e-07
   CLCl4      CL-  1  0.010246117  3.6946888e-05
   CLCl4     CChl  1  0.0044727137  7.2035712e-06
   CLCl4    CLChl  1  0.0079475863  1.3256929e-05
   CLCl4     HChl  1  0.00053541414  2.3430902e-07
   CLCl4    SDmso  1  0.0089616468  1.6567499e-05
   CLCl4    CDmso  1  0.008550058  1.8444858e-05
   CLCl4    ODmso  1  0.0041553021  3.0974642e-06
   CLCl4     CCl4  1  0.0044727137  9.8505978e-06
   CLCl4    CLCl4  1  0.0076040144  1.2767758e-05
    FTFE        O  1  0.0016322592   8.611e-07
    FTFE       OM  1  0.0016322592   8.611e-07
    FTFE       OA  1  0.0016322592   1.125e-06
    FTFE       OE  1  0.0016322592   1.125e-06
    FTFE       OW  1  0.0017558112   1.623e-06
    FTFE        N  1  0.0016940352   1.301e-06
    FTFE       NT  1  0.0016940352   1.301e-06
    FTFE       NL  1  0.0016940352   1.301e-06
    FTFE       NR  1  0.0016940352   1.301e-06
    FTFE       NZ  1  0.0016940352   1.301e-06
    FTFE       NE  1  0.0016940352   1.301e-06
    FTFE        C  1  0.0016604016   1.837e-06
    FTFE      CH0  1  0.0016604016   1.837e-06
    FTFE      CH1  1  0.0018519072   1.933e-06
    FTFE      CH2  1  0.0023588136  2.1775964e-06
    FTFE      CH3  1  0.0028410096  2.455782e-06
    FTFE      CH4  1  0.003939936   5.862e-06
    FTFE     CH2r  1  0.0023588136  2.1775964e-06
    FTFE      CR1  1  0.002551692   2.886e-06
    FTFE       HC  1  0.000315744    1.23e-07
    FTFE        H  1           0           0
    FTFE      DUM  1           0           0
    FTFE        S  1  0.0034292544   3.616e-06
    FTFE     CU1+  1  0.000701844   7.159e-08
    FTFE     CU2+  1  0.000701844   7.159e-08
    FTFE       FE  1           0           0
    FTFE     ZN2+  1  0.000701844   9.716e-08
    FTFE     MG2+  1  0.0002773056   5.838e-08
    FTFE     CA2+  1  0.001087944   7.057e-07
    FTFE        P  1  0.004166448   4.711e-06
    FTFE       AR  1  0.002716428   3.138e-06
    FTFE        F  1  0.0011778624   8.722e-07
    FTFE       CL  1  0.0032130384   3.911e-06
    FTFE       BR  1  0.005707416   8.092e-06
    FTFE     CMet  1  0.0032332872     4.4e-06
    FTFE     OMet  1  0.0016322592   1.525e-06
    FTFE      NA+  1  0.00029134248    1.45e-07
    FTFE      CL-  1   0.0040326   1.034e-05
    FTFE     CChl  1  0.0017603414   2.016e-06
    FTFE    CLChl  1  0.0031279591  3.7101e-06
    FTFE     HChl  1  0.0002107248  6.5574e-08
    FTFE    SDmso  1  0.0035270664  4.6366e-06
    FTFE    CDmso  1  0.003365076   5.162e-06
    FTFE    ODmso  1  0.0016354166  8.6686e-07
    FTFE     CCl4  1  0.0017603414  2.7568e-06
    FTFE    CLCl4  1  0.0029927383  3.5732e-06
    FTFE     FTFE  1  0.0011778624       1e-06
    CTFE        O  1  0.0023009528  1.5818407e-06
    CTFE       OM  1  0.0023009528  1.5818407e-06
    CTFE       OA  1  0.0023009528  2.066625e-06
    CTFE       OE  1  0.0023009528  2.066625e-06
    CTFE       OW  1  0.0024751208  2.981451e-06
    CTFE        N  1  0.0023880368  2.389937e-06
    CTFE       NT  1  0.0023880368  2.389937e-06
    CTFE       NL  1  0.0023880368  2.389937e-06
    CTFE       NR  1  0.0023880368  2.389937e-06
    CTFE       NZ  1  0.0023880368  2.389937e-06
    CTFE       NE  1  0.0023880368  2.389937e-06
    CTFE        C  1  0.0023406244  3.374569e-06
    CTFE      CH0  1  0.0023406244  3.374569e-06
    CTFE      CH1  1  0.0026105848  3.550921e-06
    CTFE      CH2  1  0.0033251574  4.0002446e-06
    CTFE      CH3  1  0.0040048964  4.5112715e-06
    CTFE      CH4  1  0.005554024  1.0768494e-05
    CTFE     CH2r  1  0.0033251574  4.0002446e-06
    CTFE      CR1  1  0.003597053  5.301582e-06
    CTFE       HC  1  0.000445096  2.25951e-07
    CTFE        H  1           0           0
    CTFE      DUM  1           0           0
    CTFE        S  1  0.0048341296  6.642592e-06
    CTFE     CU1+  1  0.000989371  1.3151083e-07
    CTFE     CU2+  1  0.000989371  1.3151083e-07
    CTFE       FE  1           0           0
    CTFE     ZN2+  1  0.000989371  1.7848292e-07
    CTFE     MG2+  1  0.0003909104  1.0724406e-07
    CTFE     CA2+  1  0.001533646  1.2963709e-06
    CTFE        P  1  0.005873332  8.654107e-06
    CTFE       AR  1  0.003829277  5.764506e-06
    CTFE        F  1  0.0016604016  1.6022314e-06
    CTFE       CL  1  0.0045293356  7.184507e-06
    CTFE       BR  1  0.008045594  1.4865004e-05
    CTFE     CMet  1  0.0045578798  8.0828e-06
    CTFE     OMet  1  0.0023009528  2.801425e-06
    CTFE      NA+  1  0.00041069782  2.66365e-07
    CTFE      CL-  1  0.00568465  1.899458e-05
    CTFE     CChl  1  0.002481507  3.703392e-06
    CTFE    CLChl  1  0.0044094016  6.8154537e-06
    CTFE     HChl  1  0.0002970532  1.2045944e-07
    CTFE    SDmso  1  0.0049720126  8.5174342e-06
    CTFE    CDmso  1  0.004743659  9.482594e-06
    CTFE    ODmso  1  0.0023054038  1.5924218e-06
    CTFE     CCl4  1  0.002481507  5.0642416e-06
    CTFE    CLCl4  1  0.0042187844  6.5639684e-06
    CTFE     FTFE  1  0.0016604016   1.837e-06
    CTFE     CTFE  1  0.0023406244  3.374569e-06
   CHTFE        O  1  0.0040088324  4.3718047e-06
   CHTFE       OM  1  0.0040088324  4.3718047e-06
   CHTFE       OA  1  0.0040088324  5.711625e-06
   CHTFE       OE  1  0.0040088324  5.711625e-06
   CHTFE       OW  1  0.0043122764  8.239971e-06
   CHTFE        N  1  0.0041605544  6.605177e-06
   CHTFE       NT  1  0.0041605544  6.605177e-06
   CHTFE       NL  1  0.0041605544  6.605177e-06
   CHTFE       NR  1  0.0041605544  6.605177e-06
   CHTFE       NZ  1  0.0041605544  6.605177e-06
   CHTFE       NE  1  0.0041605544  6.605177e-06
   CHTFE        C  1  0.0040779502  9.326449e-06
   CHTFE      CH0  1  0.0040779502  9.326449e-06
   CHTFE      CH1  1  0.0045482884  9.813841e-06
   CHTFE      CH2  1  0.0057932517  1.1055657e-05
   CHTFE      CH3  1  0.0069775262  1.2468005e-05
   CHTFE      CH4  1  0.009676492  2.9761374e-05
   CHTFE     CH2r  1  0.0057932517  1.1055657e-05
   CHTFE      CR1  1  0.0062669615  1.4652222e-05
   CHTFE       HC  1  0.000775468  6.24471e-07
   CHTFE        H  1           0           0
   CHTFE      DUM  1           0           0
   CHTFE        S  1  0.0084222568  1.8358432e-05
   CHTFE     CU1+  1  0.0017237305  3.6346243e-07
   CHTFE     CU2+  1  0.0017237305  3.6346243e-07
   CHTFE       FE  1           0           0
   CHTFE     ZN2+  1  0.0017237305  4.9328132e-07
   CHTFE     MG2+  1  0.0006810632  2.9639526e-07
   CHTFE     CA2+  1  0.002671993  3.5828389e-06
   CHTFE        P  1  0.010232806  2.3917747e-05
   CHTFE       AR  1  0.0066715535  1.5931626e-05
   CHTFE        F  1  0.0028928328  4.4281594e-06
   CHTFE       CL  1  0.0078912298  1.9856147e-05
   CHTFE       BR  1  0.014017427  4.1083084e-05
   CHTFE     CMet  1  0.0079409609  2.23388e-05
   CHTFE     OMet  1  0.0040088324  7.742425e-06
   CHTFE      NA+  1  0.00071553781  7.36165e-07
   CHTFE      CL-  1  0.009904075  5.249618e-05
   CHTFE     CChl  1  0.0043234027  1.0235232e-05
   CHTFE    CLChl  1  0.0076822749  1.8836178e-05
   CHTFE     HChl  1  0.0005175406  3.329192e-07
   CHTFE    SDmso  1  0.0086624833  2.3540018e-05
   CHTFE    CDmso  1  0.0082646345  2.6207474e-05
   CHTFE    ODmso  1  0.0040165871  4.4010482e-06
   CHTFE     CCl4  1  0.0043234027  1.3996274e-05
   CHTFE    CLCl4  1  0.0073501723  1.8141136e-05
   CHTFE     FTFE  1  0.0028928328   5.077e-06
   CHTFE     CTFE  1  0.0040779502  9.326449e-06
   CHTFE    CHTFE  1  0.0071048041  2.5775929e-05
    OTFE        O  1  0.0022619536  1.0565697e-06
    OTFE       OM  1  0.0022619536  1.0565697e-06
    OTFE       OA  1  0.0022619536  1.380375e-06
    OTFE       OE  1  0.0022619536  1.380375e-06
    OTFE       OW  1  0.0024331696  1.991421e-06
    OTFE        N  1  0.0023475616  1.596327e-06
    OTFE       NT  1  0.0023475616  1.596327e-06
    OTFE       NL  1  0.0023475616  1.596327e-06
    OTFE       NR  1  0.0023475616  1.596327e-06
    OTFE       NZ  1  0.0023475616  1.596327e-06
    OTFE       NE  1  0.0023475616  1.596327e-06
    OTFE        C  1  0.0023009528  2.253999e-06
    OTFE      CH0  1  0.0023009528  2.253999e-06
    OTFE      CH1  1  0.0025663376  2.371791e-06
    OTFE      CH2  1  0.0032687988  2.6719108e-06
    OTFE      CH3  1  0.0039370168  3.0132445e-06
    OTFE      CH4  1  0.005459888  7.192674e-06
    OTFE     CH2r  1  0.0032687988  2.6719108e-06
    OTFE      CR1  1  0.003536086  3.541122e-06
    OTFE       HC  1  0.000437552  1.50921e-07
    OTFE        H  1           0           0
    OTFE      DUM  1           0           0
    OTFE        S  1  0.0047521952  4.436832e-06
    OTFE     CU1+  1  0.000972602  8.784093e-08
    OTFE     CU2+  1  0.000972602  8.784093e-08
    OTFE       FE  1           0           0
    OTFE     ZN2+  1  0.000972602  1.1921532e-07
    OTFE     MG2+  1  0.0003842848  7.163226e-08
    OTFE     CA2+  1  0.001507652  8.658939e-07
    OTFE        P  1  0.005773784  5.780397e-06
    OTFE       AR  1  0.003764374  3.850326e-06
    OTFE        F  1  0.0016322592  1.0701894e-06
    OTFE       CL  1  0.0044525672  4.798797e-06
    OTFE       BR  1  0.007909228  9.928884e-06
    OTFE     CMet  1  0.0044806276  5.3988e-06
    OTFE     OMet  1  0.0022619536  1.871175e-06
    OTFE      NA+  1  0.00040373684  1.77915e-07
    OTFE      CL-  1   0.0055883  1.268718e-05
    OTFE     CChl  1  0.0024394475  2.473632e-06
    OTFE    CLChl  1  0.004334666  4.5522927e-06
    OTFE     HChl  1  0.0002920184  8.0459298e-08
    OTFE    SDmso  1  0.0048877412  5.6891082e-06
    OTFE    CDmso  1  0.004663258  6.333774e-06
    OTFE    ODmso  1  0.0022663291  1.0636372e-06
    OTFE     CCl4  1  0.0024394475  3.3825936e-06
    OTFE    CLCl4  1  0.0041472796  4.3843164e-06
    OTFE     FTFE  1  0.0016322592   1.227e-06
    OTFE     CTFE  1  0.0023009528  2.253999e-06
    OTFE    CHTFE  1  0.0040088324  6.229479e-06
    OTFE     OTFE  1  0.0022619536  1.505529e-06
   CUrea        O  1  0.0033247294  3.174359e-06
   CUrea       OM  1  0.0033247294  3.174359e-06
   CUrea       OA  1  0.0033247294  4.1472e-06
   CUrea       OE  1  0.0033247294  4.1472e-06
   CUrea       OW  1  0.003576391  5.9830272e-06
   CUrea        N  1  0.0034505602  4.7960064e-06
   CUrea       NT  1  0.0034505602  4.7960064e-06
   CUrea       NL  1  0.0034505602  4.7960064e-06
   CUrea       NR  1  0.0034505602  4.7960064e-06
   CUrea       NZ  1  0.0034505602  4.7960064e-06
   CUrea       NE  1  0.0034505602  4.7960064e-06
   CUrea        C  1  0.0033820523  6.7719168e-06
   CUrea      CH0  1  0.0033820523  6.7719168e-06
   CUrea      CH1  1  0.0037721278  7.1258112e-06
   CUrea      CH2  1  0.0048046394  8.0274914e-06
   CUrea      CH3  1  0.0057868187  9.0529948e-06
   CUrea      CH4  1  0.0080252088  2.1609677e-05
   CUrea     CH2r  1  0.0048046394  8.0274914e-06
   CUrea      CR1  1  0.0051975111  1.063895e-05
   CUrea       HC  1  0.0006431352  4.534272e-07
   CUrea        H  1           0           0
   CUrea      DUM  1           0           0
   CUrea        S  1  0.0069850075  1.3330022e-05
   CUrea     CU1+  1  0.0014295777  2.6390938e-07
   CUrea     CU2+  1  0.0014295777  2.6390938e-07
   CUrea       FE  1           0           0
   CUrea     ZN2+  1  0.0014295777  3.5817062e-07
   CUrea     MG2+  1  0.00056484048  2.1521203e-07
   CUrea     CA2+  1  0.0022160202  2.6014925e-06
   CUrea        P  1  0.0084865884  1.736663e-05
   CUrea       AR  1  0.0055330599  1.1567923e-05
   CUrea        F  1  0.0023991739  3.2152781e-06
   CUrea       CL  1  0.0065445997  1.441751e-05
   CUrea       BR  1  0.011625368  2.9830349e-05
   CUrea     CMet  1  0.0065858443  1.622016e-05
   CUrea     OMet  1  0.0033247294  5.62176e-06
   CUrea      NA+  1  0.00059343203  5.34528e-07
   CUrea      CL-  1  0.008213955  3.8117376e-05
   CUrea     CChl  1  0.0035856186  7.4317824e-06
   CUrea    CLChl  1  0.0063713027  1.3676913e-05
   CUrea     HChl  1  0.00042922284  2.4173199e-07
   CUrea    SDmso  1  0.0071842396  1.7092362e-05
   CUrea    CDmso  1  0.0068542833  1.9029197e-05
   CUrea    ODmso  1  0.0033311607  3.1955927e-06
   CUrea     CCl4  1  0.0035856186  1.0162668e-05
   CUrea    CLCl4  1  0.0060958731  1.3172244e-05
   CUrea     FTFE  1  0.0023991739  3.6864e-06
   CUrea     CTFE  1  0.0033820523  6.7719168e-06
   CUrea    CHTFE  1  0.0058923767  1.8715853e-05
   CUrea     OTFE  1  0.0033247294  4.5232128e-06
   CUrea    CUrea  1  0.0048868488  1.3589545e-05
   OUrea        O  1  0.0023123672  1.085761e-06
   OUrea       OM  1  0.0023123672  1.085761e-06
   OUrea       OA  1  0.0023123672  1.4185125e-06
   OUrea       OE  1  0.0023123672  1.4185125e-06
   OUrea       OW  1  0.0024873992  2.0464407e-06
   OUrea        N  1  0.0023998832  1.6404309e-06
   OUrea       NT  1  0.0023998832  1.6404309e-06
   OUrea       NL  1  0.0023998832  1.6404309e-06
   OUrea       NR  1  0.0023998832  1.6404309e-06
   OUrea       NZ  1  0.0023998832  1.6404309e-06
   OUrea       NE  1  0.0023998832  1.6404309e-06
   OUrea        C  1  0.0023522356  2.3162733e-06
   OUrea      CH0  1  0.0023522356  2.3162733e-06
   OUrea      CH1  1  0.0026235352  2.4373197e-06
   OUrea      CH2  1  0.0033416526  2.7457313e-06
   OUrea      CH3  1  0.0040247636  3.0964955e-06
   OUrea      CH4  1  0.005581576  7.3913958e-06
   OUrea     CH2r  1  0.0033416526  2.7457313e-06
   OUrea      CR1  1  0.003614897  3.6389574e-06
   OUrea       HC  1  0.000447304  1.550907e-07
   OUrea        H  1           0           0
   OUrea      DUM  1           0           0
   OUrea        S  1  0.0048581104  4.5594144e-06
   OUrea     CU1+  1  0.000994279  9.0267831e-08
   OUrea     CU2+  1  0.000994279  9.0267831e-08
   OUrea       FE  1           0           0
   OUrea     ZN2+  1  0.000994279  1.2250904e-07
   OUrea     MG2+  1  0.0003928496  7.3611342e-08
   OUrea     CA2+  1  0.001541254  8.8981713e-07
   OUrea        P  1  0.005902468  5.9400999e-06
   OUrea       AR  1  0.003848273  3.9567042e-06
   OUrea        F  1  0.0016686384  1.099757e-06
   OUrea       CL  1  0.0045518044  4.9313799e-06
   OUrea       BR  1  0.008085506  1.0203203e-05
   OUrea     CMet  1  0.0045804902  5.54796e-06
   OUrea     OMet  1  0.0023123672  1.9228725e-06
   OUrea      NA+  1  0.00041273518  1.828305e-07
   OUrea      CL-  1  0.00571285  1.3037706e-05
   OUrea     CChl  1  0.002493817  2.5419744e-06
   OUrea    CLChl  1  0.0044312754  4.6780651e-06
   OUrea     HChl  1  0.0002985268  8.2682257e-08
   OUrea    SDmso  1  0.0049966774  5.8462889e-06
   OUrea    CDmso  1  0.004767191  6.5087658e-06
   OUrea    ODmso  1  0.0023168402  1.0930238e-06
   OUrea     CCl4  1  0.002493817  3.4760491e-06
   OUrea    CLCl4  1  0.0042397126  4.5054479e-06
   OUrea     FTFE  1  0.0016686384  1.2609e-06
   OUrea     CTFE  1  0.0023522356  2.3162733e-06
   OUrea    CHTFE  1  0.0040981798  6.4015893e-06
   OUrea     OTFE  1  0.0023123672  1.5471243e-06
   OUrea    CUrea  1  0.0033988297  4.6481818e-06
   OUrea    OUrea  1  0.0023639044  1.5898688e-06
   NUrea        O  1  0.0027538667  1.7116085e-06
   NUrea       OM  1  0.0027538667  1.7116085e-06
   NUrea       OA  1  0.0027538667  2.2361625e-06
   NUrea       OE  1  0.0027538667  2.2361625e-06
   NUrea       OW  1  0.0029623175  3.2260371e-06
   NUrea        N  1  0.0028580921  2.5859977e-06
   NUrea       NT  1  0.0028580921  2.5859977e-06
   NUrea       NL  1  0.0028580921  2.5859977e-06
   NUrea       NR  1  0.0028580921  2.5859977e-06
   NUrea       NZ  1  0.0028580921  2.5859977e-06
   NUrea       NE  1  0.0028580921  2.5859977e-06
   NUrea        C  1  0.0028013471  3.6514049e-06
   NUrea      CH0  1  0.0028013471  3.6514049e-06
   NUrea      CH1  1  0.0031244459  3.8422241e-06
   NUrea      CH2  1  0.0039796732  4.3284084e-06
   NUrea      CH3  1  0.0047932103  4.8813579e-06
   NUrea      CH4  1  0.0066472644  1.1651897e-05
   NUrea     CH2r  1  0.0039796732  4.3284084e-06
   NUrea      CR1  1  0.0043050881  5.7365022e-06
   NUrea       HC  1  0.0005327076  2.444871e-07
   NUrea        H  1           0           0
   NUrea      DUM  1           0           0
   NUrea        S  1  0.0057856678  7.1875232e-06
   NUrea     CU1+  1  0.0011841163  1.4229944e-07
   NUrea     CU2+  1  0.0011841163  1.4229944e-07
   NUrea       FE  1           0           0
   NUrea     ZN2+  1  0.0011841163  1.9312493e-07
   NUrea     MG2+  1  0.00046785624  1.1604193e-07
   NUrea     CA2+  1  0.0018355251  1.4027199e-06
   NUrea        P  1  0.0070294242  9.3640547e-06
   NUrea       AR  1  0.0045830224  6.2374026e-06
   NUrea        F  1  0.001987231  1.7336719e-06
   NUrea       CL  1  0.0054208789  7.7738947e-06
   NUrea       BR  1  0.0096292689  1.6084468e-05
   NUrea     CMet  1  0.0054550416  8.74588e-06
   NUrea     OMet  1  0.0027538667  3.0312425e-06
   NUrea      NA+  1  0.00049153857  2.882165e-07
   NUrea      CL-  1  0.0068036025  2.0552818e-05
   NUrea     CChl  1  0.0029699607  4.0072032e-06
   NUrea    CLChl  1  0.0052773373  7.3745658e-06
   NUrea     HChl  1  0.00035552442  1.3034144e-07
   NUrea    SDmso  1  0.0059506913  9.2161698e-06
   NUrea    CDmso  1  0.0056773891  1.0260507e-05
   NUrea    ODmso  1  0.0027591938  1.7230576e-06
   NUrea     CCl4  1  0.0029699607  5.4796914e-06
   NUrea    CLCl4  1  0.0050491995  7.1024496e-06
   NUrea     FTFE  1  0.001987231  1.9877e-06
   NUrea     CTFE  1  0.0028013471  3.6514049e-06
   NUrea    CHTFE  1  0.0048806439  1.0091553e-05
   NUrea     OTFE  1  0.0027538667  2.4389079e-06
   NUrea    CUrea  1  0.0040477671  7.3274573e-06
   NUrea    OUrea  1  0.0028152439  2.5062909e-06
   NUrea    NUrea  1  0.0033527574  3.9509513e-06
      SI        O  1  0.005773784  4.0566421e-06
      SI       OM  1  0.005773784  4.0566421e-06
      SI       OA  1  0.005773784  5.299875e-06
      SI       OE  1  0.005773784  5.299875e-06
      SI       OW  1  0.006210824  7.645953e-06
      SI        N  1  0.005992304  6.129011e-06
      SI       NT  1  0.005992304  6.129011e-06
      SI       NL  1  0.005992304  6.129011e-06
      SI       NR  1  0.005992304  6.129011e-06
      SI       NZ  1  0.005992304  6.129011e-06
      SI       NE  1  0.005992304  6.129011e-06
      SI        C  1  0.005873332  8.654107e-06
      SI      CH0  1  0.005873332  8.654107e-06
      SI      CH1  1  0.006550744  9.106363e-06
      SI      CH2  1  0.008343822  1.0258657e-05
      SI      CH3  1  0.010049492  1.1569189e-05
      SI      CH4  1  0.01393672  2.7615882e-05
      SI     CH2r  1  0.008343822  1.0258657e-05
      SI      CR1  1  0.00902609  1.3595946e-05
      SI       HC  1  0.00111688  5.79453e-07
      SI        H  1           0           0
      SI      DUM  1           0           0
      SI        S  1  0.012130288  1.7034976e-05
      SI     CU1+  1  0.00248263  3.3726049e-07
      SI     CU2+  1  0.00248263  3.3726049e-07
      SI       FE  1           0           0
      SI     ZN2+  1  0.00248263  4.5772076e-07
      SI     MG2+  1  0.000980912  2.7502818e-07
      SI     CA2+  1  0.00384838  3.3245527e-06
      SI        P  1  0.01473796  2.2193521e-05
      SI       AR  1  0.00960881  1.4783118e-05
      SI        F  1  0.004166448  4.1089342e-06
      SI       CL  1  0.011365468  1.8424721e-05
      SI       BR  1  0.02018882  3.8121412e-05
      SI     CMet  1  0.011437094  2.07284e-05
      SI     OMet  1  0.005773784  7.184275e-06
      SI      NA+  1  0.0010305646  6.83095e-07
      SI      CL-  1   0.0142645  4.871174e-05
      SI     CChl  1  0.0062268488  9.497376e-06
      SI    CLChl  1  0.011064517  1.7478281e-05
      SI     HChl  1  0.000745396  3.0891911e-07
      SI    SDmso  1  0.012476278  2.1843023e-05
      SI    CDmso  1  0.01190327  2.4318182e-05
      SI    ODmso  1  0.0057849528  4.0837775e-06
      SI     CCl4  1  0.0062268488  1.2987285e-05
      SI    CLCl4  1  0.010586201  1.6833345e-05
      SI     FTFE  1  0.004166448   4.711e-06
      SI     CTFE  1  0.005873332  8.654107e-06
      SI    CHTFE  1  0.010232806  2.3917747e-05
      SI     OTFE  1  0.005773784  5.780397e-06
      SI    CUrea  1  0.0084865884  1.736663e-05
      SI    OUrea  1  0.005902468  5.9400999e-06
      SI    NUrea  1  0.0070294242  9.3640547e-06
      SI       SI  1  0.01473796  2.2193521e-05

; --- Appended from ATB 54a7 [ pairtypes ] ---
	CH3p	O	1	3.937017E-03	2.114674E-06
	CH3p	OM	1	3.937017E-03	2.114674E-06
	CH3p	OA	1	3.937017E-03	2.762755E-06
	CH3p	OE	1	3.937017E-03	2.762755E-06
	CH3p	OW	1	4.235025E-03	3.985734E-06
	CH3p	N	1	4.086021E-03	3.194972E-06
	CH3p	NT	1	4.086021E-03	3.194972E-06
	CH3p	NL	1	4.086021E-03	3.194972E-06
	CH3p	NR	1	4.086021E-03	3.194972E-06
	CH3p	NZ	1	4.086021E-03	3.194972E-06
	CH3p	NE	1	4.086021E-03	3.194972E-06
	CH3p	C	1	4.004896E-03	4.511272E-06
	CH3p	CH0	1	4.004896E-03	4.511272E-06
	CH3p	CH1	1	4.466809E-03	4.747027E-06
	CH3p	CH2	1	5.689469E-03	5.347702E-06
	CH3p	CH3	1	6.852528E-03	6.030865E-06
	CH3p	CH4	1	9.503144E-03	1.439579E-05
	CH3p	CH2r	1	5.689469E-03	5.347702E-06
	CH3p	CR1	1	6.154693E-03	7.087387E-06
	CH3p	HC	1	7.615760E-04	3.020612E-07
	CH3p	H	1	0.000000E+00	0.000000E+00
	CH3p	DUM	1	0.000000E+00	0.000000E+00
	CH3p	S	1	8.271378E-03	8.880108E-06
	CH3p	CU1+	1	1.692851E-03	1.758094E-07
	CH3p	CU2+	1	1.692851E-03	1.758094E-07
	CH3p	FE	1	0.000000E+00	0.000000E+00
	CH3p	ZN2+	1	1.692851E-03	2.386038E-07
	CH3p	MG2+	1	6.688624E-04	1.433686E-07
	CH3p	CA2+	1	2.624126E-03	1.733045E-06
	CH3p	P	1	1.004949E-02	1.156919E-05
	CH3p	AR	1	6.552037E-03	7.706244E-06
	CH3p	F	1	2.841010E-03	2.141933E-06
	CH3p	CL	1	7.749864E-03	9.604563E-06
	CH3p	BR	1	1.376631E-02	1.987219E-05
	CH3p	CMet	1	7.798704E-03	1.080544E-05
	CH3p	OMet	1	3.937017E-03	3.745068E-06
	CH3p	NA+	1	7.350202E-04	6.630611E-07
	CH3p	CL-	1	9.369040E-03	1.909616E-05
	CH3p	CChl	1	4.245952E-03	4.950857E-06
	CH3p	CLChl	1	7.544652E-03	9.111197E-06
	CH3p	HChl	1	5.082692E-04	1.610354E-07
	CH3p	SDmso	1	8.507301E-03	1.138648E-05
	CH3p	CDmso	1	8.116579E-03	1.267675E-05
	CH3p	ODmso	1	3.944633E-03	2.128819E-06
	CH3p	CCl4	1	4.245952E-03	6.770100E-06
	CH3p	CLCl4	1	7.218499E-03	8.775000E-06
	CH3p	FTFE	1	2.841010E-03	2.455782E-06
	CH3p	CTFE	1	4.004896E-03	4.511272E-06
	CH3p	CHTFE	1	6.977526E-03	1.246801E-05
	CH3p	OTFE	1	3.937017E-03	3.013245E-06
	CH3p	CUrea	1	5.786819E-03	9.052995E-06
	CH3p	OUrea	1	4.024764E-03	3.096496E-06
	CH3p	NUrea	1	4.793210E-03	4.881358E-06
	CH3p	CH3p	1	6.852528E-03	6.030865E-06
	SI	CH3p	1	1.004949E-02	1.156919E-05
   CLCl4        I 1  0.0186172       4.352158e-05   
   CLCl4    CLOpt 1  0.00716348      1.026223e-05   
   CLCl4        B 1  0.004218736     7.93965e-06    
   CLCl4       SE 1  0.008713024     1.292069e-05   
   CLCl4     HS14 1  0.00080224      4.395036e-07   
   CLCl4    CLAro 1  0.00716348      1.026223e-05   
   CLCl4    BROpt 1  0.01612677      3.9198e-05     
   CLCl4    OEOpt 1  0.004846576     7.807442e-06   
   CLCl4     NOpt 1  0.00792648      1.929528e-05   
   CLCl4     CAro 1  0.004218736     7.543025e-06   
   CLCl4     CPos 1  0.003924        3.5732e-06     
   CLCl4     NPri 1  0.0090688       2.50124e-05    
   CLCl4     NTer 1  0.00810088      1.60794e-05    
   CLCl4     OAlc 1  0.003673736     4.484723e-06   
   CUrea        I 1  0.01492578      4.490035e-05   
   CUrea    CLOpt 1  0.005743107     1.058734e-05   
   CUrea        B 1  0.003382246     8.191181e-06   
   CUrea       SE 1  0.006985407     1.333002e-05   
   CUrea     HS14 1  0.000643172     4.534272e-07   
   CUrea    CLAro 1  0.005743107     1.058734e-05   
   CUrea    BROpt 1  0.01292916      4.043981e-05   
   CUrea    OEOpt 1  0.003885598     8.054784e-06   
   CUrea     NOpt 1  0.006354819     1.990656e-05   
   CUrea     CAro 1  0.003382246     7.78199e-06    
   CUrea     CPos 1  0.00314595      3.6864e-06     
   CUrea     NPri 1  0.00727064      2.58048e-05    
   CUrea     NTer 1  0.006494639     1.65888e-05    
   CUrea     OAlc 1  0.002945308     4.626801e-06   
    CU2+        I 1  0.004366075     8.719662e-07   
    CU2+    CLOpt 1  0.001679968     2.056065e-07   
    CU2+        B 1  0.000989371     1.59073e-07    
    CU2+       SE 1  0.002043364     2.588694e-07   
    CU2+     HS14 1  0.00018814      8.80557e-09    
    CU2+    CLAro 1  0.001679968     2.056065e-07   
    CU2+    BROpt 1  0.003782023     7.853423e-07   
    CU2+    OEOpt 1  0.001136611     1.564241e-07   
    CU2+     NOpt 1  0.001858905     3.86586e-07    
    CU2+     CAro 1  0.000989371     1.511265e-07   
    CU2+     CPos 1  0.00092025      7.159e-08      
    CU2+     NPri 1  0.0021268       5.0113e-07     
    CU2+     NTer 1  0.001899805     3.22155e-07    
    CU2+     OAlc 1  0.0008615585    8.985261e-08   
    ZN2+        I 1  0.004366075     1.183409e-06   
    ZN2+    CLOpt 1  0.001679968     2.790435e-07   
    ZN2+        B 1  0.000989371     2.158895e-07   
    ZN2+       SE 1  0.002043364     3.513306e-07   
    ZN2+     HS14 1  0.00018814      1.195068e-08   
    ZN2+    CLAro 1  0.001679968     2.790435e-07   
    ZN2+    BROpt 1  0.003782023     1.065845e-06   
    ZN2+    OEOpt 1  0.001136611     2.122946e-07   
    ZN2+     NOpt 1  0.001858905     5.24664e-07    
    ZN2+     CAro 1  0.000989371     2.051048e-07   
    ZN2+     CPos 1  0.00092025      9.716e-08      
    ZN2+     NPri 1  0.0021268       6.8012e-07     
    ZN2+     NTer 1  0.001899805     4.3722e-07     
    ZN2+     OAlc 1  0.0008615585    1.219455e-07   
       O        I 1  0.01015406      1.04882e-05    
       O    CLOpt 1  0.003907054     2.473079e-06   
       O        B 1  0.002300953     1.913364e-06   
       O       SE 1  0.004752195     3.113738e-06   
       O     HS14 1  0.000437552     1.059153e-07   
       O    CLAro 1  0.003907054     2.473079e-06   
       O    BROpt 1  0.008795746     9.446267e-06   
       O    OEOpt 1  0.002643385     1.881503e-06   
       O     NOpt 1  0.004323204     4.64994e-06    
       O     CAro 1  0.002300953     1.817782e-06   
       O     CPos 1  0.0021402       8.611e-07      
       O     NPri 1  0.00494624      6.0277e-06     
       O     NTer 1  0.004418324     3.87495e-06    
       O     OAlc 1  0.002003703     1.080767e-06   
      NR        I 1  0.01053836      1.584618e-05   
      NR    CLOpt 1  0.004054924     3.736472e-06   
      NR        B 1  0.002388037     2.890822e-06   
      NR       SE 1  0.004932051     4.704416e-06   
      NR     HS14 1  0.000454112     1.60023e-07    
      NR    CLAro 1  0.004054924     3.736472e-06   
      NR    BROpt 1  0.009128638     1.427197e-05   
      NR    OEOpt 1  0.002743429     2.842685e-06   
      NR     NOpt 1  0.004486824     7.0254e-06     
      NR     CAro 1  0.002388037     2.746411e-06   
      NR     CPos 1  0.0022212       1.301e-06      
      NR     NPri 1  0.00513344      9.107e-06      
      NR     NTer 1  0.004585544     5.8545e-06     
      NR     OAlc 1  0.002079537     1.632885e-06   
   ODmso        I 1  0.01017327      1.055835e-05   
   ODmso    CLOpt 1  0.003914448     2.489622e-06   
   ODmso        B 1  0.002305307     1.926163e-06   
   ODmso       SE 1  0.004761188     3.134566e-06   
   ODmso     HS14 1  0.00043838      1.066238e-07   
   ODmso    CLAro 1  0.003914448     2.489622e-06   
   ODmso    BROpt 1  0.008812391     9.509454e-06   
   ODmso    OEOpt 1  0.002648387     1.894089e-06   
   ODmso     NOpt 1  0.004331385     4.681044e-06   
   ODmso     CAro 1  0.002305307     1.829941e-06   
   ODmso     CPos 1  0.00214425      8.6686e-07     
   ODmso     NPri 1  0.0049556       6.06802e-06    
   ODmso     NTer 1  0.004426685     3.90087e-06    
   ODmso     OAlc 1  0.002007495     1.087996e-06   
    HChl        I 1  0.00131089      7.986913e-07   
    HChl    CLOpt 1  0.000504401     1.883285e-07   
    HChl        B 1  0.0002970532    1.457054e-07   
    HChl       SE 1  0.0006135088    2.371156e-07   
    HChl     HS14 1  5.6488e-05      8.065602e-09   
    HChl    CLAro 1  0.000504401     1.883285e-07   
    HChl    BROpt 1  0.001135532     7.193468e-07   
    HChl    OEOpt 1  0.0003412612    1.432792e-07   
    HChl     NOpt 1  0.000558126     3.540996e-07   
    HChl     CAro 1  0.0002970532    1.384267e-07   
    HChl     CPos 1  0.0002763       6.5574e-08     
    HChl     NPri 1  0.00063856      4.59018e-07    
    HChl     NTer 1  0.000570406     2.95083e-07    
    HChl     OAlc 1  0.0002586782    8.230193e-08   
     CL-        I 1  0.02416393      9.471168e-05   
     CL-    CLOpt 1  0.009297737     2.233267e-05   
     CL-        B 1  0.005475648     1.727827e-05   
     CL-       SE 1  0.01130895      2.811802e-05   
     CL-     HS14 1  0.001041256     9.56448e-07    
     CL-    CLAro 1  0.009297737     2.233267e-05   
     CL-    BROpt 1  0.02093151      8.530272e-05   
     CL-    OEOpt 1  0.006290544     1.699056e-05   
     CL-     NOpt 1  0.01028806      4.19904e-05    
     CL-     CAro 1  0.005475648     1.641514e-05   
     CL-     CPos 1  0.0050931       7.776e-06      
     CL-     NPri 1  0.01177072      5.4432e-05     
     CL-     NTer 1  0.01051442      3.4992e-05     
     CL-     OAlc 1  0.004768273     9.759658e-06   
    CCl4        I 1  0.01095041      3.357782e-05   
    CCl4    CLOpt 1  0.004213474     7.91753e-06    
    CCl4        B 1  0.00248141      6.12561e-06    
    CCl4       SE 1  0.005124897     9.968589e-06   
    CCl4     HS14 1  0.000471868     3.390864e-07   
    CCl4    CLAro 1  0.004213474     7.91753e-06    
    CCl4    BROpt 1  0.009485573     3.02421e-05    
    CCl4    OEOpt 1  0.002850698     6.023608e-06   
    CCl4     NOpt 1  0.004662261     1.488672e-05   
    CCl4     CAro 1  0.00248141      5.819605e-06   
    CCl4     CPos 1  0.00230805      2.7568e-06     
    CCl4     NPri 1  0.00533416      1.92976e-05    
    CCl4     NTer 1  0.004764841     1.24056e-05    
    CCl4     OAlc 1  0.002160848     3.46006e-06    
    CChl        I 1  0.01095041      2.455488e-05   
    CChl    CLOpt 1  0.004213474     5.789952e-06   
    CChl        B 1  0.00248141      4.479552e-06   
    CChl       SE 1  0.005124897     7.289856e-06   
    CChl     HS14 1  0.000471868     2.47968e-07    
    CChl    CLAro 1  0.004213474     5.789952e-06   
    CChl    BROpt 1  0.009485573     2.211552e-05   
    CChl    OEOpt 1  0.002850698     4.40496e-06    
    CChl     NOpt 1  0.004662261     1.08864e-05    
    CChl     CAro 1  0.00248141      4.255776e-06   
    CChl     CPos 1  0.00230805      2.016e-06      
    CChl     NPri 1  0.00533416      1.4112e-05     
    CChl     NTer 1  0.004764841     9.072e-06      
    CChl     OAlc 1  0.002160848     2.530282e-06   
      OE        I 1  0.01015406      1.37025e-05    
      OE    CLOpt 1  0.003907054     3.231e-06      
      OE        B 1  0.002300953     2.49975e-06    
      OE       SE 1  0.004752195     4.068e-06      
      OE     HS14 1  0.000437552     1.38375e-07    
      OE    CLAro 1  0.003907054     3.231e-06      
      OE    BROpt 1  0.008795746     1.234125e-05   
      OE    OEOpt 1  0.002643385     2.458125e-06   
      OE     NOpt 1  0.004323204     6.075e-06      
      OE     CAro 1  0.002300953     2.374875e-06   
      OE     CPos 1  0.0021402       1.125e-06      
      OE     NPri 1  0.00494624      7.875e-06      
      OE     NTer 1  0.004418324     5.0625e-06     
      OE     OAlc 1  0.002003703     1.411987e-06   
       C        I 1  0.01032913      2.237466e-05   
       C    CLOpt 1  0.003974417     5.275864e-06   
       C        B 1  0.002340624     4.081814e-06   
       C       SE 1  0.00483413      6.642592e-06   
       C     HS14 1  0.000445096     2.25951e-07    
       C    CLAro 1  0.003974417     5.275864e-06   
       C    BROpt 1  0.008947397     2.015189e-05   
       C    OEOpt 1  0.00268896      4.013845e-06   
       C     NOpt 1  0.004397742     9.9198e-06     
       C     CAro 1  0.002340624     3.877907e-06   
       C     CPos 1  0.0021771       1.837e-06      
       C     NPri 1  0.00503152      1.2859e-05     
       C     NTer 1  0.004494502     8.2665e-06     
       C     OAlc 1  0.002038249     2.305619e-06   
      BR        I 1  0.03550505      9.856056e-05   
      BR    CLOpt 1  0.01366155      2.324022e-05   
      BR        B 1  0.008045594     1.798042e-05   
      BR       SE 1  0.0166167       2.926067e-05   
      BR     HS14 1  0.00152996      9.95316e-07    
      BR    CLAro 1  0.01366155      2.324022e-05   
      BR    BROpt 1  0.03075552      8.876924e-05   
      BR    OEOpt 1  0.009242954     1.768102e-05   
      BR     NOpt 1  0.01511667      4.36968e-05    
      BR     CAro 1  0.008045594     1.708221e-05   
      BR     CPos 1  0.0074835       8.092e-06      
      BR     NPri 1  0.0172952       5.6644e-05     
      BR     NTer 1  0.01544927      3.6414e-05     
      BR     OAlc 1  0.007006219     1.015627e-05   
   NUrea        I 1  0.01236165      2.421019e-05   
   NUrea    CLOpt 1  0.004756485     5.708674e-06   
   NUrea        B 1  0.002801202     4.416669e-06   
   NUrea       SE 1  0.005785368     7.187523e-06   
   NUrea     HS14 1  0.00053268      2.444871e-07   
   NUrea    CLAro 1  0.004756485     5.708674e-06   
   NUrea    BROpt 1  0.01070803      2.180507e-05   
   NUrea    OEOpt 1  0.003218082     4.343124e-06   
   NUrea     NOpt 1  0.00526311      1.073358e-05   
   NUrea     CAro 1  0.002801202     4.196035e-06   
   NUrea     CPos 1  0.0026055       1.9877e-06     
   NUrea     NPri 1  0.0060216       1.39139e-05    
   NUrea     NTer 1  0.00537891      8.94465e-06    
   NUrea     OAlc 1  0.002439327     2.494762e-06   
      NT        I 1  0.01053836      1.584618e-05   
      NT    CLOpt 1  0.004054924     3.736472e-06   
      NT        B 1  0.002388037     2.890822e-06   
      NT       SE 1  0.004932051     4.704416e-06   
      NT     HS14 1  0.000454112     1.60023e-07    
      NT    CLAro 1  0.004054924     3.736472e-06   
      NT    BROpt 1  0.009128638     1.427197e-05   
      NT    OEOpt 1  0.002743429     2.842685e-06   
      NT     NOpt 1  0.004486824     7.0254e-06     
      NT     CAro 1  0.002388037     2.746411e-06   
      NT     CPos 1  0.0022212       1.301e-06      
      NT     NPri 1  0.00513344      9.107e-06      
      NT     NTer 1  0.004585544     5.8545e-06     
      NT     OAlc 1  0.002079537     1.632885e-06   
     CR1        I 1  0.01587372      3.515148e-05   
     CR1    CLOpt 1  0.006107853     8.288592e-06   
     CR1        B 1  0.003597053     6.412692e-06   
     CR1       SE 1  0.007429052     1.043578e-05   
     CR1     HS14 1  0.00068402      3.54978e-07    
     CR1    CLAro 1  0.006107853     8.288592e-06   
     CR1    BROpt 1  0.01375029      3.165942e-05   
     CR1    OEOpt 1  0.004132373     6.30591e-06    
     CR1     NOpt 1  0.006758415     1.55844e-05    
     CR1     CAro 1  0.003597053     6.092346e-06   
     CR1     CPos 1  0.00334575      2.886e-06      
     CR1     NPri 1  0.0077324       2.0202e-05     
     CR1     NTer 1  0.006907115     1.2987e-05     
     CR1     OAlc 1  0.003132365     3.622219e-06   
       S        I 1  0.02133292      4.404288e-05   
       S    CLOpt 1  0.008208428     1.038515e-05   
       S        B 1  0.00483413      8.034752e-06   
       S       SE 1  0.009984006     1.307546e-05   
       S     HS14 1  0.000919264     4.44768e-07    
       S    CLAro 1  0.008208428     1.038515e-05   
       S    BROpt 1  0.0184792       3.966752e-05   
       S    OEOpt 1  0.005553554     7.90096e-06    
       S     NOpt 1  0.009082728     1.95264e-05    
       S     CAro 1  0.00483413      7.633376e-06   
       S     CPos 1  0.0044964       3.616e-06      
       S     NPri 1  0.01039168      2.5312e-05     
       S     NTer 1  0.009282568     1.6272e-05     
       S     OAlc 1  0.00420963      4.538442e-06   
    CH3p        I 1  0.01767353      2.991164e-05   
    CH3p    CLOpt 1  0.006800377     7.053058e-06   
    CH3p        B 1  0.004004896     5.456788e-06   
    CH3p       SE 1  0.008271378     8.880173e-06   
    CH3p     HS14 1  0.000761576     3.020634e-07   
    CH3p    CLAro 1  0.006800377     7.053058e-06   
    CH3p    BROpt 1  0.01530933      2.694013e-05   
    CH3p    OEOpt 1  0.004600912     5.365923e-06   
    CH3p     NOpt 1  0.007524702     1.326132e-05   
    CH3p     CAro 1  0.004004896     5.184194e-06   
    CH3p     CPos 1  0.0037251       2.4558e-06     
    CH3p     NPri 1  0.00860912      1.71906e-05    
    CH3p     NTer 1  0.007690262     1.10511e-05    
    CH3p     OAlc 1  0.003487521     3.082275e-06   
       H        I 1  0               0              
       H    CLOpt 1  0               0              
       H        B 1  0               0              
       H       SE 1  0               0              
       H     HS14 1  0               0              
       H    CLAro 1  0               0              
       H    BROpt 1  0               0              
       H    OEOpt 1  0               0              
       H     NOpt 1  0               0              
       H     CAro 1  0               0              
       H     CPos 1  0               0              
       H     NPri 1  0               0              
       H     NTer 1  0               0              
       H     OAlc 1  0               0              
    CA2+        I 1  0.00676795      8.595426e-06   
    CA2+    CLOpt 1  0.002604155     2.02677e-06    
    CA2+        B 1  0.001533646     1.568065e-06   
    CA2+       SE 1  0.003167464     2.551811e-06   
    CA2+     HS14 1  0.00029164      8.68011e-08    
    CA2+    CLAro 1  0.002604155     2.02677e-06    
    CA2+    BROpt 1  0.005862598     7.741529e-06   
    CA2+    OEOpt 1  0.001761886     1.541954e-06   
    CA2+     NOpt 1  0.00288153      3.81078e-06    
    CA2+     CAro 1  0.001533646     1.489733e-06   
    CA2+     CPos 1  0.0014265       7.057e-07      
    CA2+     NPri 1  0.0032968       4.9399e-06     
    CA2+     NTer 1  0.00294493      3.17565e-06    
    CA2+     OAlc 1  0.001335521     8.857241e-07   
       F        I 1  0.00732732      1.06234e-05    
       F    CLOpt 1  0.002819388     2.504958e-06   
       F        B 1  0.001660402     1.938028e-06   
       F       SE 1  0.003429254     3.153875e-06   
       F     HS14 1  0.000315744     1.072806e-07   
       F    CLAro 1  0.002819388     2.504958e-06   
       F    BROpt 1  0.006347141     9.568034e-06   
       F    OEOpt 1  0.001907506     1.905757e-06   
       F     NOpt 1  0.003119688     4.70988e-06    
       F     CAro 1  0.001660402     1.841214e-06   
       F     CPos 1  0.0015444       8.722e-07      
       F     NPri 1  0.00356928      6.1054e-06     
       F     NTer 1  0.003188328     3.9249e-06     
       F     OAlc 1  0.001445902     1.094698e-06   
       N        I 1  0.01053836      1.584618e-05   
       N    CLOpt 1  0.004054924     3.736472e-06   
       N        B 1  0.002388037     2.890822e-06   
       N       SE 1  0.004932051     4.704416e-06   
       N     HS14 1  0.000454112     1.60023e-07    
       N    CLAro 1  0.004054924     3.736472e-06   
       N    BROpt 1  0.009128638     1.427197e-05   
       N    OEOpt 1  0.002743429     2.842685e-06   
       N     NOpt 1  0.004486824     7.0254e-06     
       N     CAro 1  0.002388037     2.746411e-06   
       N     CPos 1  0.0022212       1.301e-06      
       N     NPri 1  0.00513344      9.107e-06      
       N     NTer 1  0.004585544     5.8545e-06     
       N     OAlc 1  0.002079537     1.632885e-06   
     CH0        I 1  0.01032913      2.237466e-05   
     CH0    CLOpt 1  0.003974417     5.275864e-06   
     CH0        B 1  0.002340624     4.081814e-06   
     CH0       SE 1  0.00483413      6.642592e-06   
     CH0     HS14 1  0.000445096     2.25951e-07    
     CH0    CLAro 1  0.003974417     5.275864e-06   
     CH0    BROpt 1  0.008947397     2.015189e-05   
     CH0    OEOpt 1  0.00268896      4.013845e-06   
     CH0     NOpt 1  0.004397742     9.9198e-06     
     CH0     CAro 1  0.002340624     3.877907e-06   
     CH0     CPos 1  0.0021771       1.837e-06      
     CH0     NPri 1  0.00503152      1.2859e-05     
     CH0     NTer 1  0.004494502     8.2665e-06     
     CH0     OAlc 1  0.002038249     2.305619e-06   
   CLChl        I 1  0.01945839      4.518902e-05   
   CLChl    CLOpt 1  0.007487151     1.065541e-05   
   CLChl        B 1  0.004409353     8.243842e-06   
   CLChl       SE 1  0.009106709     1.341572e-05   
   CLChl     HS14 1  0.000838488     4.563423e-07   
   CLChl    CLAro 1  0.007487151     1.065541e-05   
   CLChl    BROpt 1  0.01685543      4.06998e-05    
   CLChl    OEOpt 1  0.005065561     8.106569e-06   
   CLChl     NOpt 1  0.008284626     2.003454e-05   
   CLChl     CAro 1  0.004409353     7.832021e-06   
   CLChl     CPos 1  0.0041013       3.7101e-06     
   CLChl     NPri 1  0.00947856      2.59707e-05    
   CLChl     NTer 1  0.008466906     1.669545e-05   
   CLChl     OAlc 1  0.003839728     4.656547e-06   
    FTFE        I 1  0.00732732      1.218e-05      
    FTFE    CLOpt 1  0.002819388     2.872e-06      
    FTFE        B 1  0.001660402     2.222e-06      
    FTFE       SE 1  0.003429254     3.616e-06      
    FTFE     HS14 1  0.000315744     1.23e-07       
    FTFE    CLAro 1  0.002819388     2.872e-06      
    FTFE    BROpt 1  0.006347141     1.097e-05      
    FTFE    OEOpt 1  0.001907506     2.185e-06      
    FTFE     NOpt 1  0.003119688     5.4e-06        
    FTFE     CAro 1  0.001660402     2.111e-06      
    FTFE     CPos 1  0.0015444       1e-06          
    FTFE     NPri 1  0.00356928      7e-06          
    FTFE     NTer 1  0.003188328     4.5e-06        
    FTFE     OAlc 1  0.001445902     1.2551e-06     
      SI        I 1  0.0259189       5.737998e-05   
      SI    CLOpt 1  0.00997301      1.352999e-05   
      SI        B 1  0.005873332     1.046784e-05   
      SI       SE 1  0.01213029      1.703498e-05   
      SI     HS14 1  0.00111688      5.79453e-07    
      SI    CLAro 1  0.00997301      1.352999e-05   
      SI    BROpt 1  0.02245172      5.167967e-05   
      SI    OEOpt 1  0.006747412     1.029353e-05   
      SI     NOpt 1  0.01103526      2.54394e-05    
      SI     CAro 1  0.005873332     9.944921e-06   
      SI     CPos 1  0.005463        4.711e-06      
      SI     NPri 1  0.0126256       3.2977e-05     
      SI     NTer 1  0.01127806      2.11995e-05    
      SI     OAlc 1  0.005114582     5.912776e-06   
   CDmso        I 1  0.02093367      6.287316e-05   
   CDmso    CLOpt 1  0.008054808     1.482526e-05   
   CDmso        B 1  0.004743659     1.146996e-05   
   CDmso       SE 1  0.009797156     1.866579e-05   
   CDmso     HS14 1  0.00090206      6.34926e-07    
   CDmso    CLAro 1  0.008054808     1.482526e-05   
   CDmso    BROpt 1  0.01813337      5.662714e-05   
   CDmso    OEOpt 1  0.005449619     1.127897e-05   
   CDmso     NOpt 1  0.008912745     2.78748e-05    
   CDmso     CAro 1  0.004743659     1.089698e-05   
   CDmso     CPos 1  0.00441225      5.162e-06      
   CDmso     NPri 1  0.0101972       3.6134e-05     
   CDmso     NTer 1  0.009108845     2.3229e-05     
   CDmso     OAlc 1  0.004130846     6.478826e-06   
     CH4        I 1  0.0245098       7.139916e-05   
     CH4    CLOpt 1  0.00943082      1.683566e-05   
     CH4        B 1  0.005554024     1.302536e-05   
     CH4       SE 1  0.01147082      2.119699e-05   
     CH4     HS14 1  0.00105616      7.21026e-07    
     CH4    CLAro 1  0.00943082      1.683566e-05   
     CH4    BROpt 1  0.02123111      6.430614e-05   
     CH4    OEOpt 1  0.006380584     1.280847e-05   
     CH4     NOpt 1  0.01043532      3.16548e-05    
     CH4     CAro 1  0.005554024     1.237468e-05   
     CH4     CPos 1  0.005166        5.862e-06      
     CH4     NPri 1  0.0119392       4.1034e-05     
     CH4     NTer 1  0.01066492      2.6379e-05     
     CH4     OAlc 1  0.004836524     7.357396e-06   
      FE        I 1  0               0              
      FE    CLOpt 1  0               0              
      FE        B 1  0               0              
      FE       SE 1  0               0              
      FE     HS14 1  0               0              
      FE    CLAro 1  0               0              
      FE    BROpt 1  0               0              
      FE    OEOpt 1  0               0              
      FE     NOpt 1  0               0              
      FE     CAro 1  0               0              
      FE     CPos 1  0               0              
      FE     NPri 1  0               0              
      FE     NTer 1  0               0              
      FE     OAlc 1  0               0              
    CTFE        I 1  0.01032913      2.237466e-05   
    CTFE    CLOpt 1  0.003974417     5.275864e-06   
    CTFE        B 1  0.002340624     4.081814e-06   
    CTFE       SE 1  0.00483413      6.642592e-06   
    CTFE     HS14 1  0.000445096     2.25951e-07    
    CTFE    CLAro 1  0.003974417     5.275864e-06   
    CTFE    BROpt 1  0.008947397     2.015189e-05   
    CTFE    OEOpt 1  0.00268896      4.013845e-06   
    CTFE     NOpt 1  0.004397742     9.9198e-06     
    CTFE     CAro 1  0.002340624     3.877907e-06   
    CTFE     CPos 1  0.0021771       1.837e-06      
    CTFE     NPri 1  0.00503152      1.2859e-05     
    CTFE     NTer 1  0.004494502     8.2665e-06     
    CTFE     OAlc 1  0.002038249     2.305619e-06   
      OA        I 1  0.01015406      1.37025e-05    
      OA    CLOpt 1  0.003907054     3.231e-06      
      OA        B 1  0.002300953     2.49975e-06    
      OA       SE 1  0.004752195     4.068e-06      
      OA     HS14 1  0.000437552     1.38375e-07    
      OA    CLAro 1  0.003907054     3.231e-06      
      OA    BROpt 1  0.008795746     1.234125e-05   
      OA    OEOpt 1  0.002643385     2.458125e-06   
      OA     NOpt 1  0.004323204     6.075e-06      
      OA     CAro 1  0.002300953     2.374875e-06   
      OA     CPos 1  0.0021402       1.125e-06      
      OA     NPri 1  0.00494624      7.875e-06      
      OA     NTer 1  0.004418324     5.0625e-06     
      OA     OAlc 1  0.002003703     1.411987e-06   
      OW        I 1  0.01092266      1.976814e-05   
      OW    CLOpt 1  0.004202794     4.661256e-06   
      OW        B 1  0.002475121     3.606306e-06   
      OW       SE 1  0.005111907     5.868768e-06   
      OW     HS14 1  0.000470672     1.99629e-07    
      OW    CLAro 1  0.004202794     4.661256e-06   
      OW    BROpt 1  0.00946153      1.780431e-05   
      OW    OEOpt 1  0.002843473     3.546255e-06   
      OW     NOpt 1  0.004650444     8.7642e-06     
      OW     CAro 1  0.002475121     3.426153e-06   
      OW     CPos 1  0.0023022       1.623e-06      
      OW     NPri 1  0.00532064      1.1361e-05     
      OW     NTer 1  0.004752764     7.3035e-06     
      OW     OAlc 1  0.002155371     2.037027e-06   
     CH2        I 1  0.01467385      2.652317e-05   
     CH2    CLOpt 1  0.00564617      6.254067e-06   
     CH2        B 1  0.003325157     4.838627e-06   
     CH2       SE 1  0.006867502     7.874202e-06   
     CH2     HS14 1  0.000632316     2.678448e-07   
     CH2    CLAro 1  0.00564617      6.254067e-06   
     CH2    BROpt 1  0.01271093      2.388827e-05   
     CH2    OEOpt 1  0.003820013     4.758056e-06   
     CH2     NOpt 1  0.006247557     1.175904e-05   
     CH2     CAro 1  0.003325157     4.596914e-06   
     CH2     CPos 1  0.00309285      2.1776e-06     
     CH2     NPri 1  0.00714792      1.52432e-05    
     CH2     NTer 1  0.006385017     9.7992e-06     
     CH2     OAlc 1  0.002895595     2.733106e-06   
   SDmso        I 1  0.02194139      5.647379e-05   
   SDmso    CLOpt 1  0.008442556     1.331632e-05   
   SDmso        B 1  0.004972013     1.030253e-05   
   SDmso       SE 1  0.01026878      1.676595e-05   
   SDmso     HS14 1  0.000945484     5.703018e-07   
   SDmso    CLAro 1  0.008442556     1.331632e-05   
   SDmso    BROpt 1  0.01900628      5.08635e-05    
   SDmso    OEOpt 1  0.005711957     1.013097e-05   
   SDmso     NOpt 1  0.009341793     2.503764e-05   
   SDmso     CAro 1  0.004972013     9.787863e-06   
   SDmso     CPos 1  0.00462465      4.6366e-06     
   SDmso     NPri 1  0.01068808      3.24562e-05    
   SDmso     NTer 1  0.009547333     2.08647e-05    
   SDmso     OAlc 1  0.0043297       5.819397e-06   
     DUM        I 1  0               0              
     DUM    CLOpt 1  0               0              
     DUM        B 1  0               0              
     DUM       SE 1  0               0              
     DUM     HS14 1  0               0              
     DUM    CLAro 1  0               0              
     DUM    BROpt 1  0               0              
     DUM    OEOpt 1  0               0              
     DUM     NOpt 1  0               0              
     DUM     CAro 1  0               0              
     DUM     CPos 1  0               0              
     DUM     NPri 1  0               0              
     DUM     NTer 1  0               0              
     DUM     OAlc 1  0               0              
     CH1        I 1  0.01152046      2.354394e-05   
     CH1    CLOpt 1  0.004432814     5.551576e-06   
     CH1        B 1  0.002610585     4.295126e-06   
     CH1       SE 1  0.005391683     6.989728e-06   
     CH1     HS14 1  0.000496432     2.37759e-07    
     CH1    CLAro 1  0.004432814     5.551576e-06   
     CH1    BROpt 1  0.009979362     2.120501e-05   
     CH1    OEOpt 1  0.002999097     4.223605e-06   
     CH1     NOpt 1  0.004904964     1.04382e-05    
     CH1     CAro 1  0.002610585     4.080563e-06   
     CH1     CPos 1  0.0024282       1.933e-06      
     CH1     NPri 1  0.00561184      1.3531e-05     
     CH1     NTer 1  0.005012884     8.6985e-06     
     CH1     OAlc 1  0.002273335     2.426108e-06   
   CHTFE        I 1  0.01799592      6.183786e-05   
   CHTFE    CLOpt 1  0.006924424     1.458114e-05   
   CHTFE        B 1  0.00407795      1.128109e-05   
   CHTFE       SE 1  0.008422257     1.835843e-05   
   CHTFE     HS14 1  0.000775468     6.24471e-07    
   CHTFE    CLAro 1  0.006924424     1.458114e-05   
   CHTFE    BROpt 1  0.01558859      5.569469e-05   
   CHTFE    OEOpt 1  0.004684838     1.109324e-05   
   CHTFE     NOpt 1  0.007661961     2.74158e-05    
   CHTFE     CAro 1  0.00407795      1.071755e-05   
   CHTFE     CPos 1  0.00379305      5.077e-06      
   CHTFE     NPri 1  0.00876616      3.5539e-05     
   CHTFE     NTer 1  0.007830541     2.28465e-05    
   CHTFE     OAlc 1  0.003551138     6.372143e-06   
      NL        I 1  0.01053836      1.584618e-05   
      NL    CLOpt 1  0.004054924     3.736472e-06   
      NL        B 1  0.002388037     2.890822e-06   
      NL       SE 1  0.004932051     4.704416e-06   
      NL     HS14 1  0.000454112     1.60023e-07    
      NL    CLAro 1  0.004054924     3.736472e-06   
      NL    BROpt 1  0.009128638     1.427197e-05   
      NL    OEOpt 1  0.002743429     2.842685e-06   
      NL     NOpt 1  0.004486824     7.0254e-06     
      NL     CAro 1  0.002388037     2.746411e-06   
      NL     CPos 1  0.0022212       1.301e-06      
      NL     NPri 1  0.00513344      9.107e-06      
      NL     NTer 1  0.004585544     5.8545e-06     
      NL     OAlc 1  0.002079537     1.632885e-06   
      AR        I 1  0.01689853      3.822084e-05   
      AR    CLOpt 1  0.006502172     9.012336e-06   
      AR        B 1  0.003829277     6.972636e-06   
      AR       SE 1  0.007908668     1.134701e-05   
      AR     HS14 1  0.00072818      3.85974e-07    
      AR    CLAro 1  0.006502172     9.012336e-06   
      AR    BROpt 1  0.014638        3.442386e-05   
      AR    OEOpt 1  0.004399157     6.85653e-06    
      AR     NOpt 1  0.007194735     1.69452e-05    
      AR     CAro 1  0.003829277     6.624318e-06   
      AR     CPos 1  0.00356175      3.138e-06      
      AR     NPri 1  0.0082316       2.1966e-05     
      AR     NTer 1  0.007353035     1.4121e-05     
      AR     OAlc 1  0.003334589     3.938504e-06   
    CH2r        I 1  0.01467385      2.652317e-05   
    CH2r    CLOpt 1  0.00564617      6.254067e-06   
    CH2r        B 1  0.003325157     4.838627e-06   
    CH2r       SE 1  0.006867502     7.874202e-06   
    CH2r     HS14 1  0.000632316     2.678448e-07   
    CH2r    CLAro 1  0.00564617      6.254067e-06   
    CH2r    BROpt 1  0.01271093      2.388827e-05   
    CH2r    OEOpt 1  0.003820013     4.758056e-06   
    CH2r     NOpt 1  0.006247557     1.175904e-05   
    CH2r     CAro 1  0.003325157     4.596914e-06   
    CH2r     CPos 1  0.00309285      2.1776e-06     
    CH2r     NPri 1  0.00714792      1.52432e-05    
    CH2r     NTer 1  0.006385017     9.7992e-06     
    CH2r     OAlc 1  0.002895595     2.733106e-06   
     NA+        I 1  0.00189588      3.2886e-06     
     NA+    CLOpt 1  0.000729492     7.7544e-07     
     NA+        B 1  0.0004296144    5.9994e-07     
     NA+       SE 1  0.0008872896    9.7632e-07     
     NA+     HS14 1  8.1696e-05      3.321e-08      
     NA+    CLAro 1  0.000729492     7.7544e-07     
     NA+    BROpt 1  0.001642267     2.9619e-06     
     NA+    OEOpt 1  0.0004935504    5.8995e-07     
     NA+     NOpt 1  0.000807192     1.458e-06      
     NA+     CAro 1  0.0004296144    5.6997e-07     
     NA+     CPos 1  0.0003996       2.7e-07        
     NA+     NPri 1  0.00092352      1.89e-06       
     NA+     NTer 1  0.000824952     1.215e-06      
     NA+     OAlc 1  0.0003741144    3.38877e-07    
    OTFE        I 1  0.01015406      1.494486e-05   
    OTFE    CLOpt 1  0.003907054     3.523944e-06   
    OTFE        B 1  0.002300953     2.726394e-06   
    OTFE       SE 1  0.004752195     4.436832e-06   
    OTFE     HS14 1  0.000437552     1.50921e-07    
    OTFE    CLAro 1  0.003907054     3.523944e-06   
    OTFE    BROpt 1  0.008795746     1.346019e-05   
    OTFE    OEOpt 1  0.002643385     2.680995e-06   
    OTFE     NOpt 1  0.004323204     6.6258e-06     
    OTFE     CAro 1  0.002300953     2.590197e-06   
    OTFE     CPos 1  0.0021402       1.227e-06      
    OTFE     NPri 1  0.00494624      8.589e-06      
    OTFE     NTer 1  0.004418324     5.5215e-06     
    OTFE     OAlc 1  0.002003703     1.540008e-06   
    OMet        I 1  0.01015406      1.85745e-05    
    OMet    CLOpt 1  0.003907054     4.3798e-06     
    OMet        B 1  0.002300953     3.38855e-06    
    OMet       SE 1  0.004752195     5.5144e-06     
    OMet     HS14 1  0.000437552     1.87575e-07    
    OMet    CLAro 1  0.003907054     4.3798e-06     
    OMet    BROpt 1  0.008795746     1.672925e-05   
    OMet    OEOpt 1  0.002643385     3.332125e-06   
    OMet     NOpt 1  0.004323204     8.235e-06      
    OMet     CAro 1  0.002300953     3.219275e-06   
    OMet     CPos 1  0.0021402       1.525e-06      
    OMet     NPri 1  0.00494624      1.0675e-05     
    OMet     NTer 1  0.004418324     6.8625e-06     
    OMet     OAlc 1  0.002003703     1.914028e-06   
    CU1+        I 1  0.004366075     8.719662e-07   
    CU1+    CLOpt 1  0.001679968     2.056065e-07   
    CU1+        B 1  0.000989371     1.59073e-07    
    CU1+       SE 1  0.002043364     2.588694e-07   
    CU1+     HS14 1  0.00018814      8.80557e-09    
    CU1+    CLAro 1  0.001679968     2.056065e-07   
    CU1+    BROpt 1  0.003782023     7.853423e-07   
    CU1+    OEOpt 1  0.001136611     1.564241e-07   
    CU1+     NOpt 1  0.001858905     3.86586e-07    
    CU1+     CAro 1  0.000989371     1.511265e-07   
    CU1+     CPos 1  0.00092025      7.159e-08      
    CU1+     NPri 1  0.0021268       5.0113e-07     
    CU1+     NTer 1  0.001899805     3.22155e-07    
    CU1+     OAlc 1  0.0008615585    8.985261e-08   
   OUrea        I 1  0.01038037      1.535776e-05   
   OUrea    CLOpt 1  0.003994133     3.621305e-06   
   OUrea        B 1  0.002352236     2.80172e-06    
   OUrea       SE 1  0.00485811      4.559414e-06   
   OUrea     HS14 1  0.000447304     1.550907e-07   
   OUrea    CLAro 1  0.003994133     3.621305e-06   
   OUrea    BROpt 1  0.008991783     1.383207e-05   
   OUrea    OEOpt 1  0.0027023       2.755066e-06   
   OUrea     NOpt 1  0.004419558     6.80886e-06    
   OUrea     CAro 1  0.002352236     2.66176e-06    
   OUrea     CPos 1  0.0021879       1.2609e-06     
   OUrea     NPri 1  0.00505648      8.8263e-06     
   OUrea     NTer 1  0.004516798     5.67405e-06    
   OUrea     OAlc 1  0.002048361     1.582556e-06   
    CMet        I 1  0.02011384      5.3592e-05     
    CMet    CLOpt 1  0.007739351     1.26368e-05    
    CMet        B 1  0.00455788      9.7768e-06     
    CMet       SE 1  0.009413463     1.59104e-05    
    CMet     HS14 1  0.000866732     5.412e-07      
    CMet    CLAro 1  0.007739351     1.26368e-05    
    CMet    BROpt 1  0.0174232       4.8268e-05     
    CMet    OEOpt 1  0.005236192     9.614e-06      
    CMet     NOpt 1  0.008563689     2.376e-05      
    CMet     CAro 1  0.00455788      9.2884e-06     
    CMet     CPos 1  0.00423945      4.4e-06        
    CMet     NPri 1  0.00979784      3.08e-05       
    CMet     NTer 1  0.008752109     1.98e-05       
    CMet     OAlc 1  0.003969067     5.52244e-06    
      NZ        I 1  0.01053836      1.584618e-05   
      NZ    CLOpt 1  0.004054924     3.736472e-06   
      NZ        B 1  0.002388037     2.890822e-06   
      NZ       SE 1  0.004932051     4.704416e-06   
      NZ     HS14 1  0.000454112     1.60023e-07    
      NZ    CLAro 1  0.004054924     3.736472e-06   
      NZ    BROpt 1  0.009128638     1.427197e-05   
      NZ    OEOpt 1  0.002743429     2.842685e-06   
      NZ     NOpt 1  0.004486824     7.0254e-06     
      NZ     CAro 1  0.002388037     2.746411e-06   
      NZ     CPos 1  0.0022212       1.301e-06      
      NZ     NPri 1  0.00513344      9.107e-06      
      NZ     NTer 1  0.004585544     5.8545e-06     
      NZ     OAlc 1  0.002079537     1.632885e-06   
     CH3        I 1  0.01767353      2.991164e-05   
     CH3    CLOpt 1  0.006800377     7.053058e-06   
     CH3        B 1  0.004004896     5.456788e-06   
     CH3       SE 1  0.008271378     8.880173e-06   
     CH3     HS14 1  0.000761576     3.020634e-07   
     CH3    CLAro 1  0.006800377     7.053058e-06   
     CH3    BROpt 1  0.01530933      2.694013e-05   
     CH3    OEOpt 1  0.004600912     5.365923e-06   
     CH3     NOpt 1  0.007524702     1.326132e-05   
     CH3     CAro 1  0.004004896     5.184194e-06   
     CH3     CPos 1  0.0037251       2.4558e-06     
     CH3     NPri 1  0.00860912      1.71906e-05    
     CH3     NTer 1  0.007690262     1.10511e-05    
     CH3     OAlc 1  0.003487521     3.082275e-06   
       P        I 1  0.0259189       5.737998e-05   
       P    CLOpt 1  0.00997301      1.352999e-05   
       P        B 1  0.005873332     1.046784e-05   
       P       SE 1  0.01213029      1.703498e-05   
       P     HS14 1  0.00111688      5.79453e-07    
       P    CLAro 1  0.00997301      1.352999e-05   
       P    BROpt 1  0.02245172      5.167967e-05   
       P    OEOpt 1  0.006747412     1.029353e-05   
       P     NOpt 1  0.01103526      2.54394e-05    
       P     CAro 1  0.005873332     9.944921e-06   
       P     CPos 1  0.005463        4.711e-06      
       P     NPri 1  0.0126256       3.2977e-05     
       P     NTer 1  0.01127806      2.11995e-05    
       P     OAlc 1  0.005114582     5.912776e-06   
      NE        I 1  0.01053836      1.584618e-05   
      NE    CLOpt 1  0.004054924     3.736472e-06   
      NE        B 1  0.002388037     2.890822e-06   
      NE       SE 1  0.004932051     4.704416e-06   
      NE     HS14 1  0.000454112     1.60023e-07    
      NE    CLAro 1  0.004054924     3.736472e-06   
      NE    BROpt 1  0.009128638     1.427197e-05   
      NE    OEOpt 1  0.002743429     2.842685e-06   
      NE     NOpt 1  0.004486824     7.0254e-06     
      NE     CAro 1  0.002388037     2.746411e-06   
      NE     CPos 1  0.0022212       1.301e-06      
      NE     NPri 1  0.00513344      9.107e-06      
      NE     NTer 1  0.004585544     5.8545e-06     
      NE     OAlc 1  0.002079537     1.632885e-06   
    MG2+        I 1  0.00172508      7.110684e-07   
    MG2+    CLOpt 1  0.000663772     1.676674e-07   
    MG2+        B 1  0.0003909104    1.297204e-07   
    MG2+       SE 1  0.0008073536    2.111021e-07   
    MG2+     HS14 1  7.4336e-05      7.18074e-09    
    MG2+    CLAro 1  0.000663772     1.676674e-07   
    MG2+    BROpt 1  0.001494315     6.404286e-07   
    MG2+    OEOpt 1  0.0004490864    1.275603e-07   
    MG2+     NOpt 1  0.000734472     3.15252e-07    
    MG2+     CAro 1  0.0003909104    1.232402e-07   
    MG2+     CPos 1  0.0003636       5.838e-08      
    MG2+     NPri 1  0.00084032      4.0866e-07     
    MG2+     NTer 1  0.000750632     2.6271e-07     
    MG2+     OAlc 1  0.0003404104    7.327274e-08   
      CL        I 1  0.01998787      4.763598e-05   
      CL    CLOpt 1  0.007690883     1.123239e-05   
      CL        B 1  0.004529336     8.690242e-06   
      CL       SE 1  0.00935451      1.414218e-05   
      CL     HS14 1  0.000861304     4.81053e-07    
      CL    CLAro 1  0.007690883     1.123239e-05   
      CL    BROpt 1  0.01731408      4.290367e-05   
      CL    OEOpt 1  0.0052034       8.545535e-06   
      CL     NOpt 1  0.008510058     2.11194e-05    
      CL     CAro 1  0.004529336     8.256121e-06   
      CL     CPos 1  0.0042129       3.911e-06      
      CL     NPri 1  0.00973648      2.7377e-05     
      CL     NTer 1  0.008697298     1.75995e-05    
      CL     OAlc 1  0.003944211     4.908696e-06   
      OM        I 1  0.01015406      1.04882e-05    
      OM    CLOpt 1  0.003907054     2.473079e-06   
      OM        B 1  0.002300953     1.913364e-06   
      OM       SE 1  0.004752195     3.113738e-06   
      OM     HS14 1  0.000437552     1.059153e-07   
      OM    CLAro 1  0.003907054     2.473079e-06   
      OM    BROpt 1  0.008795746     9.446267e-06   
      OM    OEOpt 1  0.002643385     1.881503e-06   
      OM     NOpt 1  0.004323204     4.64994e-06    
      OM     CAro 1  0.002300953     1.817782e-06   
      OM     CPos 1  0.0021402       8.611e-07      
      OM     NPri 1  0.00494624      6.0277e-06     
      OM     NTer 1  0.004418324     3.87495e-06    
      OM     OAlc 1  0.002003703     1.080767e-06   
      HC        I 1  0.0019642       1.49814e-06    
      HC    CLOpt 1  0.00075578      3.53256e-07    
      HC        B 1  0.000445096     2.73306e-07    
      HC       SE 1  0.000919264     4.44768e-07    
      HC     HS14 1  8.464e-05       1.5129e-08     
      HC    CLAro 1  0.00075578      3.53256e-07    
      HC    BROpt 1  0.001701448     1.34931e-06    
      HC    OEOpt 1  0.000511336     2.68755e-07    
      HC     NOpt 1  0.00083628      6.642e-07      
      HC     CAro 1  0.000445096     2.59653e-07    
      HC     CPos 1  0.000414        1.23e-07       
      HC     NPri 1  0.0009568       8.61e-07       
      HC     NTer 1  0.00085468      5.535e-07      
      HC     OAlc 1  0.000387596     1.543773e-07   
       I        I 1  0.04558225      0.0001483524   
       I    CLOpt 1  0.01753902      3.498096e-05   
       I        B 1  0.01032913      2.706396e-05   
       I       SE 1  0.02133292      4.404288e-05   
       I     HS14 1  0.0019642       1.49814e-06    
       I    CLAro 1  0.01753902      3.498096e-05   
       I    BROpt 1  0.03948469      0.0001336146   
       I    OEOpt 1  0.01186633      2.66133e-05    
       I     NOpt 1  0.01940715      6.5772e-05     
       I     CAro 1  0.01032913      2.571198e-05   
       I     CPos 1  0.0096075       1.218e-05      
       I     NPri 1  0.022204        8.526e-05      
       I     NTer 1  0.01983415      5.481e-05      
       I     OAlc 1  0.008994755     1.528712e-05   
   CLOpt        I 1  0.01753902      3.498096e-05   
   CLOpt    CLOpt 1  0.006748622     8.248384e-06   
   CLOpt        B 1  0.003974417     6.381584e-06   
   CLOpt       SE 1  0.008208428     1.038515e-05   
   CLOpt     HS14 1  0.00075578      3.53256e-07    
   CLOpt    CLAro 1  0.006748622     8.248384e-06   
   CLOpt    BROpt 1  0.01519282      3.150584e-05   
   CLOpt    OEOpt 1  0.004565897     6.27532e-06    
   CLOpt     NOpt 1  0.007467435     1.55088e-05    
   CLOpt     CAro 1  0.003974417     6.062792e-06   
   CLOpt     CPos 1  0.00369675      2.872e-06      
   CLOpt     NPri 1  0.0085436       2.0104e-05     
   CLOpt     NTer 1  0.007631735     1.2924e-05     
   CLOpt     OAlc 1  0.00346098      3.604647e-06   
       B        I 1  0.01032913      2.706396e-05   
       B    CLOpt 1  0.003974417     6.381584e-06   
       B        B 1  0.002340624     4.937284e-06   
       B       SE 1  0.00483413      8.034752e-06   
       B     HS14 1  0.000445096     2.73306e-07    
       B    CLAro 1  0.003974417     6.381584e-06   
       B    BROpt 1  0.008947397     2.437534e-05   
       B    OEOpt 1  0.00268896      4.85507e-06    
       B     NOpt 1  0.004397742     1.19988e-05    
       B     CAro 1  0.002340624     4.690642e-06   
       B     CPos 1  0.0021771       2.222e-06      
       B     NPri 1  0.00503152      1.5554e-05     
       B     NTer 1  0.004494502     9.999e-06      
       B     OAlc 1  0.002038249     2.788832e-06   
      SE        I 1  0.02133292      4.404288e-05   
      SE    CLOpt 1  0.008208428     1.038515e-05   
      SE        B 1  0.00483413      8.034752e-06   
      SE       SE 1  0.009984006     1.307546e-05   
      SE     HS14 1  0.000919264     4.44768e-07    
      SE    CLAro 1  0.008208428     1.038515e-05   
      SE    BROpt 1  0.0184792       3.966752e-05   
      SE    OEOpt 1  0.005553554     7.90096e-06    
      SE     NOpt 1  0.009082728     1.95264e-05    
      SE     CAro 1  0.00483413      7.633376e-06   
      SE     CPos 1  0.0044964       3.616e-06      
      SE     NPri 1  0.01039168      2.5312e-05     
      SE     NTer 1  0.009282568     1.6272e-05     
      SE     OAlc 1  0.00420963      4.538442e-06   
    HS14        I 1  0.0019642       1.49814e-06    
    HS14    CLOpt 1  0.00075578      3.53256e-07    
    HS14        B 1  0.000445096     2.73306e-07    
    HS14       SE 1  0.000919264     4.44768e-07    
    HS14     HS14 1  8.464e-05       1.5129e-08     
    HS14    CLAro 1  0.00075578      3.53256e-07    
    HS14    BROpt 1  0.001701448     1.34931e-06    
    HS14    OEOpt 1  0.000511336     2.68755e-07    
    HS14     NOpt 1  0.00083628      6.642e-07      
    HS14     CAro 1  0.000445096     2.59653e-07    
    HS14     CPos 1  0.000414        1.23e-07       
    HS14     NPri 1  0.0009568       8.61e-07       
    HS14     NTer 1  0.00085468      5.535e-07      
    HS14     OAlc 1  0.000387596     1.543773e-07   
   CLAro        I 1  0.01753902      3.498096e-05   
   CLAro    CLOpt 1  0.006748622     8.248384e-06   
   CLAro        B 1  0.003974417     6.381584e-06   
   CLAro       SE 1  0.008208428     1.038515e-05   
   CLAro     HS14 1  0.00075578      3.53256e-07    
   CLAro    CLAro 1  0.006748622     8.248384e-06   
   CLAro    BROpt 1  0.01519282      3.150584e-05   
   CLAro    OEOpt 1  0.004565897     6.27532e-06    
   CLAro     NOpt 1  0.007467435     1.55088e-05    
   CLAro     CAro 1  0.003974417     6.062792e-06   
   CLAro     CPos 1  0.00369675      2.872e-06      
   CLAro     NPri 1  0.0085436       2.0104e-05     
   CLAro     NTer 1  0.007631735     1.2924e-05     
   CLAro     OAlc 1  0.00346098      3.604647e-06   
   BROpt        I 1  0.03948469      0.0001336146   
   BROpt    CLOpt 1  0.01519282      3.150584e-05   
   BROpt        B 1  0.008947397     2.437534e-05   
   BROpt       SE 1  0.0184792       3.966752e-05   
   BROpt     HS14 1  0.001701448     1.34931e-06    
   BROpt    CLAro 1  0.01519282      3.150584e-05   
   BROpt    BROpt 1  0.0342028       0.0001203409   
   BROpt    OEOpt 1  0.01027897      2.396945e-05   
   BROpt     NOpt 1  0.01681105      5.9238e-05     
   BROpt     CAro 1  0.008947397     2.315767e-05   
   BROpt     CPos 1  0.0083223       1.097e-05      
   BROpt     NPri 1  0.01923376      7.679e-05      
   BROpt     NTer 1  0.01718093      4.9365e-05     
   BROpt     OAlc 1  0.007791522     1.376845e-05   
   OEOpt        I 1  0.01186633      2.66133e-05    
   OEOpt    CLOpt 1  0.004565897     6.27532e-06    
   OEOpt        B 1  0.00268896      4.85507e-06    
   OEOpt       SE 1  0.005553554     7.90096e-06    
   OEOpt     HS14 1  0.000511336     2.68755e-07    
   OEOpt    CLAro 1  0.004565897     6.27532e-06    
   OEOpt    BROpt 1  0.01027897      2.396945e-05   
   OEOpt    OEOpt 1  0.003089136     4.774225e-06   
   OEOpt     NOpt 1  0.005052222     1.1799e-05     
   OEOpt     CAro 1  0.00268896      4.612535e-06   
   OEOpt     CPos 1  0.0025011       2.185e-06      
   OEOpt     NPri 1  0.00578032      1.5295e-05     
   OEOpt     NTer 1  0.005163382     9.8325e-06     
   OEOpt     OAlc 1  0.002341585     2.742393e-06   
    NOpt        I 1  0.01940715      6.5772e-05     
    NOpt    CLOpt 1  0.007467435     1.55088e-05    
    NOpt        B 1  0.004397742     1.19988e-05    
    NOpt       SE 1  0.009082728     1.95264e-05    
    NOpt     HS14 1  0.00083628      6.642e-07      
    NOpt    CLAro 1  0.007467435     1.55088e-05    
    NOpt    BROpt 1  0.01681105      5.9238e-05     
    NOpt    OEOpt 1  0.005052222     1.1799e-05     
    NOpt     NOpt 1  0.00826281      2.916e-05      
    NOpt     CAro 1  0.004397742     1.13994e-05    
    NOpt     CPos 1  0.0040905       5.4e-06        
    NOpt     NPri 1  0.0094536       3.78e-05       
    NOpt     NTer 1  0.00844461      2.43e-05       
    NOpt     OAlc 1  0.003829617     6.77754e-06    
    CAro        I 1  0.01032913      2.571198e-05   
    CAro    CLOpt 1  0.003974417     6.062792e-06   
    CAro        B 1  0.002340624     4.690642e-06   
    CAro       SE 1  0.00483413      7.633376e-06   
    CAro     HS14 1  0.000445096     2.59653e-07    
    CAro    CLAro 1  0.003974417     6.062792e-06   
    CAro    BROpt 1  0.008947397     2.315767e-05   
    CAro    OEOpt 1  0.00268896      4.612535e-06   
    CAro     NOpt 1  0.004397742     1.13994e-05    
    CAro     CAro 1  0.002340624     4.456321e-06   
    CAro     CPos 1  0.0021771       2.111e-06      
    CAro     NPri 1  0.00503152      1.4777e-05     
    CAro     NTer 1  0.004494502     9.4995e-06     
    CAro     OAlc 1  0.002038249     2.649516e-06   
    CPos        I 1  0.0096075       1.218e-05      
    CPos    CLOpt 1  0.00369675      2.872e-06      
    CPos        B 1  0.0021771       2.222e-06      
    CPos       SE 1  0.0044964       3.616e-06      
    CPos     HS14 1  0.000414        1.23e-07       
    CPos    CLAro 1  0.00369675      2.872e-06      
    CPos    BROpt 1  0.0083223       1.097e-05      
    CPos    OEOpt 1  0.0025011       2.185e-06      
    CPos     NOpt 1  0.0040905       5.4e-06        
    CPos     CAro 1  0.0021771       2.111e-06      
    CPos     CPos 1  0.002025        1e-06          
    CPos     NPri 1  0.00468         7e-06          
    CPos     NTer 1  0.0041805       4.5e-06        
    CPos     OAlc 1  0.00189585      1.2551e-06     
    NPri        I 1  0.022204        8.526e-05      
    NPri    CLOpt 1  0.0085436       2.0104e-05     
    NPri        B 1  0.00503152      1.5554e-05     
    NPri       SE 1  0.01039168      2.5312e-05     
    NPri     HS14 1  0.0009568       8.61e-07       
    NPri    CLAro 1  0.0085436       2.0104e-05     
    NPri    BROpt 1  0.01923376      7.679e-05      
    NPri    OEOpt 1  0.00578032      1.5295e-05     
    NPri     NOpt 1  0.0094536       3.78e-05       
    NPri     CAro 1  0.00503152      1.4777e-05     
    NPri     CPos 1  0.00468         7e-06          
    NPri     NPri 1  0.010816        4.9e-05        
    NPri     NTer 1  0.0096616       3.15e-05       
    NPri     OAlc 1  0.00438152      8.7857e-06     
    NTer        I 1  0.01983415      5.481e-05      
    NTer    CLOpt 1  0.007631735     1.2924e-05     
    NTer        B 1  0.004494502     9.999e-06      
    NTer       SE 1  0.009282568     1.6272e-05     
    NTer     HS14 1  0.00085468      5.535e-07      
    NTer    CLAro 1  0.007631735     1.2924e-05     
    NTer    BROpt 1  0.01718093      4.9365e-05     
    NTer    OEOpt 1  0.005163382     9.8325e-06     
    NTer     NOpt 1  0.00844461      2.43e-05       
    NTer     CAro 1  0.004494502     9.4995e-06     
    NTer     CPos 1  0.0041805       4.5e-06        
    NTer     NPri 1  0.0096616       3.15e-05       
    NTer     NTer 1  0.00863041      2.025e-05      
    NTer     OAlc 1  0.003913877     5.64795e-06    
    OAlc        I 1  0.008994755     1.528712e-05   
    OAlc    CLOpt 1  0.00346098      3.604647e-06   
    OAlc        B 1  0.002038249     2.788832e-06   
    OAlc       SE 1  0.00420963      4.538442e-06   
    OAlc     HS14 1  0.000387596     1.543773e-07   
    OAlc    CLAro 1  0.00346098      3.604647e-06   
    OAlc    BROpt 1  0.007791522     1.376845e-05   
    OAlc    OEOpt 1  0.002341585     2.742393e-06   
    OAlc     NOpt 1  0.003829617     6.77754e-06    
    OAlc     CAro 1  0.002038249     2.649516e-06   
    OAlc     CPos 1  0.00189585      1.2551e-06     
    OAlc     NPri 1  0.00438152      8.7857e-06     
    OAlc     NTer 1  0.003913877     5.64795e-06    
    OAlc     OAlc 1  0.001774937     1.575276e-06   

