256-Lipid DPPC Bilayer in water | solvent-stripped DPPC template
45389
    1DPPC    C1    1   5.809   5.563   5.662
    1DPPC    C2    2   5.821   5.721   5.497
    1DPPC    C3    3   5.683   5.541   5.445
    1DPPC    N4    4   5.727   5.626   5.557
    1DPPC    C5    5   5.620   5.699   5.626
    1DPPC    C6    6   5.531   5.797   5.551
    1DPPC    O7    7   5.586   5.924   5.516
    1DPPC    P8    8   5.463   6.027   5.509
    1DPPC    O9    9   5.548   6.147   5.499
    1DPPC   O10   10   5.390   5.988   5.632
    1DPPC   O11   11   5.380   6.000   5.373
    1DPPC   C12   12   5.406   6.111   5.287
    1DPPC   C13   13   5.362   6.089   5.142
    1DPPC   O14   14   5.227   6.129   5.114
    1DPPC   C15   15   5.209   6.261   5.090
    1DPPC   O16   16   5.296   6.336   5.135
    1DPPC   C17   17   5.073   6.309   5.040
    1DPPC   C18   18   5.077   6.427   4.943
    1DPPC   C19   19   4.962   6.436   4.843
    1DPPC   C20   20   4.964   6.559   4.751
    1DPPC   C21   21   5.079   6.543   4.651
    1DPPC   C22   22   5.074   6.645   4.537
    1DPPC   C23   23   5.184   6.592   4.444
    1DPPC   C24   24   5.176   6.674   4.316
    1DPPC   C25   25   5.258   6.595   4.213
    1DPPC   C26   26   5.242   6.671   4.081
    1DPPC   C27   27   5.301   6.602   3.958
    1DPPC   C28   28   5.268   6.679   3.829
    1DPPC   C29   29   5.326   6.610   3.706
    1DPPC   C30   30   5.276   6.660   3.571
    1DPPC   C31   31   5.303   6.811   3.562
    1DPPC   C32   32   5.409   5.949   5.100
    1DPPC   O33   33   5.503   5.958   4.994
    1DPPC   C34   34   5.592   5.855   4.981
    1DPPC   O35   35   5.592   5.772   5.072
    1DPPC   C36   36   5.683   5.853   4.858
    1DPPC   C37   37   5.665   5.720   4.785
    1DPPC   C38   38   5.752   5.709   4.660
    1DPPC   C39   39   5.896   5.707   4.713
    1DPPC   C40   40   6.002   5.702   4.603
    1DPPC   C41   41   5.995   5.577   4.516
    1DPPC   C42   42   6.048   5.615   4.377
    1DPPC   C43   43   6.033   5.491   4.289
    1DPPC   C44   44   6.088   5.520   4.149
    1DPPC   C45   45   6.065   5.411   4.044
    1DPPC   C46   46   6.106   5.475   3.911
    1DPPC   C47   47   6.018   5.591   3.863
    1DPPC   C48   48   6.082   5.658   3.741
    1DPPC   C49   49   5.991   5.758   3.669
    1DPPC   C50   50   5.966   5.868   3.773
    2DPPC    C1   51   3.473   0.842   1.809
    2DPPC    C2   52   3.629   0.950   1.680
    2DPPC    C3   53   3.424   1.056   1.736
    2DPPC    N4   54   3.534   0.975   1.790
    2DPPC    C5   55   3.583   1.026   1.918
    2DPPC    C6   56   3.647   1.165   1.918
    2DPPC    O7   57   3.668   1.213   2.051
    2DPPC    P8   58   3.762   1.343   2.058
    2DPPC    O9   59   3.698   1.433   1.960
    2DPPC   O10   60   3.905   1.308   2.073
    2DPPC   O11   61   3.711   1.383   2.206
    2DPPC   C12   62   3.781   1.311   2.309
    2DPPC   C13   63   3.763   1.349   2.456
    2DPPC   O14   64   3.868   1.285   2.531
    2DPPC   C15   65   3.992   1.333   2.505
    2DPPC   O16   66   4.007   1.451   2.474
    2DPPC   C17   67   4.106   1.251   2.565
    2DPPC   C18   68   4.073   1.185   2.699
    2DPPC   C19   69   4.174   1.075   2.731
    2DPPC   C20   70   4.152   1.014   2.870
    2DPPC   C21   71   4.274   0.924   2.888
    2DPPC   C22   72   4.250   0.847   3.018
    2DPPC   C23   73   4.205   0.935   3.135
    2DPPC   C24   74   4.181   0.834   3.248
    2DPPC   C25   75   4.153   0.914   3.375
    2DPPC   C26   76   4.050   0.840   3.460
    2DPPC   C27   77   3.995   0.943   3.560
    2DPPC   C28   78   3.914   0.862   3.661
    2DPPC   C29   79   3.907   0.954   3.783
    2DPPC   C30   80   3.827   0.885   3.893
    2DPPC   C31   81   3.683   0.871   3.843
    2DPPC   C32   82   3.619   1.312   2.490
    2DPPC   O33   83   3.594   1.352   2.625
    2DPPC   C34   84   3.467   1.331   2.669
    2DPPC   O35   85   3.373   1.312   2.592
    2DPPC   C36   86   3.438   1.370   2.814
    2DPPC   C37   87   3.306   1.319   2.873
    2DPPC   C38   88   3.296   1.362   3.019
    2DPPC   C39   89   3.424   1.321   3.092
    2DPPC   C40   90   3.417   1.406   3.219
    2DPPC   C41   91   3.415   1.555   3.184
    2DPPC   C42   92   3.451   1.654   3.295
    2DPPC   C43   93   3.408   1.796   3.258
    2DPPC   C44   94   3.256   1.800   3.239
    2DPPC   C45   95   3.207   1.944   3.223
    2DPPC   C46   96   3.071   1.945   3.153
    2DPPC   C47   97   3.036   2.087   3.109
    2DPPC   C48   98   2.910   2.059   3.028
    2DPPC   C49   99   2.785   2.002   3.095
    2DPPC   C50  100   2.683   1.962   2.988
    3DPPC    C1  101   6.441   4.485   5.258
    3DPPC    C2  102   6.465   4.495   5.498
    3DPPC    C3  103   6.535   4.312   5.380
    3DPPC    N4  104   6.530   4.459   5.372
    3DPPC    C5  105   6.651   4.538   5.345
    3DPPC    C6  106   6.652   4.683   5.393
    3DPPC    O7  107   6.564   4.773   5.326
    3DPPC    P8  108   6.577   4.922   5.387
    3DPPC    O9  109   6.626   4.904   5.525
    3DPPC   O10  110   6.460   5.004   5.346
    3DPPC   O11  111   6.711   4.965   5.308
    3DPPC   C12  112   6.667   4.989   5.174
    3DPPC   C13  113   6.779   5.038   5.081
    3DPPC   O14  114   6.725   5.081   4.955
    3DPPC   C15  115   6.790   5.163   4.868
    3DPPC   O16  116   6.874   5.238   4.918
    3DPPC   C17  117   6.726   5.185   4.731
    3DPPC   C18  118   6.812   5.170   4.606
    3DPPC   C19  119   6.747   5.149   4.469
    3DPPC   C20  120   6.827   5.222   4.361
    3DPPC   C21  121   6.798   5.148   4.230
    3DPPC   C22  122   6.865   5.213   4.109
    3DPPC   C23  123   6.830   5.130   3.986
    3DPPC   C24  124   6.877   4.985   4.003
    3DPPC   C25  125   6.824   4.900   3.888
    3DPPC   C26  126   6.890   4.763   3.872
    3DPPC   C27  127   6.833   4.673   3.762
    3DPPC   C28  128   6.878   4.527   3.772
    3DPPC   C29  129   6.838   4.470   3.908
    3DPPC   C30  130   6.887   4.327   3.929
    3DPPC   C31  131   6.810   4.244   3.826
    3DPPC   C32  132   6.874   4.918   5.084
    3DPPC   O33  133   6.817   4.815   5.002
    3DPPC   C34  134   6.889   4.702   4.983
    3DPPC   O35  135   7.003   4.699   5.030
    3DPPC   C36  136   6.852   4.595   4.880
    3DPPC   C37  137   6.751   4.502   4.946
    3DPPC   C38  138   6.712   4.383   4.857
    3DPPC   C39  139   6.666   4.443   4.724
    3DPPC   C40  140   6.651   4.332   4.619
    3DPPC   C41  141   6.647   4.384   4.475
    3DPPC   C42  142   6.776   4.461   4.447
    3DPPC   C43  143   6.798   4.509   4.303
    3DPPC   C44  144   6.853   4.650   4.281
    3DPPC   C45  145   7.004   4.656   4.306
    3DPPC   C46  146   7.058   4.798   4.319
    3DPPC   C47  147   7.199   4.805   4.377
    3DPPC   C48  148   7.202   4.760   4.523
    3DPPC   C49  149   7.163   4.875   4.617
    3DPPC   C50  150   7.166   4.833   4.764
    4DPPC    C1  151   8.532   4.077   1.795
    4DPPC    C2  152   8.440   4.205   1.651
    4DPPC    C3  153   8.347   3.979   1.655
    4DPPC    N4  154   8.399   4.091   1.735
    4DPPC    C5  155   8.303   4.135   1.838
    4DPPC    C6  156   8.165   4.170   1.782
    4DPPC    O7  157   8.144   4.275   1.687
    4DPPC    P8  158   7.992   4.270   1.633
    4DPPC    O9  159   7.942   4.131   1.644
    4DPPC   O10  160   7.985   4.351   1.510
    4DPPC   O11  161   7.906   4.346   1.745
    4DPPC   C12  162   7.969   4.474   1.762
    4DPPC   C13  163   7.883   4.588   1.707
    4DPPC   O14  164   7.940   4.717   1.737
    4DPPC   C15  165   7.871   4.827   1.698
    4DPPC   O16  166   7.786   4.814   1.609
    4DPPC   C17  167   7.927   4.960   1.746
    4DPPC   C18  168   7.844   5.015   1.862
    4DPPC   C19  169   7.819   4.917   1.977
    4DPPC   C20  170   7.946   4.893   2.059
    4DPPC   C21  171   7.901   4.818   2.185
    4DPPC   C22  172   7.822   4.928   2.257
    4DPPC   C23  173   7.765   4.869   2.386
    4DPPC   C24  174   7.699   4.980   2.468
    4DPPC   C25  175   7.621   4.923   2.586
    4DPPC   C26  176   7.498   4.851   2.529
    4DPPC   C27  177   7.412   4.785   2.637
    4DPPC   C28  178   7.342   4.887   2.727
    4DPPC   C29  179   7.275   4.799   2.833
    4DPPC   C30  180   7.176   4.896   2.897
    4DPPC   C31  181   7.057   4.810   2.939
    4DPPC   C32  182   7.744   4.556   1.764
    4DPPC   O33  183   7.730   4.578   1.904
    4DPPC   C34  184   7.619   4.521   1.957
    4DPPC   O35  185   7.567   4.421   1.907
    4DPPC   C36  186   7.578   4.568   2.096
    4DPPC   C37  187   7.525   4.447   2.174
    4DPPC   C38  188   7.541   4.450   2.326
    4DPPC   C39  189   7.496   4.310   2.368
    4DPPC   C40  190   7.506   4.286   2.519
    4DPPC   C41  191   7.426   4.372   2.618
    4DPPC   C42  192   7.446   4.325   2.762
    4DPPC   C43  193   7.348   4.407   2.846
    4DPPC   C44  194   7.354   4.361   2.991
    4DPPC   C45  195   7.322   4.212   3.006
    4DPPC   C46  196   7.305   4.174   3.153
    4DPPC   C47  197   7.415   4.216   3.251
    4DPPC   C48  198   7.415   4.155   3.391
    4DPPC   C49  199   7.274   4.162   3.450
    4DPPC   C50  200   7.279   4.185   3.601
    5DPPC    C1  201   8.665   4.759   5.655
    5DPPC    C2  202   8.842   4.914   5.669
    5DPPC    C3  203   8.823   4.745   5.827
    5DPPC    N4  204   8.809   4.772   5.683
    5DPPC    C5  205   8.894   4.687   5.598
    5DPPC    C6  206   8.841   4.547   5.568
    5DPPC    O7  207   8.825   4.459   5.679
    5DPPC    P8  208   8.751   4.324   5.633
    5DPPC    O9  209   8.713   4.220   5.731
    5DPPC   O10  210   8.778   4.290   5.491
    5DPPC   O11  211   8.615   4.410   5.629
    5DPPC   C12  212   8.530   4.320   5.556
    5DPPC   C13  213   8.399   4.377   5.504
    5DPPC   O14  214   8.319   4.270   5.451
    5DPPC   C15  215   8.190   4.287   5.411
    5DPPC   O16  216   8.139   4.398   5.396
    5DPPC   C17  217   8.118   4.162   5.360
    5DPPC   C18  218   8.152   4.141   5.212
    5DPPC   C19  219   8.079   4.017   5.159
    5DPPC   C20  220   8.116   3.992   5.013
    5DPPC   C21  221   8.263   3.949   5.017
    5DPPC   C22  222   8.313   3.936   4.873
    5DPPC   C23  223   8.304   4.074   4.808
    5DPPC   C24  224   8.299   4.062   4.655
    5DPPC   C25  225   8.443   4.032   4.611
    5DPPC   C26  226   8.429   4.039   4.459
    5DPPC   C27  227   8.556   3.994   4.387
    5DPPC   C28  228   8.524   3.992   4.237
    5DPPC   C29  229   8.638   3.923   4.162
    5DPPC   C30  230   8.599   3.900   4.016
    5DPPC   C31  231   8.684   3.794   3.944
    5DPPC   C32  232   8.449   4.491   5.414
    5DPPC   O33  233   8.513   4.443   5.296
    5DPPC   C34  234   8.596   4.529   5.232
    5DPPC   O35  235   8.644   4.619   5.301
    5DPPC   C36  236   8.657   4.488   5.098
    5DPPC   C37  237   8.806   4.507   5.072
    5DPPC   C38  238   8.845   4.474   4.927
    5DPPC   C39  239   8.997   4.469   4.910
    5DPPC   C40  240   9.049   4.405   4.782
    5DPPC   C41  241   9.020   4.255   4.775
    5DPPC   C42  242   9.123   4.190   4.684
    5DPPC   C43  243   9.127   4.253   4.544
    5DPPC   C44  244   9.021   4.193   4.451
    5DPPC   C45  245   9.021   4.287   4.330
    5DPPC   C46  246   8.898   4.252   4.247
    5DPPC   C47  247   8.914   4.315   4.108
    5DPPC   C48  248   8.909   4.200   4.006
    5DPPC   C49  249   8.892   4.261   3.867
    5DPPC   C50  250   8.888   4.162   3.750
    6DPPC    C1  251   6.199   0.628   5.580
    6DPPC    C2  252   6.203   0.811   5.440
    6DPPC    C3  253   6.394   0.678   5.446
    6DPPC    N4  254   6.247   0.672   5.448
    6DPPC    C5  255   6.205   0.593   5.332
    6DPPC    C6  256   6.171   0.446   5.357
    6DPPC    O7  257   6.290   0.377   5.395
    6DPPC    P8  258   6.251   0.222   5.418
    6DPPC    O9  259   6.177   0.166   5.303
    6DPPC   O10  260   6.184   0.235   5.550
    6DPPC   O11  261   6.393   0.149   5.436
    6DPPC   C12  262   6.422   0.080   5.314
    6DPPC   C13  263   6.562   0.018   5.316
    6DPPC   O14  264   6.655   0.082   5.228
    6DPPC   C15  265   6.787   0.086   5.259
    6DPPC   O16  266   6.833   0.048   5.367
    6DPPC   C17  267   6.864   0.184   5.169
    6DPPC   C18  268   7.016   0.167   5.172
    6DPPC   C19  269   7.080   0.253   5.064
    6DPPC   C20  270   7.231   0.262   5.087
    6DPPC   C21  271   7.309   0.337   4.979
    6DPPC   C22  272   7.418   0.424   5.042
    6DPPC   C23  273   7.467   0.525   4.938
    6DPPC   C24  274   7.515   0.462   4.807
    6DPPC   C25  275   7.550   0.582   4.719
    6DPPC   C26  276   7.596   0.545   4.577
    6DPPC   C27  277   7.652   0.664   4.498
    6DPPC   C28  278   7.787   0.706   4.555
    6DPPC   C29  279   7.858   0.823   4.487
    6DPPC   C30  280   7.986   0.845   4.568
    6DPPC   C31  281   7.956   0.911   4.703
    6DPPC   C32  282   6.536  -0.133   5.305
    6DPPC   O33  283   6.461  -0.154   5.185
    6DPPC   C34  284   6.445  -0.284   5.147
    6DPPC   O35  285   6.486  -0.371   5.223
    6DPPC   C36  286   6.361  -0.318   5.024
    6DPPC   C37  287   6.401  -0.265   4.886
    6DPPC   C38  288   6.301  -0.327   4.788
    6DPPC   C39  289   6.327  -0.297   4.641
    6DPPC   C40  290   6.211  -0.330   4.547
    6DPPC   C41  291   6.255  -0.382   4.410
    6DPPC   C42  292   6.343  -0.507   4.404
    6DPPC   C43  293   6.472  -0.484   4.326
    6DPPC   C44  294   6.501  -0.596   4.226
    6DPPC   C45  295   6.602  -0.561   4.117
    6DPPC   C46  296   6.632  -0.696   4.052
    6DPPC   C47  297   6.764  -0.691   3.974
    6DPPC   C48  298   6.763  -0.596   3.854
    6DPPC   C49  299   6.909  -0.576   3.812
    6DPPC   C50  300   6.904  -0.472   3.700
    7DPPC    C1  301   2.931   1.575   5.608
    7DPPC    C2  302   2.739   1.533   5.738
    7DPPC    C3  303   2.753   1.517   5.486
    7DPPC    N4  304   2.813   1.489   5.618
    7DPPC    C5  305   2.858   1.350   5.627
    7DPPC    C6  306   2.754   1.244   5.666
    7DPPC    O7  307   2.674   1.224   5.549
    7DPPC    P8  308   2.551   1.130   5.592
    7DPPC    O9  309   2.461   1.235   5.646
    7DPPC   O10  310   2.616   1.029   5.678
    7DPPC   O11  311   2.529   1.082   5.440
    7DPPC   C12  312   2.479   1.183   5.353
    7DPPC   C13  313   2.489   1.131   5.209
    7DPPC   O14  314   2.380   1.052   5.162
    7DPPC   C15  315   2.258   1.106   5.134
    7DPPC   O16  316   2.216   1.209   5.185
    7DPPC   C17  317   2.158   1.010   5.068
    7DPPC   C18  318   2.206   1.005   4.923
    7DPPC   C19  319   2.147   0.890   4.841
    7DPPC   C20  320   1.998   0.923   4.834
    7DPPC   C21  321   1.924   0.835   4.733
    7DPPC   C22  322   1.992   0.836   4.596
    7DPPC   C23  323   2.002   0.969   4.521
    7DPPC   C24  324   2.072   0.961   4.385
    7DPPC   C25  325   2.089   1.100   4.322
    7DPPC   C26  326   1.951   1.151   4.279
    7DPPC   C27  327   1.961   1.271   4.184
    7DPPC   C28  328   2.040   1.241   4.057
    7DPPC   C29  329   1.966   1.135   3.974
    7DPPC   C30  330   2.047   1.129   3.845
    7DPPC   C31  331   2.016   1.248   3.755
    7DPPC   C32  332   2.626   1.062   5.202
    7DPPC   O33  333   2.722   1.167   5.217
    7DPPC   C34  334   2.850   1.122   5.212
    7DPPC   O35  335   2.888   1.005   5.223
    7DPPC   C36  336   2.959   1.230   5.210
    7DPPC   C37  337   2.943   1.322   5.089
    7DPPC   C38  338   3.044   1.436   5.092
    7DPPC   C39  339   3.027   1.521   4.965
    7DPPC   C40  340   2.885   1.576   4.971
    7DPPC   C41  341   2.851   1.631   4.832
    7DPPC   C42  342   2.864   1.523   4.725
    7DPPC   C43  343   2.833   1.548   4.577
    7DPPC   C44  344   2.841   1.424   4.487
    7DPPC   C45  345   2.802   1.467   4.345
    7DPPC   C46  346   2.825   1.355   4.244
    7DPPC   C47  347   2.782   1.402   4.105
    7DPPC   C48  348   2.806   1.305   3.988
    7DPPC   C49  349   2.770   1.359   3.850
    7DPPC   C50  350   2.774   1.250   3.742
    8DPPC    C1  351   8.482   5.852   4.720
    8DPPC    C2  352   8.671   5.789   4.856
    8DPPC    C3  353   8.523   5.969   4.913
    8DPPC    N4  354   8.531   5.833   4.857
    8DPPC    C5  355   8.440   5.747   4.934
    8DPPC    C6  356   8.449   5.701   5.079
    8DPPC    O7  357   8.568   5.628   5.113
    8DPPC    P8  358   8.553   5.573   5.263
    8DPPC    O9  359   8.494   5.681   5.347
    8DPPC   O10  360   8.674   5.498   5.305
    8DPPC   O11  361   8.431   5.471   5.244
    8DPPC   C12  362   8.468   5.384   5.137
    8DPPC   C13  363   8.376   5.269   5.096
    8DPPC   O14  364   8.437   5.170   5.012
    8DPPC   C15  365   8.481   5.053   5.064
    8DPPC   O16  366   8.503   5.034   5.184
    8DPPC   C17  367   8.512   4.952   4.954
    8DPPC   C18  368   8.392   4.901   4.873
    8DPPC   C19  369   8.315   5.008   4.795
    8DPPC   C20  370   8.240   4.940   4.680
    8DPPC   C21  371   8.094   4.917   4.718
    8DPPC   C22  372   8.022   4.890   4.586
    8DPPC   C23  373   8.061   4.997   4.484
    8DPPC   C24  374   7.989   4.981   4.351
    8DPPC   C25  375   8.025   5.104   4.267
    8DPPC   C26  376   7.973   5.099   4.124
    8DPPC   C27  377   8.022   5.221   4.046
    8DPPC   C28  378   8.173   5.214   4.025
    8DPPC   C29  379   8.211   5.100   3.930
    8DPPC   C30  380   8.350   5.104   3.866
    8DPPC   C31  381   8.403   4.966   3.830
    8DPPC   C32  382   8.250   5.328   5.032
    8DPPC   O33  383   8.255   5.442   4.945
    8DPPC   C34  384   8.133   5.482   4.902
    8DPPC   O35  385   8.025   5.452   4.952
    8DPPC   C36  386   8.141   5.571   4.778
    8DPPC   C37  387   8.211   5.512   4.655
    8DPPC   C38  388   8.243   5.606   4.539
    8DPPC   C39  389   8.141   5.569   4.431
    8DPPC   C40  390   8.192   5.633   4.302
    8DPPC   C41  391   8.095   5.601   4.187
    8DPPC   C42  392   8.162   5.660   4.062
    8DPPC   C43  393   8.078   5.642   3.936
    8DPPC   C44  394   8.146   5.707   3.815
    8DPPC   C45  395   8.065   5.658   3.696
    8DPPC   C46  396   8.015   5.514   3.709
    8DPPC   C47  397   7.971   5.451   3.576
    8DPPC   C48  398   7.898   5.321   3.609
    8DPPC   C49  399   7.871   5.240   3.482
    8DPPC   C50  400   7.843   5.093   3.512
    9DPPC    C1  401   3.150   2.978   6.147
    9DPPC    C2  402   3.014   2.817   6.275
    9DPPC    C3  403   2.943   3.040   6.238
    9DPPC    N4  404   3.015   2.927   6.178
    9DPPC    C5  405   2.950   2.874   6.057
    9DPPC    C6  406   2.891   2.978   5.963
    9DPPC    O7  407   2.981   3.035   5.868
    9DPPC    P8  408   2.895   3.082   5.740
    9DPPC    O9  409   2.966   3.202   5.694
    9DPPC   O10  410   2.756   3.089   5.791
    9DPPC   O11  411   2.897   2.952   5.645
    9DPPC   C12  412   3.020   2.977   5.576
    9DPPC   C13  413   3.082   2.842   5.536
    9DPPC   O14  414   3.208   2.860   5.472
    9DPPC   C15  415   3.293   2.754   5.467
    9DPPC   O16  416   3.304   2.683   5.567
    9DPPC   C17  417   3.406   2.768   5.365
    9DPPC   C18  418   3.370   2.728   5.222
    9DPPC   C19  419   3.493   2.719   5.132
    9DPPC   C20  420   3.456   2.716   4.984
    9DPPC   C21  421   3.578   2.690   4.895
    9DPPC   C22  422   3.552   2.661   4.747
    9DPPC   C23  423   3.685   2.652   4.672
    9DPPC   C24  424   3.677   2.575   4.540
    9DPPC   C25  425   3.815   2.562   4.476
    9DPPC   C26  426   3.795   2.444   4.381
    9DPPC   C27  427   3.912   2.435   4.283
    9DPPC   C28  428   3.898   2.319   4.184
    9DPPC   C29  429   4.027   2.322   4.101
    9DPPC   C30  430   4.154   2.284   4.177
    9DPPC   C31  431   4.258   2.265   4.066
    9DPPC   C32  432   2.973   2.781   5.448
    9DPPC   O33  433   2.947   2.857   5.329
    9DPPC   C34  434   2.851   2.813   5.244
    9DPPC   O35  435   2.765   2.726   5.263
    9DPPC   C36  436   2.862   2.891   5.113
    9DPPC   C37  437   2.845   2.795   4.995
    9DPPC   C38  438   2.852   2.875   4.865
    9DPPC   C39  439   2.747   2.986   4.873
    9DPPC   C40  440   2.750   3.069   4.745
    9DPPC   C41  441   2.630   3.163   4.746
    9DPPC   C42  442   2.617   3.252   4.622
    9DPPC   C43  443   2.506   3.356   4.638
    9DPPC   C44  444   2.487   3.449   4.518
    9DPPC   C45  445   2.388   3.402   4.411
    9DPPC   C46  446   2.245   3.381   4.462
    9DPPC   C47  447   2.164   3.321   4.347
    9DPPC   C48  448   2.221   3.185   4.307
    9DPPC   C49  449   2.109   3.080   4.306
    9DPPC   C50  450   2.158   2.942   4.264
   10DPPC    C1  451   8.361   6.256   5.522
   10DPPC    C2  452   8.470   6.449   5.465
   10DPPC    C3  453   8.468   6.278   5.308
   10DPPC    N4  454   8.383   6.346   5.407
   10DPPC    C5  455   8.263   6.414   5.356
   10DPPC    C6  456   8.154   6.330   5.288
   10DPPC    O7  457   8.043   6.409   5.244
   10DPPC    P8  458   7.949   6.298   5.175
   10DPPC    O9  459   7.857   6.388   5.101
   10DPPC   O10  460   7.909   6.185   5.262
   10DPPC   O11  461   8.057   6.240   5.071
   10DPPC   C12  462   8.052   6.324   4.955
   10DPPC   C13  463   8.180   6.307   4.873
   10DPPC   O14  464   8.209   6.426   4.798
   10DPPC   C15  465   8.331   6.445   4.741
   10DPPC   O16  466   8.427   6.386   4.789
   10DPPC   C17  467   8.336   6.534   4.617
   10DPPC   C18  468   8.346   6.444   4.494
   10DPPC   C19  469   8.472   6.359   4.480
   10DPPC   C20  470   8.442   6.266   4.362
   10DPPC   C21  471   8.390   6.132   4.415
   10DPPC   C22  472   8.388   6.043   4.290
   10DPPC   C23  473   8.529   6.039   4.230
   10DPPC   C24  474   8.522   5.985   4.087
   10DPPC   C25  475   8.657   5.999   4.019
   10DPPC   C26  476   8.659   5.918   3.889
   10DPPC   C27  477   8.796   5.919   3.820
   10DPPC   C28  478   8.901   5.862   3.915
   10DPPC   C29  479   9.042   5.887   3.862
   10DPPC   C30  480   9.094   6.030   3.880
   10DPPC   C31  481   9.240   6.040   3.835
   10DPPC   C32  482   8.181   6.170   4.805
   10DPPC   O33  483   8.062   6.149   4.727
   10DPPC   C34  484   8.062   6.038   4.649
   10DPPC   O35  485   8.164   5.972   4.631
   10DPPC   C36  486   7.957   6.045   4.538
   10DPPC   C37  487   7.949   5.935   4.432
   10DPPC   C38  488   7.833   5.968   4.338
   10DPPC   C39  489   7.835   5.868   4.222
   10DPPC   C40  490   7.755   5.939   4.111
   10DPPC   C41  491   7.760   5.853   3.985
   10DPPC   C42  492   7.662   5.933   3.900
   10DPPC   C43  493   7.651   5.871   3.760
   10DPPC   C44  494   7.707   5.960   3.650
   10DPPC   C45  495   7.687   5.888   3.517
   10DPPC   C46  496   7.734   5.742   3.522
   10DPPC   C47  497   7.715   5.680   3.384
   10DPPC   C48  498   7.811   5.729   3.276
   10DPPC   C49  499   7.770   5.674   3.139
   10DPPC   C50  500   7.881   5.685   3.034
   11DPPC    C1  501   6.406   7.656   5.609
   11DPPC    C2  502   6.488   7.733   5.815
   11DPPC    C3  503   6.526   7.500   5.753
   11DPPC    N4  504   6.516   7.639   5.706
   11DPPC    C5  505   6.632   7.665   5.620
   11DPPC    C6  506   6.716   7.792   5.638
   11DPPC    O7  507   6.645   7.895   5.569
   11DPPC    P8  508   6.702   8.035   5.625
   11DPPC    O9  509   6.752   8.011   5.762
   11DPPC   O10  510   6.597   8.139   5.611
   11DPPC   O11  511   6.816   8.046   5.513
   11DPPC   C12  512   6.757   8.098   5.393
   11DPPC   C13  513   6.860   8.102   5.280
   11DPPC   O14  514   6.837   8.201   5.180
   11DPPC   C15  515   6.949   8.240   5.113
   11DPPC   O16  516   7.057   8.241   5.173
   11DPPC   C17  517   6.919   8.339   5.001
   11DPPC   C18  518   6.792   8.304   4.923
   11DPPC   C19  519   6.775   8.393   4.799
   11DPPC   C20  520   6.780   8.536   4.852
   11DPPC   C21  521   6.814   8.627   4.734
   11DPPC   C22  522   6.778   8.775   4.754
   11DPPC   C23  523   6.796   8.849   4.622
   11DPPC   C24  524   6.756   8.997   4.632
   11DPPC   C25  525   6.742   9.068   4.497
   11DPPC   C26  526   6.646   9.187   4.495
   11DPPC   C27  527   6.509   9.120   4.481
   11DPPC   C28  528   6.473   9.036   4.358
   11DPPC   C29  529   6.329   8.984   4.363
   11DPPC   C30  530   6.305   8.896   4.240
   11DPPC   C31  531   6.159   8.851   4.234
   11DPPC   C32  532   6.886   7.953   5.257
   11DPPC   O33  533   6.763   7.897   5.211
   11DPPC   C34  534   6.775   7.769   5.168
   11DPPC   O35  535   6.867   7.697   5.206
   11DPPC   C36  536   6.664   7.724   5.072
   11DPPC   C37  537   6.669   7.815   4.948
   11DPPC   C38  538   6.551   7.797   4.854
   11DPPC   C39  539   6.574   7.897   4.740
   11DPPC   C40  540   6.719   7.930   4.701
   11DPPC   C41  541   6.711   8.033   4.589
   11DPPC   C42  542   6.852   8.079   4.550
   11DPPC   C43  543   6.894   7.982   4.439
   11DPPC   C44  544   7.038   8.028   4.412
   11DPPC   C45  545   7.036   8.173   4.364
   11DPPC   C46  546   6.961   8.177   4.231
   11DPPC   C47  547   6.973   8.323   4.185
   11DPPC   C48  548   7.118   8.350   4.144
   11DPPC   C49  549   7.121   8.501   4.123
   11DPPC   C50  550   7.262   8.561   4.116
   12DPPC    C1  551   9.289   1.831   5.114
   12DPPC    C2  552   9.504   1.906   5.117
   12DPPC    C3  553   9.398   1.861   5.323
   12DPPC    N4  554   9.416   1.811   5.186
   12DPPC    C5  555   9.465   1.673   5.166
   12DPPC    C6  556   9.401   1.549   5.227
   12DPPC    O7  557   9.424   1.442   5.134
   12DPPC    P8  558   9.371   1.309   5.208
   12DPPC    O9  559   9.377   1.316   5.356
   12DPPC   O10  560   9.424   1.193   5.134
   12DPPC   O11  561   9.214   1.337   5.181
   12DPPC   C12  562   9.177   1.268   5.061
   12DPPC   C13  563   9.028   1.284   5.030
   12DPPC   O14  564   8.978   1.204   4.922
   12DPPC   C15  565   8.949   1.073   4.945
   12DPPC   O16  566   8.944   1.030   5.060
   12DPPC   C17  567   8.885   1.004   4.824
   12DPPC   C18  568   8.842   1.081   4.700
   12DPPC   C19  569   8.735   1.188   4.723
   12DPPC   C20  570   8.714   1.255   4.587
   12DPPC   C21  571   8.613   1.370   4.590
   12DPPC   C22  572   8.591   1.448   4.460
   12DPPC   C23  573   8.528   1.359   4.352
   12DPPC   C24  574   8.473   1.445   4.238
   12DPPC   C25  575   8.363   1.540   4.288
   12DPPC   C26  576   8.333   1.632   4.169
   12DPPC   C27  577   8.245   1.585   4.054
   12DPPC   C28  578   8.101   1.543   4.083
   12DPPC   C29  579   8.022   1.479   3.969
   12DPPC   C30  580   7.881   1.444   4.017
   12DPPC   C31  581   7.892   1.342   4.131
   12DPPC   C32  582   8.999   1.431   5.002
   12DPPC   O33  583   9.075   1.466   4.886
   12DPPC   C34  584   9.057   1.592   4.837
   12DPPC   O35  585   9.005   1.683   4.901
   12DPPC   C36  586   9.148   1.631   4.720
   12DPPC   C37  587   9.095   1.580   4.585
   12DPPC   C38  588   8.977   1.660   4.529
   12DPPC   C39  589   8.972   1.629   4.380
   12DPPC   C40  590   8.856   1.678   4.292
   12DPPC   C41  591   8.867   1.660   4.140
   12DPPC   C42  592   8.771   1.748   4.060
   12DPPC   C43  593   8.763   1.693   3.918
   12DPPC   C44  594   8.652   1.768   3.843
   12DPPC   C45  595   8.688   1.911   3.804
   12DPPC   C46  596   8.575   1.992   3.741
   12DPPC   C47  597   8.448   2.005   3.826
   12DPPC   C48  598   8.368   2.130   3.790
   12DPPC   C49  599   8.234   2.114   3.862
   12DPPC   C50  600   8.161   1.987   3.816
   13DPPC    C1  601   1.596   1.646   5.161
   13DPPC    C2  602   1.728   1.506   5.316
   13DPPC    C3  603   1.565   1.625   5.407
   13DPPC    N4  604   1.595   1.559   5.279
   13DPPC    C5  605   1.516   1.436   5.266
   13DPPC    C6  606   1.366   1.452   5.290
   13DPPC    O7  607   1.271   1.362   5.233
   13DPPC    P8  608   1.123   1.419   5.262
   13DPPC    O9  609   1.114   1.442   5.408
   13DPPC   O10  610   1.033   1.321   5.197
   13DPPC   O11  611   1.126   1.566   5.197
   13DPPC   C12  612   1.032   1.573   5.090
   13DPPC   C13  613   1.031   1.712   5.027
   13DPPC   O14  614   0.944   1.732   4.915
   13DPPC   C15  615   0.810   1.731   4.937
   13DPPC   O16  616   0.766   1.717   5.051
   13DPPC   C17  617   0.719   1.731   4.813
   13DPPC   C18  618   0.701   1.591   4.756
   13DPPC   C19  619   0.608   1.609   4.636
   13DPPC   C20  620   0.558   1.476   4.580
   13DPPC   C21  621   0.448   1.497   4.476
   13DPPC   C22  622   0.305   1.510   4.529
   13DPPC   C23  623   0.201   1.515   4.417
   13DPPC   C24  624   0.062   1.484   4.474
   13DPPC   C25  625  -0.032   1.510   4.356
   13DPPC   C26  626  -0.014   1.650   4.297
   13DPPC   C27  627  -0.106   1.648   4.174
   13DPPC   C28  628  -0.093   1.772   4.087
   13DPPC   C29  629  -0.227   1.795   4.016
   13DPPC   C30  630  -0.199   1.894   3.903
   13DPPC   C31  631  -0.154   2.031   3.953
   13DPPC   C32  632   1.179   1.730   4.991
   13DPPC   O33  633   1.237   1.622   4.918
   13DPPC   C34  634   1.349   1.657   4.849
   13DPPC   O35  635   1.424   1.744   4.891
   13DPPC   C36  636   1.387   1.562   4.734
   13DPPC   C37  637   1.313   1.602   4.606
   13DPPC   C38  638   1.182   1.524   4.593
   13DPPC   C39  639   1.107   1.556   4.464
   13DPPC   C40  640   0.975   1.478   4.456
   13DPPC   C41  641   0.896   1.516   4.331
   13DPPC   C42  642   0.776   1.421   4.326
   13DPPC   C43  643   0.742   1.409   4.178
   13DPPC   C44  644   0.619   1.319   4.166
   13DPPC   C45  645   0.646   1.180   4.224
   13DPPC   C46  646   0.723   1.090   4.127
   13DPPC   C47  647   0.741   0.955   4.198
   13DPPC   C48  648   0.796   0.850   4.102
   13DPPC   C49  649   0.802   0.705   4.152
   13DPPC   C50  650   0.878   0.692   4.284
   14DPPC    C1  651   8.468   3.425   5.666
   14DPPC    C2  652   8.431   3.593   5.835
   14DPPC    C3  653   8.644   3.520   5.778
   14DPPC    N4  654   8.513   3.554   5.720
   14DPPC    C5  655   8.514   3.669   5.628
   14DPPC    C6  656   8.585   3.656   5.494
   14DPPC    O7  657   8.723   3.620   5.508
   14DPPC    P8  658   8.767   3.527   5.384
   14DPPC    O9  659   8.663   3.421   5.384
   14DPPC   O10  660   8.911   3.494   5.385
   14DPPC   O11  661   8.752   3.649   5.280
   14DPPC   C12  662   8.680   3.601   5.165
   14DPPC   C13  663   8.554   3.685   5.144
   14DPPC   O14  664   8.470   3.625   5.044
   14DPPC   C15  665   8.371   3.544   5.089
   14DPPC   O16  666   8.348   3.536   5.210
   14DPPC   C17  667   8.296   3.467   4.981
   14DPPC   C18  668   8.387   3.361   4.919
   14DPPC   C19  669   8.336   3.294   4.791
   14DPPC   C20  670   8.332   3.390   4.672
   14DPPC   C21  671   8.280   3.336   4.539
   14DPPC   C22  672   8.256   3.447   4.437
   14DPPC   C23  673   8.384   3.527   4.411
   14DPPC   C24  674   8.359   3.636   4.306
   14DPPC   C25  675   8.305   3.569   4.180
   14DPPC   C26  676   8.312   3.674   4.069
   14DPPC   C27  677   8.282   3.621   3.929
   14DPPC   C28  678   8.268   3.726   3.817
   14DPPC   C29  679   8.167   3.833   3.857
   14DPPC   C30  680   8.138   3.904   3.725
   14DPPC   C31  681   8.273   3.954   3.673
   14DPPC   C32  682   8.608   3.817   5.090
   14DPPC   O33  683   8.720   3.812   5.001
   14DPPC   C34  684   8.758   3.936   4.960
   14DPPC   O35  685   8.709   4.035   5.014
   14DPPC   C36  686   8.879   3.935   4.867
   14DPPC   C37  687   8.885   3.819   4.767
   14DPPC   C38  688   8.789   3.855   4.654
   14DPPC   C39  689   8.829   3.774   4.531
   14DPPC   C40  690   8.807   3.623   4.544
   14DPPC   C41  691   8.876   3.553   4.426
   14DPPC   C42  692   8.824   3.410   4.405
   14DPPC   C43  693   8.873   3.347   4.275
   14DPPC   C44  694   8.783   3.238   4.216
   14DPPC   C45  695   8.853   3.109   4.174
   14DPPC   C46  696   8.757   3.032   4.083
   14DPPC   C47  697   8.828   2.900   4.053
   14DPPC   C48  698   8.872   2.893   3.907
   14DPPC   C49  699   8.952   2.765   3.877
   14DPPC   C50  700   8.979   2.734   3.730
   15DPPC    C1  701   5.264   8.182   5.098
   15DPPC    C2  702   5.437   8.295   4.972
   15DPPC    C3  703   5.208   8.375   5.016
   15DPPC    N4  704   5.328   8.311   5.070
   15DPPC    C5  705   5.356   8.371   5.201
   15DPPC    C6  706   5.435   8.286   5.299
   15DPPC    O7  707   5.574   8.276   5.269
   15DPPC    P8  708   5.639   8.142   5.329
   15DPPC    O9  709   5.548   8.036   5.281
   15DPPC   O10  710   5.640   8.185   5.471
   15DPPC   O11  711   5.779   8.155   5.250
   15DPPC   C12  712   5.733   8.141   5.116
   15DPPC   C13  713   5.843   8.197   5.025
   15DPPC   O14  714   5.806   8.214   4.887
   15DPPC   C15  715   5.890   8.278   4.801
   15DPPC   O16  716   5.975   8.350   4.852
   15DPPC   C17  717   5.829   8.306   4.663
   15DPPC   C18  718   5.831   8.455   4.629
   15DPPC   C19  719   5.758   8.536   4.737
   15DPPC   C20  720   5.762   8.685   4.701
   15DPPC   C21  721   5.908   8.729   4.685
   15DPPC   C22  722   5.924   8.876   4.645
   15DPPC   C23  723   5.857   8.897   4.509
   15DPPC   C24  724   5.890   9.041   4.470
   15DPPC   C25  725   5.821   9.073   4.337
   15DPPC   C26  726   5.669   9.074   4.351
   15DPPC   C27  727   5.620   9.116   4.212
   15DPPC   C28  728   5.471   9.149   4.217
   15DPPC   C29  729   5.437   9.228   4.090
   15DPPC   C30  730   5.291   9.267   4.070
   15DPPC   C31  731   5.248   9.352   4.189
   15DPPC   C32  732   5.967   8.111   5.048
   15DPPC   O33  733   5.974   7.991   4.971
   15DPPC   C34  734   6.078   7.906   4.994
   15DPPC   O35  735   6.155   7.930   5.087
   15DPPC   C36  736   6.079   7.781   4.907
   15DPPC   C37  737   6.043   7.652   4.982
   15DPPC   C38  738   6.027   7.530   4.892
   15DPPC   C39  739   5.943   7.567   4.769
   15DPPC   C40  740   5.893   7.449   4.686
   15DPPC   C41  741   6.001   7.346   4.654
   15DPPC   C42  742   5.922   7.235   4.585
   15DPPC   C43  743   6.003   7.153   4.485
   15DPPC   C44  744   5.907   7.056   4.416
   15DPPC   C45  745   5.991   6.960   4.331
   15DPPC   C46  746   6.032   7.037   4.206
   15DPPC   C47  747   5.921   7.098   4.120
   15DPPC   C48  748   5.976   7.168   3.996
   15DPPC   C49  749   5.867   7.233   3.911
   15DPPC   C50  750   5.808   7.349   3.990
   16DPPC    C1  751   9.219   0.907   5.167
   16DPPC    C2  752   9.165   0.910   5.407
   16DPPC    C3  753   9.044   0.767   5.244
   16DPPC    N4  754   9.170   0.831   5.283
   16DPPC    C5  755   9.261   0.717   5.299
   16DPPC    C6  756   9.242   0.625   5.421
   16DPPC    O7  757   9.303   0.496   5.419
   16DPPC    P8  758   9.202   0.389   5.484
   16DPPC    O9  759   9.144   0.471   5.593
   16DPPC   O10  760   9.263   0.258   5.514
   16DPPC   O11  761   9.112   0.366   5.353
   16DPPC   C12  762   9.193   0.298   5.257
   16DPPC   C13  763   9.159   0.338   5.113
   16DPPC   O14  764   9.221   0.459   5.068
   16DPPC   C15  765   9.345   0.447   5.012
   16DPPC   O16  766   9.420   0.360   5.054
   16DPPC   C17  767   9.406   0.558   4.926
   16DPPC   C18  768   9.327   0.688   4.911
   16DPPC   C19  769   9.363   0.760   4.780
   16DPPC   C20  770   9.280   0.700   4.667
   16DPPC   C21  771   9.133   0.717   4.707
   16DPPC   C22  772   9.031   0.659   4.609
   16DPPC   C23  773   9.003   0.745   4.485
   16DPPC   C24  774   8.898   0.669   4.404
   16DPPC   C25  775   8.821   0.727   4.285
   16DPPC   C26  776   8.759   0.616   4.200
   16DPPC   C27  777   8.699   0.683   4.075
   16DPPC   C28  778   8.570   0.605   4.050
   16DPPC   C29  779   8.488   0.634   3.924
   16DPPC   C30  780   8.574   0.582   3.808
   16DPPC   C31  781   8.519   0.608   3.667
   16DPPC   C32  782   9.006   0.345   5.110
   16DPPC   O33  783   8.947   0.215   5.113
   16DPPC   C34  784   8.814   0.208   5.086
   16DPPC   O35  785   8.741   0.283   5.151
   16DPPC   C36  786   8.767   0.066   5.052
   16DPPC   C37  787   8.716   0.082   4.909
   16DPPC   C38  788   8.741  -0.050   4.836
   16DPPC   C39  789   8.721  -0.043   4.684
   16DPPC   C40  790   8.786  -0.161   4.611
   16DPPC   C41  791   8.767  -0.156   4.459
   16DPPC   C42  792   8.623  -0.189   4.418
   16DPPC   C43  793   8.626  -0.219   4.268
   16DPPC   C44  794   8.497  -0.300   4.253
   16DPPC   C45  795   8.457  -0.326   4.107
   16DPPC   C46  796   8.316  -0.381   4.129
   16DPPC   C47  797   8.238  -0.426   4.005
   16DPPC   C48  798   8.108  -0.474   4.071
   16DPPC   C49  799   8.013  -0.548   3.977
   16DPPC   C50  800   7.894  -0.610   4.050
   17DPPC    C1  801   1.569   0.612   5.452
   17DPPC    C2  802   1.628   0.615   5.229
   17DPPC    C3  803   1.492   0.448   5.302
   17DPPC    N4  804   1.513   0.592   5.317
   17DPPC    C5  805   1.394   0.671   5.283
   17DPPC    C6  806   1.422   0.821   5.272
   17DPPC    O7  807   1.304   0.901   5.269
   17DPPC    P8  808   1.323   1.061   5.265
   17DPPC    O9  809   1.468   1.076   5.287
   17DPPC   O10  810   1.219   1.112   5.357
   17DPPC   O11  811   1.286   1.074   5.109
   17DPPC   C12  812   1.407   1.131   5.058
   17DPPC   C13  813   1.382   1.170   4.912
   17DPPC   O14  814   1.489   1.240   4.847
   17DPPC   C15  815   1.576   1.159   4.781
   17DPPC   O16  816   1.540   1.045   4.753
   17DPPC   C17  817   1.705   1.221   4.725
   17DPPC   C18  818   1.727   1.355   4.796
   17DPPC   C19  819   1.813   1.448   4.710
   17DPPC   C20  820   1.931   1.370   4.652
   17DPPC   C21  821   2.011   1.471   4.570
   17DPPC   C22  822   2.144   1.406   4.532
   17DPPC   C23  823   2.231   1.514   4.468
   17DPPC   C24  824   2.365   1.457   4.421
   17DPPC   C25  825   2.336   1.359   4.307
   17DPPC   C26  826   2.450   1.279   4.244
   17DPPC   C27  827   2.393   1.203   4.124
   17DPPC   C28  828   2.493   1.094   4.085
   17DPPC   C29  829   2.438   1.008   3.971
   17DPPC   C30  830   2.435   1.079   3.835
   17DPPC   C31  831   2.403   0.978   3.725
   17DPPC   C32  832   1.254   1.254   4.910
   17DPPC   O33  833   1.169   1.251   4.794
   17DPPC   C34  834   1.100   1.142   4.752
   17DPPC   O35  835   1.125   1.031   4.799
   17DPPC   C36  836   1.040   1.148   4.612
   17DPPC   C37  837   1.130   1.080   4.509
   17DPPC   C38  838   1.042   1.012   4.405
   17DPPC   C39  839   1.119   0.967   4.280
   17DPPC   C40  840   1.152   1.094   4.202
   17DPPC   C41  841   1.210   1.057   4.065
   17DPPC   C42  842   1.287   1.175   4.005
   17DPPC   C43  843   1.352   1.164   3.867
   17DPPC   C44  844   1.421   1.293   3.822
   17DPPC   C45  845   1.472   1.279   3.678
   17DPPC   C46  846   1.519   1.415   3.624
   17DPPC   C47  847   1.645   1.460   3.697
   17DPPC   C48  848   1.697   1.599   3.659
   17DPPC   C49  849   1.817   1.656   3.735
   17DPPC   C50  850   1.830   1.806   3.706
   18DPPC    C1  851   1.891   7.217   5.579
   18DPPC    C2  852   1.961   7.016   5.654
   18DPPC    C3  853   1.748   7.029   5.538
   18DPPC    N4  854   1.888   7.075   5.541
   18DPPC    C5  855   1.954   7.070   5.410
   18DPPC    C6  856   1.983   6.927   5.364
   18DPPC    O7  857   2.053   6.924   5.240
   18DPPC    P8  858   2.052   6.775   5.178
   18DPPC    O9  859   1.914   6.732   5.209
   18DPPC   O10  860   2.166   6.694   5.226
   18DPPC   O11  861   2.063   6.799   5.019
   18DPPC   C12  862   2.106   6.681   4.952
   18DPPC   C13  863   2.129   6.692   4.801
   18DPPC   O14  864   2.132   6.568   4.729
   18DPPC   C15  865   2.015   6.506   4.699
   18DPPC   O16  866   1.912   6.508   4.766
   18DPPC   C17  867   2.024   6.384   4.608
   18DPPC   C18  868   1.902   6.381   4.515
   18DPPC   C19  869   1.945   6.320   4.381
   18DPPC   C20  870   1.822   6.302   4.292
   18DPPC   C21  871   1.851   6.216   4.168
   18DPPC   C22  872   1.720   6.205   4.091
   18DPPC   C23  873   1.741   6.112   3.971
   18DPPC   C24  874   1.612   6.112   3.889
   18DPPC   C25  875   1.480   6.082   3.962
   18DPPC   C26  876   1.462   5.939   4.013
   18DPPC   C27  877   1.339   5.948   4.104
   18DPPC   C28  878   1.213   5.985   4.026
   18DPPC   C29  879   1.165   5.881   3.925
   18DPPC   C30  880   1.035   5.921   3.856
   18DPPC   C31  881   1.004   5.801   3.765
   18DPPC   C32  882   2.246   6.789   4.785
   18DPPC   O33  883   2.278   6.819   4.648
   18DPPC   C34  884   2.408   6.853   4.627
   18DPPC   O35  885   2.485   6.857   4.722
   18DPPC   C36  886   2.432   6.883   4.478
   18DPPC   C37  887   2.485   6.759   4.405
   18DPPC   C38  888   2.507   6.800   4.259
   18DPPC   C39  889   2.587   6.702   4.172
   18DPPC   C40  890   2.731   6.679   4.216
   18DPPC   C41  891   2.797   6.585   4.115
   18DPPC   C42  892   2.882   6.475   4.178
   18DPPC   C43  893   2.949   6.395   4.066
   18DPPC   C44  894   2.996   6.258   4.114
   18DPPC   C45  895   3.110   6.279   4.213
   18DPPC   C46  896   3.156   6.165   4.304
   18DPPC   C47  897   3.263   6.213   4.402
   18DPPC   C48  898   3.202   6.301   4.512
   18DPPC   C49  899   3.318   6.340   4.604
   18DPPC   C50  900   3.278   6.420   4.728
   19DPPC    C1  901   2.618   5.762   5.714
   19DPPC    C2  902   2.405   5.814   5.656
   19DPPC    C3  903   2.576   5.822   5.485
   19DPPC    N4  904   2.524   5.749   5.602
   19DPPC    C5  905   2.485   5.612   5.565
   19DPPC    C6  906   2.590   5.508   5.527
   19DPPC    O7  907   2.663   5.530   5.406
   19DPPC    P8  908   2.793   5.435   5.404
   19DPPC    O9  909   2.832   5.431   5.547
   19DPPC   O10  910   2.874   5.496   5.296
   19DPPC   O11  911   2.726   5.308   5.332
   19DPPC   C12  912   2.764   5.291   5.195
   19DPPC   C13  913   2.682   5.175   5.138
   19DPPC   O14  914   2.757   5.094   5.047
   19DPPC   C15  915   2.722   4.962   5.048
   19DPPC   O16  916   2.646   4.908   5.128
   19DPPC   C17  917   2.796   4.877   4.944
   19DPPC   C18  918   2.929   4.815   4.988
   19DPPC   C19  919   2.990   4.747   4.866
   19DPPC   C20  920   2.909   4.621   4.837
   19DPPC   C21  921   2.973   4.544   4.721
   19DPPC   C22  922   2.891   4.419   4.687
   19DPPC   C23  923   2.958   4.362   4.562
   19DPPC   C24  924   3.101   4.310   4.576
   19DPPC   C25  925   3.160   4.270   4.441
   19DPPC   C26  926   3.129   4.379   4.338
   19DPPC   C27  927   3.192   4.335   4.205
   19DPPC   C28  928   3.140   4.424   4.093
   19DPPC   C29  929   3.208   4.390   3.960
   19DPPC   C30  930   3.130   4.439   3.839
   19DPPC   C31  931   3.125   4.591   3.852
   19DPPC   C32  932   2.542   5.227   5.103
   19DPPC   O33  933   2.548   5.326   5.001
   19DPPC   C34  934   2.438   5.356   4.926
   19DPPC   O35  935   2.332   5.298   4.949
   19DPPC   C36  936   2.448   5.460   4.814
   19DPPC   C37  937   2.340   5.427   4.711
   19DPPC   C38  938   2.374   5.473   4.569
   19DPPC   C39  939   2.267   5.469   4.460
   19DPPC   C40  940   2.305   5.553   4.338
   19DPPC   C41  941   2.207   5.576   4.223
   19DPPC   C42  942   2.262   5.678   4.123
   19DPPC   C43  943   2.408   5.638   4.099
   19DPPC   C44  944   2.471   5.728   3.993
   19DPPC   C45  945   2.615   5.677   3.979
   19DPPC   C46  946   2.675   5.737   3.852
   19DPPC   C47  947   2.826   5.711   3.841
   19DPPC   C48  948   2.895   5.765   3.966
   19DPPC   C49  949   3.048   5.770   3.950
   19DPPC   C50  950   3.123   5.814   4.076
   20DPPC    C1  951   6.768   5.505   5.137
   20DPPC    C2  952   6.585   5.463   4.996
   20DPPC    C3  953   6.570   5.374   5.205
   20DPPC    N4  954   6.622   5.492   5.135
   20DPPC    C5  955   6.543   5.607   5.184
   20DPPC    C6  956   6.614   5.727   5.245
   20DPPC    O7  957   6.690   5.811   5.157
   20DPPC    P8  958   6.774   5.920   5.238
   20DPPC    O9  959   6.852   5.823   5.318
   20DPPC   O10  960   6.681   6.019   5.297
   20DPPC   O11  961   6.872   5.999   5.137
   20DPPC   C12  962   6.969   5.902   5.098
   20DPPC   C13  963   7.097   5.950   5.028
   20DPPC   O14  964   7.085   6.036   4.914
   20DPPC   C15  965   7.086   6.172   4.902
   20DPPC   O16  966   7.126   6.236   4.998
   20DPPC   C17  967   7.062   6.237   4.765
   20DPPC   C18  968   7.137   6.366   4.729
   20DPPC   C19  969   7.082   6.407   4.592
   20DPPC   C20  970   6.931   6.430   4.605
   20DPPC   C21  971   6.880   6.474   4.468
   20DPPC   C22  972   6.955   6.597   4.416
   20DPPC   C23  973   6.945   6.615   4.264
   20DPPC   C24  974   7.031   6.725   4.202
   20DPPC   C25  975   7.038   6.699   4.051
   20DPPC   C26  976   7.119   6.794   3.962
   20DPPC   C27  977   7.266   6.782   4.004
   20DPPC   C28  978   7.355   6.874   3.922
   20DPPC   C29  979   7.504   6.839   3.923
   20DPPC   C30  980   7.593   6.924   3.832
   20DPPC   C31  981   7.733   6.862   3.832
   20DPPC   C32  982   7.183   5.826   5.006
   20DPPC   O33  983   7.108   5.715   4.958
   20DPPC   C34  984   7.166   5.592   4.958
   20DPPC   O35  985   7.266   5.561   5.023
   20DPPC   C36  986   7.110   5.504   4.846
   20DPPC   C37  987   7.225   5.434   4.774
   20DPPC   C38  988   7.170   5.374   4.644
   20DPPC   C39  989   7.271   5.297   4.558
   20DPPC   C40  990   7.227   5.278   4.413
   20DPPC   C41  991   7.331   5.216   4.319
   20DPPC   C42  992   7.251   5.206   4.189
   20DPPC   C43  993   7.342   5.150   4.079
   20DPPC   C44  994   7.260   5.093   3.963
   20DPPC   C45  995   7.349   5.020   3.863
   20DPPC   C46  996   7.262   4.972   3.747
   20DPPC   C47  997   7.192   5.084   3.670
   20DPPC   C48  998   7.096   5.023   3.568
   20DPPC   C49  999   7.003   5.119   3.494
   20DPPC   C50 1000   7.084   5.207   3.398
   21DPPC    C1 1001   3.223   2.262   6.280
   21DPPC    C2 1002   3.388   2.211   6.113
   21DPPC    C3 1003   3.433   2.156   6.333
   21DPPC    N4 1004   3.323   2.164   6.236
   21DPPC    C5 1005   3.273   2.026   6.226
   21DPPC    C6 1006   3.136   2.000   6.161
   21DPPC    O7 1007   3.132   2.013   6.019
   21DPPC    P8 1008   2.985   2.049   5.962
   21DPPC    O9 1009   2.916   2.140   6.055
   21DPPC   O10 1010   2.944   1.914   5.918
   21DPPC   O11 1011   3.032   2.122   5.826
   21DPPC   C12 1012   3.041   2.018   5.729
   21DPPC   C13 1013   3.039   2.076   5.587
   21DPPC   O14 1014   3.027   1.982   5.479
   21DPPC   C15 1015   2.901   1.946   5.446
   21DPPC   O16 1016   2.811   1.938   5.531
   21DPPC   C17 1017   2.896   1.880   5.308
   21DPPC   C18 1018   2.992   1.957   5.216
   21DPPC   C19 1019   2.961   1.924   5.070
   21DPPC   C20 1020   3.033   2.025   4.981
   21DPPC   C21 1021   2.971   2.005   4.843
   21DPPC   C22 1022   3.029   2.104   4.741
   21DPPC   C23 1023   2.975   2.078   4.600
   21DPPC   C24 1024   3.059   2.140   4.489
   21DPPC   C25 1025   2.972   2.145   4.363
   21DPPC   C26 1026   3.047   2.186   4.236
   21DPPC   C27 1027   2.966   2.174   4.107
   21DPPC   C28 1028   3.055   2.208   3.988
   21DPPC   C29 1029   2.987   2.193   3.852
   21DPPC   C30 1030   3.098   2.156   3.754
   21DPPC   C31 1031   3.064   2.164   3.605
   21DPPC   C32 1032   3.167   2.159   5.582
   21DPPC   O33 1033   3.196   2.242   5.469
   21DPPC   C34 1034   3.128   2.358   5.447
   21DPPC   O35 1035   3.032   2.393   5.516
   21DPPC   C36 1036   3.168   2.434   5.320
   21DPPC   C37 1037   3.086   2.399   5.196
   21DPPC   C38 1038   3.133   2.486   5.080
   21DPPC   C39 1039   3.050   2.449   4.956
   21DPPC   C40 1040   3.081   2.532   4.832
   21DPPC   C41 1041   2.995   2.491   4.712
   21DPPC   C42 1042   3.048   2.549   4.581
   21DPPC   C43 1043   3.200   2.546   4.562
   21DPPC   C44 1044   3.254   2.631   4.447
   21DPPC   C45 1045   3.207   2.578   4.311
   21DPPC   C46 1046   3.237   2.670   4.192
   21DPPC   C47 1047   3.194   2.610   4.059
   21DPPC   C48 1048   3.248   2.697   3.945
   21DPPC   C49 1049   3.177   2.646   3.820
   21DPPC   C50 1050   3.185   2.744   3.703
   22DPPC    C1 1051   1.644   2.057   5.663
   22DPPC    C2 1052   1.828   2.151   5.543
   22DPPC    C3 1053   1.863   2.046   5.762
   22DPPC    N4 1054   1.787   2.044   5.635
   22DPPC    C5 1055   1.803   1.918   5.562
   22DPPC    C6 1056   1.930   1.886   5.482
   22DPPC    O7 1057   1.918   1.767   5.404
   22DPPC    P8 1058   2.065   1.731   5.348
   22DPPC    O9 1059   2.054   1.607   5.268
   22DPPC   O10 1060   2.159   1.743   5.461
   22DPPC   O11 1061   2.069   1.862   5.254
   22DPPC   C12 1062   2.015   1.840   5.123
   22DPPC   C13 1063   1.997   1.975   5.055
   22DPPC   O14 1064   1.937   1.965   4.924
   22DPPC   C15 1065   1.803   1.948   4.917
   22DPPC   O16 1066   1.735   1.934   5.019
   22DPPC   C17 1067   1.743   1.952   4.776
   22DPPC   C18 1068   1.804   1.847   4.684
   22DPPC   C19 1069   1.739   1.851   4.546
   22DPPC   C20 1070   1.781   1.738   4.452
   22DPPC   C21 1071   1.678   1.720   4.340
   22DPPC   C22 1072   1.699   1.591   4.259
   22DPPC   C23 1073   1.570   1.560   4.183
   22DPPC   C24 1074   1.525   1.669   4.085
   22DPPC   C25 1075   1.408   1.597   4.017
   22DPPC   C26 1076   1.358   1.697   3.913
   22DPPC   C27 1077   1.224   1.651   3.855
   22DPPC   C28 1078   1.122   1.621   3.964
   22DPPC   C29 1079   0.995   1.562   3.902
   22DPPC   C30 1080   1.020   1.431   3.827
   22DPPC   C31 1081   0.899   1.368   3.758
   22DPPC   C32 1082   2.129   2.053   5.061
   22DPPC   O33 1083   2.245   1.979   5.025
   22DPPC   C34 1084   2.356   2.056   5.015
   22DPPC   O35 1085   2.339   2.178   5.020
   22DPPC   C36 1086   2.477   2.002   4.939
   22DPPC   C37 1087   2.447   1.887   4.843
   22DPPC   C38 1088   2.550   1.900   4.731
   22DPPC   C39 1089   2.526   1.804   4.614
   22DPPC   C40 1090   2.608   1.847   4.493
   22DPPC   C41 1091   2.580   1.767   4.365
   22DPPC   C42 1092   2.665   1.807   4.245
   22DPPC   C43 1093   2.628   1.735   4.115
   22DPPC   C44 1094   2.727   1.791   4.013
   22DPPC   C45 1095   2.703   1.739   3.871
   22DPPC   C46 1096   2.762   1.823   3.757
   22DPPC   C47 1097   2.724   1.763   3.621
   22DPPC   C48 1098   2.797   1.634   3.582
   22DPPC   C49 1099   2.772   1.579   3.441
   22DPPC   C50 1100   2.808   1.682   3.333
   23DPPC    C1 1101   1.402   7.359   5.145
   23DPPC    C2 1102   1.497   7.161   5.207
   23DPPC    C3 1103   1.348   7.145   5.034
   23DPPC    N4 1104   1.452   7.233   5.087
   23DPPC    C5 1105   1.564   7.245   4.993
   23DPPC    C6 1106   1.560   7.320   4.859
   23DPPC    O7 1107   1.483   7.273   4.748
   23DPPC    P8 1108   1.419   7.395   4.664
   23DPPC    O9 1109   1.464   7.523   4.725
   23DPPC   O10 1110   1.279   7.361   4.635
   23DPPC   O11 1111   1.509   7.369   4.534
   23DPPC   C12 1112   1.463   7.250   4.469
   23DPPC   C13 1113   1.491   7.240   4.319
   23DPPC   O14 1114   1.631   7.243   4.291
   23DPPC   C15 1115   1.676   7.133   4.224
   23DPPC   O16 1116   1.611   7.029   4.228
   23DPPC   C17 1117   1.821   7.157   4.179
   23DPPC   C18 1118   1.837   7.251   4.060
   23DPPC   C19 1119   1.975   7.313   4.043
   23DPPC   C20 1120   1.981   7.429   3.944
   23DPPC   C21 1121   1.963   7.562   4.018
   23DPPC   C22 1122   1.950   7.660   3.902
   23DPPC   C23 1123   1.924   7.804   3.947
   23DPPC   C24 1124   1.901   7.902   3.832
   23DPPC   C25 1125   1.874   8.037   3.898
   23DPPC   C26 1126   1.881   8.152   3.796
   23DPPC   C27 1127   1.836   8.292   3.838
   23DPPC   C28 1128   1.685   8.288   3.859
   23DPPC   C29 1129   1.632   8.272   3.717
   23DPPC   C30 1130   1.481   8.248   3.728
   23DPPC   C31 1131   1.420   8.240   3.587
   23DPPC   C32 1132   1.419   7.365   4.267
   23DPPC   O33 1133   1.449   7.390   4.130
   23DPPC   C34 1134   1.389   7.493   4.065
   23DPPC   O35 1135   1.310   7.562   4.128
   23DPPC   C36 1136   1.441   7.519   3.923
   23DPPC   C37 1137   1.555   7.621   3.920
   23DPPC   C38 1138   1.609   7.642   3.778
   23DPPC   C39 1139   1.666   7.509   3.729
   23DPPC   C40 1140   1.696   7.526   3.580
   23DPPC   C41 1141   1.749   7.400   3.511
   23DPPC   C42 1142   1.633   7.303   3.486
   23DPPC   C43 1143   1.670   7.155   3.495
   23DPPC   C44 1144   1.558   7.071   3.434
   23DPPC   C45 1145   1.531   7.128   3.294
   23DPPC   C46 1146   1.429   7.035   3.229
   23DPPC   C47 1147   1.399   7.073   3.083
   23DPPC   C48 1148   1.310   6.983   2.998
   23DPPC   C49 1149   1.177   6.943   3.062
   23DPPC   C50 1150   1.061   6.990   2.975
   24DPPC    C1 1151   3.207   5.411   5.267
   24DPPC    C2 1152   3.367   5.448   5.436
   24DPPC    C3 1153   3.210   5.614   5.389
   24DPPC    N4 1154   3.225   5.469   5.401
   24DPPC    C5 1155   3.142   5.408   5.506
   24DPPC    C6 1156   3.157   5.258   5.531
   24DPPC    O7 1157   3.059   5.181   5.460
   24DPPC    P8 1158   3.095   5.027   5.489
   24DPPC    O9 1159   2.989   4.949   5.421
   24DPPC   O10 1160   3.129   5.023   5.633
   24DPPC   O11 1161   3.234   5.012   5.410
   24DPPC   C12 1162   3.196   4.991   5.273
   24DPPC   C13 1163   3.315   4.985   5.177
   24DPPC   O14 1164   3.256   4.998   5.047
   24DPPC   C15 1165   3.228   5.119   4.992
   24DPPC   O16 1166   3.286   5.221   5.029
   24DPPC   C17 1167   3.160   5.112   4.855
   24DPPC   C18 1168   3.253   5.155   4.742
   24DPPC   C19 1169   3.350   5.047   4.694
   24DPPC   C20 1170   3.492   5.106   4.702
   24DPPC   C21 1171   3.579   5.009   4.621
   24DPPC   C22 1172   3.721   5.057   4.591
   24DPPC   C23 1173   3.784   4.971   4.482
   24DPPC   C24 1174   3.922   5.018   4.438
   24DPPC   C25 1175   3.979   4.957   4.309
   24DPPC   C26 1176   4.106   5.035   4.276
   24DPPC   C27 1177   4.169   4.989   4.144
   24DPPC   C28 1178   4.276   5.091   4.106
   24DPPC   C29 1179   4.372   5.032   4.002
   24DPPC   C30 1180   4.485   5.129   3.969
   24DPPC   C31 1181   4.586   5.174   4.075
   24DPPC   C32 1182   3.368   4.844   5.198
   24DPPC   O33 1183   3.280   4.732   5.190
   24DPPC   C34 1184   3.333   4.607   5.199
   24DPPC   O35 1185   3.448   4.593   5.240
   24DPPC   C36 1186   3.257   4.487   5.143
   24DPPC   C37 1187   3.313   4.439   5.009
   24DPPC   C38 1188   3.307   4.548   4.902
   24DPPC   C39 1189   3.356   4.498   4.766
   24DPPC   C40 1190   3.394   4.610   4.668
   24DPPC   C41 1191   3.416   4.553   4.528
   24DPPC   C42 1192   3.480   4.660   4.440
   24DPPC   C43 1193   3.533   4.605   4.307
   24DPPC   C44 1194   3.618   4.713   4.241
   24DPPC   C45 1195   3.692   4.681   4.110
   24DPPC   C46 1196   3.788   4.790   4.063
   24DPPC   C47 1197   3.883   4.735   3.956
   24DPPC   C48 1198   3.944   4.839   3.862
   24DPPC   C49 1199   4.017   4.778   3.742
   24DPPC   C50 1200   4.105   4.666   3.797
   25DPPC    C1 1201   3.936   5.440   5.389
   25DPPC    C2 1202   3.889   5.602   5.222
   25DPPC    C3 1203   3.746   5.410   5.277
   25DPPC    N4 1204   3.829   5.520   5.328
   25DPPC    C5 1205   3.774   5.597   5.441
   25DPPC    C6 1206   3.708   5.732   5.410
   25DPPC    O7 1207   3.595   5.711   5.324
   25DPPC    P8 1208   3.499   5.836   5.295
   25DPPC    O9 1209   3.600   5.923   5.230
   25DPPC   O10 1210   3.420   5.885   5.411
   25DPPC   O11 1211   3.410   5.753   5.190
   25DPPC   C12 1212   3.504   5.719   5.088
   25DPPC   C13 1213   3.465   5.659   4.953
   25DPPC   O14 1214   3.570   5.595   4.879
   25DPPC   C15 1215   3.627   5.476   4.912
   25DPPC   O16 1216   3.603   5.427   5.022
   25DPPC   C17 1217   3.717   5.412   4.806
   25DPPC   C18 1218   3.794   5.524   4.737
   25DPPC   C19 1219   3.829   5.465   4.600
   25DPPC   C20 1220   3.942   5.362   4.610
   25DPPC   C21 1221   4.087   5.411   4.619
   25DPPC   C22 1222   4.182   5.303   4.568
   25DPPC   C23 1223   4.316   5.325   4.639
   25DPPC   C24 1224   4.433   5.254   4.572
   25DPPC   C25 1225   4.556   5.230   4.660
   25DPPC   C26 1226   4.674   5.205   4.566
   25DPPC   C27 1227   4.771   5.323   4.560
   25DPPC   C28 1228   4.888   5.277   4.473
   25DPPC   C29 1229   4.971   5.403   4.446
   25DPPC   C30 1230   5.069   5.354   4.339
   25DPPC   C31 1231   4.998   5.285   4.223
   25DPPC   C32 1232   3.404   5.781   4.883
   25DPPC   O33 1233   3.496   5.889   4.866
   25DPPC   C34 1234   3.439   6.003   4.817
   25DPPC   O35 1235   3.325   6.039   4.847
   25DPPC   C36 1236   3.542   6.105   4.770
   25DPPC   C37 1237   3.557   6.090   4.619
   25DPPC   C38 1238   3.655   5.976   4.586
   25DPPC   C39 1239   3.715   5.979   4.445
   25DPPC   C40 1240   3.621   5.918   4.341
   25DPPC   C41 1241   3.678   5.914   4.199
   25DPPC   C42 1242   3.808   5.835   4.191
   25DPPC   C43 1243   3.802   5.687   4.229
   25DPPC   C44 1244   3.921   5.596   4.198
   25DPPC   C45 1245   3.940   5.569   4.049
   25DPPC   C46 1246   4.059   5.483   4.006
   25DPPC   C47 1247   4.044   5.423   3.866
   25DPPC   C48 1248   4.161   5.335   3.821
   25DPPC   C49 1249   4.130   5.251   3.697
   25DPPC   C50 1250   4.261   5.184   3.654
   26DPPC    C1 1251   3.625   2.707   5.926
   26DPPC    C2 1252   3.620   2.558   5.752
   26DPPC    C3 1253   3.619   2.775   5.691
   26DPPC    N4 1254   3.680   2.686   5.790
   26DPPC    C5 1255   3.825   2.677   5.773
   26DPPC    C6 1256   3.901   2.806   5.807
   26DPPC    O7 1257   3.914   2.901   5.700
   26DPPC    P8 1258   3.972   3.036   5.765
   26DPPC    O9 1259   3.942   3.032   5.910
   26DPPC   O10 1260   3.973   3.162   5.687
   26DPPC   O11 1261   4.123   2.979   5.766
   26DPPC   C12 1262   4.210   3.030   5.665
   26DPPC   C13 1263   4.347   2.963   5.667
   26DPPC   O14 1264   4.423   2.998   5.550
   26DPPC   C15 1265   4.490   3.114   5.528
   26DPPC   O16 1266   4.474   3.200   5.614
   26DPPC   C17 1267   4.536   3.144   5.385
   26DPPC   C18 1268   4.686   3.174   5.389
   26DPPC   C19 1269   4.739   3.197   5.247
   26DPPC   C20 1270   4.887   3.234   5.235
   26DPPC   C21 1271   4.914   3.223   5.084
   26DPPC   C22 1272   4.912   3.076   5.042
   26DPPC   C23 1273   4.925   3.075   4.890
   26DPPC   C24 1274   4.895   2.945   4.814
   26DPPC   C25 1275   4.927   2.945   4.664
   26DPPC   C26 1276   4.890   2.813   4.596
   26DPPC   C27 1277   4.904   2.823   4.444
   26DPPC   C28 1278   4.865   2.704   4.356
   26DPPC   C29 1279   4.852   2.750   4.211
   26DPPC   C30 1280   4.827   2.629   4.121
   26DPPC   C31 1281   4.848   2.655   3.972
   26DPPC   C32 1282   4.314   2.814   5.667
   26DPPC   O33 1283   4.227   2.770   5.563
   26DPPC   C34 1284   4.171   2.646   5.575
   26DPPC   O35 1285   4.174   2.603   5.690
   26DPPC   C36 1286   4.095   2.601   5.450
   26DPPC   C37 1287   4.176   2.514   5.353
   26DPPC   C38 1288   4.091   2.489   5.229
   26DPPC   C39 1289   4.045   2.621   5.168
   26DPPC   C40 1290   4.026   2.590   5.019
   26DPPC   C41 1291   3.998   2.718   4.940
   26DPPC   C42 1292   4.001   2.685   4.791
   26DPPC   C43 1293   4.003   2.817   4.715
   26DPPC   C44 1294   4.143   2.877   4.719
   26DPPC   C45 1295   4.141   3.000   4.629
   26DPPC   C46 1296   4.088   2.962   4.490
   26DPPC   C47 1297   4.044   3.076   4.398
   26DPPC   C48 1298   3.992   3.039   4.259
   26DPPC   C49 1299   3.962   3.156   4.164
   26DPPC   C50 1300   3.873   3.265   4.225
   27DPPC    C1 1301   3.723   0.244   5.475
   27DPPC    C2 1302   3.611   0.430   5.404
   27DPPC    C3 1303   3.793   0.360   5.269
   27DPPC    N4 1304   3.682   0.311   5.351
   27DPPC    C5 1305   3.585   0.221   5.288
   27DPPC    C6 1306   3.629   0.082   5.242
   27DPPC    O7 1307   3.741   0.075   5.153
   27DPPC    P8 1308   3.790  -0.078   5.163
   27DPPC    O9 1309   3.680  -0.158   5.222
   27DPPC   O10 1310   3.927  -0.074   5.219
   27DPPC   O11 1311   3.797  -0.121   5.008
   27DPPC   C12 1312   3.906  -0.048   4.951
   27DPPC   C13 1313   3.901  -0.030   4.799
   27DPPC   O14 1314   3.831   0.090   4.764
   27DPPC   C15 1315   3.907   0.182   4.699
   27DPPC   O16 1316   4.021   0.206   4.740
   27DPPC   C17 1317   3.822   0.298   4.646
   27DPPC   C18 1318   3.883   0.366   4.523
   27DPPC   C19 1319   3.798   0.487   4.482
   27DPPC   C20 1320   3.865   0.546   4.358
   27DPPC   C21 1321   3.844   0.453   4.238
   27DPPC   C22 1322   3.953   0.475   4.132
   27DPPC   C23 1323   3.953   0.417   3.991
   27DPPC   C24 1324   4.054   0.487   3.900
   27DPPC   C25 1325   4.055   0.408   3.769
   27DPPC   C26 1326   4.136   0.283   3.802
   27DPPC   C27 1327   4.122   0.179   3.691
   27DPPC   C28 1328   4.193   0.045   3.709
   27DPPC   C29 1329   4.173  -0.069   3.608
   27DPPC   C30 1330   4.022  -0.070   3.584
   27DPPC   C31 1331   3.965  -0.209   3.613
   27DPPC   C32 1332   3.831  -0.155   4.746
   27DPPC   O33 1333   3.902  -0.278   4.754
   27DPPC   C34 1334   3.832  -0.392   4.729
   27DPPC   O35 1335   3.710  -0.408   4.721
   27DPPC   C36 1336   3.924  -0.514   4.720
   27DPPC   C37 1337   3.972  -0.562   4.583
   27DPPC   C38 1338   4.055  -0.452   4.517
   27DPPC   C39 1339   4.094  -0.499   4.377
   27DPPC   C40 1340   4.203  -0.398   4.338
   27DPPC   C41 1341   4.260  -0.437   4.201
   27DPPC   C42 1342   4.345  -0.321   4.148
   27DPPC   C43 1343   4.417  -0.361   4.019
   27DPPC   C44 1344   4.514  -0.253   3.970
   27DPPC   C45 1345   4.573  -0.308   3.839
   27DPPC   C46 1346   4.471  -0.295   3.726
   27DPPC   C47 1347   4.538  -0.350   3.600
   27DPPC   C48 1348   4.453  -0.349   3.473
   27DPPC   C49 1349   4.561  -0.397   3.377
   27DPPC   C50 1350   4.580  -0.549   3.365
   28DPPC    C1 1351   8.696   2.528   5.555
   28DPPC    C2 1352   8.754   2.530   5.784
   28DPPC    C3 1353   8.702   2.734   5.673
   28DPPC    N4 1354   8.666   2.592   5.684
   28DPPC    C5 1355   8.536   2.538   5.727
   28DPPC    C6 1356   8.411   2.602   5.666
   28DPPC    O7 1357   8.364   2.695   5.764
   28DPPC    P8 1358   8.237   2.783   5.719
   28DPPC    O9 1359   8.248   2.899   5.810
   28DPPC   O10 1360   8.131   2.680   5.725
   28DPPC   O11 1361   8.309   2.811   5.578
   28DPPC   C12 1362   8.213   2.836   5.475
   28DPPC   C13 1363   8.287   2.900   5.357
   28DPPC   O14 1364   8.202   2.959   5.257
   28DPPC   C15 1365   8.240   3.075   5.197
   28DPPC   O16 1366   8.356   3.114   5.212
   28DPPC   C17 1367   8.151   3.123   5.082
   28DPPC   C18 1368   8.011   3.162   5.130
   28DPPC   C19 1369   7.903   3.165   5.022
   28DPPC   C20 1370   7.935   3.263   4.910
   28DPPC   C21 1371   7.847   3.238   4.787
   28DPPC   C22 1372   7.881   3.345   4.684
   28DPPC   C23 1373   7.796   3.306   4.563
   28DPPC   C24 1374   7.790   3.426   4.469
   28DPPC   C25 1375   7.737   3.389   4.330
   28DPPC   C26 1376   7.787   3.498   4.235
   28DPPC   C27 1377   7.720   3.488   4.098
   28DPPC   C28 1378   7.739   3.618   4.019
   28DPPC   C29 1379   7.627   3.631   3.916
   28DPPC   C30 1380   7.650   3.752   3.825
   28DPPC   C31 1381   7.542   3.747   3.716
   28DPPC   C32 1382   8.386   2.795   5.306
   28DPPC   O33 1383   8.322   2.674   5.267
   28DPPC   C34 1384   8.395   2.567   5.223
   28DPPC   O35 1385   8.510   2.552   5.264
   28DPPC   C36 1386   8.316   2.450   5.163
   28DPPC   C37 1387   8.290   2.471   5.014
   28DPPC   C38 1388   8.183   2.576   4.983
   28DPPC   C39 1389   8.166   2.586   4.832
   28DPPC   C40 1390   8.076   2.704   4.794
   28DPPC   C41 1391   8.046   2.710   4.644
   28DPPC   C42 1392   7.976   2.844   4.620
   28DPPC   C43 1393   7.928   2.863   4.476
   28DPPC   C44 1394   7.999   2.982   4.412
   28DPPC   C45 1395   7.969   3.004   4.263
   28DPPC   C46 1396   8.022   3.138   4.210
   28DPPC   C47 1397   7.986   3.127   4.061
   28DPPC   C48 1398   8.017   3.263   3.999
   28DPPC   C49 1399   7.961   3.257   3.857
   28DPPC   C50 1400   7.999   3.374   3.766
   29DPPC    C1 1401   0.497   4.854   5.258
   29DPPC    C2 1402   0.434   4.765   5.058
   29DPPC    C3 1403   0.269   4.858   5.157
   29DPPC    N4 1404   0.413   4.884   5.142
   29DPPC    C5 1405   0.452   5.003   5.065
   29DPPC    C6 1406   0.430   5.136   5.137
   29DPPC    O7 1407   0.497   5.241   5.067
   29DPPC    P8 1408   0.445   5.385   5.118
   29DPPC    O9 1409   0.554   5.430   5.208
   29DPPC   O10 1410   0.315   5.354   5.181
   29DPPC   O11 1411   0.462   5.456   4.975
   29DPPC   C12 1412   0.373   5.404   4.876
   29DPPC   C13 1413   0.396   5.468   4.740
   29DPPC   O14 1414   0.293   5.430   4.647
   29DPPC   C15 1415   0.185   5.510   4.626
   29DPPC   O16 1416   0.163   5.610   4.694
   29DPPC   C17 1417   0.099   5.483   4.502
   29DPPC   C18 1418   0.176   5.522   4.376
   29DPPC   C19 1419   0.105   5.461   4.255
   29DPPC   C20 1420   0.203   5.446   4.138
   29DPPC   C21 1421   0.135   5.423   4.003
   29DPPC   C22 1422   0.019   5.518   3.972
   29DPPC   C23 1423  -0.069   5.492   3.850
   29DPPC   C24 1424  -0.150   5.612   3.801
   29DPPC   C25 1425  -0.211   5.610   3.661
   29DPPC   C26 1426  -0.333   5.519   3.645
   29DPPC   C27 1427  -0.414   5.530   3.516
   29DPPC   C28 1428  -0.538   5.440   3.505
   29DPPC   C29 1429  -0.606   5.460   3.370
   29DPPC   C30 1430  -0.665   5.601   3.380
   29DPPC   C31 1431  -0.746   5.646   3.258
   29DPPC   C32 1432   0.540   5.433   4.702
   29DPPC   O33 1433   0.578   5.295   4.698
   29DPPC   C34 1434   0.705   5.274   4.656
   29DPPC   O35 1435   0.769   5.369   4.609
   29DPPC   C36 1436   0.758   5.132   4.676
   29DPPC   C37 1437   0.842   5.095   4.554
   29DPPC   C38 1438   0.927   4.969   4.565
   29DPPC   C39 1439   1.016   4.951   4.442
   29DPPC   C40 1440   0.943   4.941   4.308
   29DPPC   C41 1441   1.039   4.906   4.194
   29DPPC   C42 1442   0.970   4.930   4.059
   29DPPC   C43 1443   1.060   4.917   3.936
   29DPPC   C44 1444   0.987   4.954   3.807
   29DPPC   C45 1445   1.068   4.930   3.679
   29DPPC   C46 1446   0.997   5.003   3.565
   29DPPC   C47 1447   1.067   4.977   3.432
   29DPPC   C48 1448   1.020   5.067   3.318
   29DPPC   C49 1449   1.114   5.056   3.198
   29DPPC   C50 1450   1.068   5.137   3.077
   30DPPC    C1 1451   6.783   1.967   6.139
   30DPPC    C2 1452   6.967   1.945   5.979
   30DPPC    C3 1453   6.771   2.020   5.896
   30DPPC    N4 1454   6.849   2.022   6.020
   30DPPC    C5 1455   6.903   2.157   6.044
   30DPPC    C6 1456   6.806   2.258   6.105
   30DPPC    O7 1457   6.862   2.390   6.113
   30DPPC    P8 1458   6.764   2.489   6.032
   30DPPC    O9 1459   6.811   2.627   6.055
   30DPPC   O10 1460   6.621   2.460   6.055
   30DPPC   O11 1461   6.793   2.454   5.878
   30DPPC   C12 1462   6.748   2.569   5.806
   30DPPC   C13 1463   6.824   2.574   5.674
   30DPPC   O14 1464   6.779   2.670   5.577
   30DPPC   C15 1465   6.857   2.781   5.566
   30DPPC   O16 1466   6.935   2.818   5.654
   30DPPC   C17 1467   6.830   2.868   5.442
   30DPPC   C18 1468   6.772   3.008   5.465
   30DPPC   C19 1469   6.753   3.094   5.341
   30DPPC   C20 1470   6.887   3.151   5.293
   30DPPC   C21 1471   6.875   3.221   5.157
   30DPPC   C22 1472   7.005   3.295   5.124
   30DPPC   C23 1473   6.978   3.386   5.004
   30DPPC   C24 1474   6.854   3.475   5.019
   30DPPC   C25 1475   6.860   3.561   4.893
   30DPPC   C26 1476   6.928   3.693   4.930
   30DPPC   C27 1477   6.961   3.767   4.800
   30DPPC   C28 1478   6.839   3.799   4.714
   30DPPC   C29 1479   6.760   3.903   4.793
   30DPPC   C30 1480   6.609   3.880   4.779
   30DPPC   C31 1481   6.573   3.896   4.632
   30DPPC   C32 1482   6.818   2.436   5.607
   30DPPC   O33 1483   6.896   2.411   5.490
   30DPPC   C34 1484   6.920   2.283   5.450
   30DPPC   O35 1485   6.829   2.212   5.492
   30DPPC   C36 1486   7.043   2.251   5.365
   30DPPC   C37 1487   7.012   2.225   5.218
   30DPPC   C38 1488   6.988   2.349   5.130
   30DPPC   C39 1489   6.989   2.310   4.982
   30DPPC   C40 1490   6.967   2.437   4.900
   30DPPC   C41 1491   6.933   2.392   4.758
   30DPPC   C42 1492   6.824   2.488   4.709
   30DPPC   C43 1493   6.794   2.496   4.559
   30DPPC   C44 1494   6.676   2.590   4.536
   30DPPC   C45 1495   6.662   2.619   4.386
   30DPPC   C46 1496   6.535   2.697   4.355
   30DPPC   C47 1497   6.520   2.815   4.451
   30DPPC   C48 1498   6.406   2.909   4.412
   30DPPC   C49 1499   6.414   3.032   4.504
   30DPPC   C50 1500   6.305   3.125   4.452
   31DPPC    C1 1501   5.956   7.132   5.267
   31DPPC    C2 1502   6.090   7.128   5.069
   31DPPC    C3 1503   6.175   7.154   5.297
   31DPPC    N4 1504   6.082   7.082   5.209
   31DPPC    C5 1505   6.094   6.939   5.241
   31DPPC    C6 1506   6.030   6.834   5.151
   31DPPC    O7 1507   5.888   6.846   5.157
   31DPPC    P8 1508   5.806   6.768   5.271
   31DPPC    O9 1509   5.795   6.867   5.381
   31DPPC   O10 1510   5.889   6.649   5.301
   31DPPC   O11 1511   5.665   6.739   5.200
   31DPPC   C12 1512   5.694   6.672   5.077
   31DPPC   C13 1513   5.601   6.555   5.044
   31DPPC   O14 1514   5.640   6.472   4.933
   31DPPC   C15 1515   5.631   6.339   4.957
   31DPPC   O16 1516   5.660   6.305   5.072
   31DPPC   C17 1517   5.647   6.250   4.833
   31DPPC   C18 1518   5.511   6.222   4.770
   31DPPC   C19 1519   5.541   6.181   4.625
   31DPPC   C20 1520   5.421   6.174   4.531
   31DPPC   C21 1521   5.464   6.121   4.394
   31DPPC   C22 1522   5.334   6.089   4.320
   31DPPC   C23 1523   5.243   6.212   4.318
   31DPPC   C24 1524   5.132   6.187   4.217
   31DPPC   C25 1525   5.052   6.317   4.203
   31DPPC   C26 1526   4.979   6.308   4.069
   31DPPC   C27 1527   4.934   6.452   4.042
   31DPPC   C28 1528   4.829   6.487   4.148
   31DPPC   C29 1529   4.757   6.616   4.106
   31DPPC   C30 1530   4.641   6.639   4.202
   31DPPC   C31 1531   4.702   6.678   4.337
   31DPPC   C32 1532   5.461   6.616   5.043
   31DPPC   O33 1533   5.443   6.718   4.945
   31DPPC   C34 1534   5.333   6.798   4.949
   31DPPC   O35 1535   5.238   6.767   5.021
   31DPPC   C36 1536   5.341   6.917   4.854
   31DPPC   C37 1537   5.304   6.881   4.710
   31DPPC   C38 1538   5.320   7.007   4.625
   31DPPC   C39 1539   5.283   6.959   4.484
   31DPPC   C40 1540   5.304   7.062   4.373
   31DPPC   C41 1541   5.429   7.144   4.403
   31DPPC   C42 1542   5.451   7.248   4.293
   31DPPC   C43 1543   5.591   7.311   4.289
   31DPPC   C44 1544   5.621   7.410   4.401
   31DPPC   C45 1545   5.523   7.526   4.378
   31DPPC   C46 1546   5.544   7.626   4.492
   31DPPC   C47 1547   5.492   7.572   4.625
   31DPPC   C48 1548   5.347   7.525   4.614
   31DPPC   C49 1549   5.278   7.541   4.749
   31DPPC   C50 1550   5.146   7.463   4.754
   32DPPC    C1 1551   1.092   7.650   4.812
   32DPPC    C2 1552   0.975   7.855   4.794
   32DPPC    C3 1553   0.960   7.676   4.627
   32DPPC    N4 1554   0.965   7.710   4.770
   32DPPC    C5 1555   0.861   7.640   4.847
   32DPPC    C6 1556   0.729   7.711   4.875
   32DPPC    O7 1557   0.655   7.736   4.755
   32DPPC    P8 1558   0.543   7.850   4.776
   32DPPC    O9 1559   0.613   7.980   4.784
   32DPPC   O10 1560   0.441   7.810   4.875
   32DPPC   O11 1561   0.482   7.828   4.628
   32DPPC   C12 1562   0.578   7.867   4.531
   32DPPC   C13 1563   0.544   7.809   4.393
   32DPPC   O14 1564   0.641   7.827   4.288
   32DPPC   C15 1565   0.618   7.744   4.184
   32DPPC   O16 1566   0.563   7.637   4.209
   32DPPC   C17 1567   0.684   7.773   4.049
   32DPPC   C18 1568   0.797   7.675   4.020
   32DPPC   C19 1569   0.878   7.705   3.894
   32DPPC   C20 1570   1.028   7.712   3.922
   32DPPC   C21 1571   1.116   7.726   3.798
   32DPPC   C22 1572   1.094   7.608   3.703
   32DPPC   C23 1573   1.188   7.607   3.583
   32DPPC   C24 1574   1.160   7.500   3.477
   32DPPC   C25 1575   1.165   7.367   3.553
   32DPPC   C26 1576   1.140   7.258   3.449
   32DPPC   C27 1577   0.999   7.277   3.392
   32DPPC   C28 1578   0.961   7.162   3.298
   32DPPC   C29 1579   0.951   7.031   3.377
   32DPPC   C30 1580   0.819   7.026   3.454
   32DPPC   C31 1581   0.810   6.880   3.501
   32DPPC   C32 1582   0.403   7.857   4.358
   32DPPC   O33 1583   0.395   7.995   4.322
   32DPPC   C34 1584   0.268   8.037   4.297
   32DPPC   O35 1585   0.174   7.958   4.286
   32DPPC   C36 1586   0.248   8.188   4.280
   32DPPC   C37 1587   0.144   8.232   4.177
   32DPPC   C38 1588   0.157   8.381   4.147
   32DPPC   C39 1589   0.034   8.414   4.062
   32DPPC   C40 1590   0.041   8.558   4.009
   32DPPC   C41 1591  -0.015   8.572   3.867
   32DPPC   C42 1592  -0.020   8.716   3.818
   32DPPC   C43 1593  -0.039   8.727   3.666
   32DPPC   C44 1594  -0.174   8.678   3.615
   32DPPC   C45 1595  -0.164   8.695   3.464
   32DPPC   C46 1596  -0.294   8.668   3.387
   32DPPC   C47 1597  -0.272   8.683   3.236
   32DPPC   C48 1598  -0.397   8.643   3.156
   32DPPC   C49 1599  -0.379   8.624   3.006
   32DPPC   C50 1600  -0.269   8.518   2.994
   33DPPC    C1 1601   2.305   2.398   5.327
   33DPPC    C2 1602   2.186   2.586   5.284
   33DPPC    C3 1603   2.302   2.493   5.101
   33DPPC    N4 1604   2.224   2.459   5.221
   33DPPC    C5 1605   2.114   2.377   5.167
   33DPPC    C6 1606   2.001   2.329   5.258
   33DPPC    O7 1607   1.886   2.269   5.198
   33DPPC    P8 1608   1.762   2.368   5.170
   33DPPC    O9 1609   1.786   2.473   5.271
   33DPPC   O10 1610   1.644   2.279   5.167
   33DPPC   O11 1611   1.804   2.423   5.025
   33DPPC   C12 1612   1.760   2.335   4.921
   33DPPC   C13 1613   1.772   2.400   4.783
   33DPPC   O14 1614   1.697   2.329   4.682
   33DPPC   C15 1615   1.574   2.384   4.662
   33DPPC   O16 1616   1.551   2.490   4.719
   33DPPC   C17 1617   1.497   2.338   4.538
   33DPPC   C18 1618   1.419   2.449   4.466
   33DPPC   C19 1619   1.361   2.420   4.328
   33DPPC   C20 1620   1.280   2.539   4.277
   33DPPC   C21 1621   1.196   2.505   4.153
   33DPPC   C22 1622   1.095   2.392   4.173
   33DPPC   C23 1623   1.022   2.382   4.039
   33DPPC   C24 1624   1.117   2.337   3.928
   33DPPC   C25 1625   1.032   2.337   3.801
   33DPPC   C26 1626   1.105   2.251   3.698
   33DPPC   C27 1627   1.249   2.300   3.718
   33DPPC   C28 1628   1.341   2.228   3.619
   33DPPC   C29 1629   1.492   2.237   3.639
   33DPPC   C30 1630   1.564   2.153   3.532
   33DPPC   C31 1631   1.649   2.230   3.430
   33DPPC   C32 1632   1.923   2.409   4.761
   33DPPC   O33 1633   2.002   2.290   4.773
   33DPPC   C34 1634   2.137   2.304   4.764
   33DPPC   O35 1635   2.185   2.416   4.782
   33DPPC   C36 1636   2.234   2.197   4.714
   33DPPC   C37 1637   2.162   2.072   4.662
   33DPPC   C38 1638   2.143   2.080   4.510
   33DPPC   C39 1639   2.093   1.946   4.455
   33DPPC   C40 1640   2.088   1.949   4.303
   33DPPC   C41 1641   2.072   1.809   4.243
   33DPPC   C42 1642   2.065   1.826   4.091
   33DPPC   C43 1643   2.192   1.901   4.049
   33DPPC   C44 1644   2.208   1.900   3.896
   33DPPC   C45 1645   2.127   2.022   3.852
   33DPPC   C46 1646   2.161   2.059   3.707
   33DPPC   C47 1647   2.086   2.180   3.650
   33DPPC   C48 1648   2.137   2.218   3.511
   33DPPC   C49 1649   2.039   2.326   3.464
   33DPPC   C50 1650   2.055   2.350   3.313
   34DPPC    C1 1651   2.936   4.433   5.509
   34DPPC    C2 1652   2.858   4.566   5.347
   34DPPC    C3 1653   2.870   4.675   5.559
   34DPPC    N4 1654   2.935   4.575   5.472
   34DPPC    C5 1655   3.068   4.628   5.440
   34DPPC    C6 1656   3.170   4.613   5.553
   34DPPC    O7 1657   3.276   4.705   5.528
   34DPPC    P8 1658   3.379   4.696   5.651
   34DPPC    O9 1659   3.302   4.693   5.778
   34DPPC   O10 1660   3.511   4.762   5.642
   34DPPC   O11 1661   3.403   4.538   5.631
   34DPPC   C12 1662   3.505   4.512   5.533
   34DPPC   C13 1663   3.569   4.374   5.536
   34DPPC   O14 1664   3.664   4.336   5.435
   34DPPC   C15 1665   3.788   4.390   5.441
   34DPPC   O16 1666   3.816   4.485   5.514
   34DPPC   C17 1667   3.899   4.338   5.349
   34DPPC   C18 1668   3.936   4.413   5.220
   34DPPC   C19 1669   3.818   4.430   5.125
   34DPPC   C20 1670   3.844   4.518   5.003
   34DPPC   C21 1671   3.715   4.559   4.932
   34DPPC   C22 1672   3.743   4.625   4.798
   34DPPC   C23 1673   3.795   4.528   4.692
   34DPPC   C24 1674   3.838   4.611   4.571
   34DPPC   C25 1675   3.886   4.521   4.456
   34DPPC   C26 1676   4.022   4.564   4.402
   34DPPC   C27 1677   4.092   4.451   4.326
   34DPPC   C28 1678   4.225   4.506   4.274
   34DPPC   C29 1679   4.298   4.415   4.175
   34DPPC   C30 1680   4.446   4.447   4.148
   34DPPC   C31 1681   4.457   4.586   4.084
   34DPPC   C32 1682   3.451   4.279   5.562
   34DPPC   O33 1683   3.346   4.278   5.464
   34DPPC   C34 1684   3.255   4.178   5.468
   34DPPC   O35 1685   3.221   4.149   5.583
   34DPPC   C36 1686   3.176   4.160   5.338
   34DPPC   C37 1687   3.177   4.013   5.295
   34DPPC   C38 1688   3.117   4.017   5.154
   34DPPC   C39 1689   3.222   4.067   5.055
   34DPPC   C40 1690   3.166   4.057   4.913
   34DPPC   C41 1691   3.250   3.969   4.821
   34DPPC   C42 1692   3.161   3.930   4.703
   34DPPC   C43 1693   3.258   3.879   4.596
   34DPPC   C44 1694   3.200   3.863   4.455
   34DPPC   C45 1695   3.311   3.797   4.374
   34DPPC   C46 1696   3.266   3.790   4.227
   34DPPC   C47 1697   3.283   3.927   4.162
   34DPPC   C48 1698   3.250   3.920   4.013
   34DPPC   C49 1699   3.297   4.052   3.951
   34DPPC   C50 1700   3.287   4.045   3.798
   35DPPC    C1 1701   1.456   2.749   1.462
   35DPPC    C2 1702   1.357   2.952   1.548
   35DPPC    C3 1703   1.420   2.770   1.694
   35DPPC    N4 1704   1.455   2.845   1.573
   35DPPC    C5 1705   1.590   2.902   1.585
   35DPPC    C6 1706   1.648   2.979   1.466
   35DPPC    O7 1707   1.765   3.053   1.501
   35DPPC    P8 1708   1.765   3.187   1.413
   35DPPC    O9 1709   1.685   3.171   1.290
   35DPPC   O10 1710   1.880   3.280   1.423
   35DPPC   O11 1711   1.643   3.249   1.498
   35DPPC   C12 1712   1.698   3.312   1.615
   35DPPC   C13 1713   1.573   3.374   1.677
   35DPPC   O14 1714   1.604   3.490   1.756
   35DPPC   C15 1715   1.671   3.595   1.702
   35DPPC   O16 1716   1.653   3.614   1.582
   35DPPC   C17 1717   1.724   3.699   1.802
   35DPPC   C18 1718   1.612   3.739   1.898
   35DPPC   C19 1719   1.675   3.767   2.035
   35DPPC   C20 1720   1.576   3.816   2.141
   35DPPC   C21 1721   1.655   3.829   2.271
   35DPPC   C22 1722   1.560   3.854   2.389
   35DPPC   C23 1723   1.643   3.882   2.515
   35DPPC   C24 1724   1.546   3.947   2.614
   35DPPC   C25 1725   1.623   4.045   2.703
   35DPPC   C26 1726   1.525   4.134   2.780
   35DPPC   C27 1727   1.465   4.047   2.891
   35DPPC   C28 1728   1.371   4.128   2.981
   35DPPC   C29 1729   1.333   4.040   3.100
   35DPPC   C30 1730   1.262   4.127   3.204
   35DPPC   C31 1731   1.350   4.248   3.235
   35DPPC   C32 1732   1.490   3.273   1.757
   35DPPC   O33 1733   1.570   3.173   1.821
   35DPPC   C34 1734   1.498   3.076   1.882
   35DPPC   O35 1735   1.386   3.046   1.839
   35DPPC   C36 1736   1.571   2.983   1.979
   35DPPC   C37 1737   1.675   3.054   2.066
   35DPPC   C38 1738   1.604   3.159   2.151
   35DPPC   C39 1739   1.707   3.212   2.251
   35DPPC   C40 1740   1.640   3.321   2.336
   35DPPC   C41 1741   1.677   3.327   2.484
   35DPPC   C42 1742   1.586   3.438   2.538
   35DPPC   C43 1743   1.580   3.435   2.690
   35DPPC   C44 1744   1.486   3.535   2.757
   35DPPC   C45 1745   1.487   3.527   2.910
   35DPPC   C46 1746   1.401   3.650   2.942
   35DPPC   C47 1747   1.256   3.607   2.919
   35DPPC   C48 1748   1.162   3.727   2.904
   35DPPC   C49 1749   1.020   3.670   2.899
   35DPPC   C50 1750   0.965   3.621   3.033
   36DPPC    C1 1751   6.132   6.432   1.817
   36DPPC    C2 1752   6.293   6.433   1.977
   36DPPC    C3 1753   6.309   6.595   1.793
   36DPPC    N4 1754   6.221   6.525   1.888
   36DPPC    C5 1755   6.144   6.617   1.974
   36DPPC    C6 1756   6.062   6.733   1.916
   36DPPC    O7 1757   6.135   6.840   1.856
   36DPPC    P8 1758   6.023   6.953   1.831
   36DPPC    O9 1759   5.897   6.881   1.801
   36DPPC   O10 1760   6.080   7.050   1.735
   36DPPC   O11 1761   6.013   7.011   1.981
   36DPPC   C12 1762   6.144   7.032   2.035
   36DPPC   C13 1763   6.159   7.105   2.169
   36DPPC   O14 1764   6.289   7.078   2.223
   36DPPC   C15 1765   6.382   7.175   2.201
   36DPPC   O16 1766   6.379   7.255   2.107
   36DPPC   C17 1767   6.516   7.171   2.274
   36DPPC   C18 1768   6.476   7.165   2.422
   36DPPC   C19 1769   6.601   7.157   2.509
   36DPPC   C20 1770   6.574   7.170   2.659
   36DPPC   C21 1771   6.690   7.167   2.759
   36DPPC   C22 1772   6.638   7.183   2.902
   36DPPC   C23 1773   6.757   7.171   2.996
   36DPPC   C24 1774   6.730   7.228   3.135
   36DPPC   C25 1775   6.854   7.292   3.198
   36DPPC   C26 1776   6.815   7.355   3.332
   36DPPC   C27 1777   6.741   7.252   3.419
   36DPPC   C28 1778   6.673   7.303   3.546
   36DPPC   C29 1779   6.765   7.367   3.650
   36DPPC   C30 1780   6.693   7.412   3.777
   36DPPC   C31 1781   6.805   7.464   3.867
   36DPPC   C32 1782   6.040   7.050   2.247
   36DPPC   O33 1783   5.996   7.131   2.356
   36DPPC   C34 1784   5.917   7.080   2.454
   36DPPC   O35 1785   5.851   6.980   2.426
   36DPPC   C36 1786   5.896   7.158   2.584
   36DPPC   C37 1787   6.017   7.138   2.676
   36DPPC   C38 1788   6.000   7.186   2.820
   36DPPC   C39 1789   5.886   7.108   2.884
   36DPPC   C40 1790   5.937   7.087   3.027
   36DPPC   C41 1791   5.821   7.036   3.112
   36DPPC   C42 1792   5.841   7.034   3.264
   36DPPC   C43 1793   5.753   6.928   3.332
   36DPPC   C44 1794   5.788   6.920   3.481
   36DPPC   C45 1795   5.677   6.858   3.566
   36DPPC   C46 1796   5.735   6.821   3.702
   36DPPC   C47 1797   5.635   6.874   3.806
   36DPPC   C48 1798   5.647   6.792   3.935
   36DPPC   C49 1799   5.564   6.863   4.042
   36DPPC   C50 1800   5.604   6.793   4.171
   37DPPC    C1 1801   8.450   3.090   1.693
   37DPPC    C2 1802   8.529   3.078   1.474
   37DPPC    C3 1803   8.338   3.208   1.503
   37DPPC    N4 1804   8.463   3.168   1.569
   37DPPC    C5 1805   8.557   3.279   1.587
   37DPPC    C6 1806   8.506   3.388   1.681
   37DPPC    O7 1807   8.600   3.496   1.687
   37DPPC    P8 1808   8.527   3.622   1.755
   37DPPC    O9 1809   8.422   3.561   1.839
   37DPPC   O10 1810   8.494   3.688   1.626
   37DPPC   O11 1811   8.655   3.689   1.826
   37DPPC   C12 1812   8.677   3.612   1.944
   37DPPC   C13 1813   8.741   3.687   2.061
   37DPPC   O14 1814   8.798   3.605   2.164
   37DPPC   C15 1815   8.906   3.525   2.141
   37DPPC   O16 1816   8.962   3.529   2.031
   37DPPC   C17 1817   8.957   3.436   2.254
   37DPPC   C18 1818   9.058   3.328   2.215
   37DPPC   C19 1819   9.091   3.251   2.344
   37DPPC   C20 1820   9.169   3.128   2.299
   37DPPC   C21 1821   9.193   3.022   2.407
   37DPPC   C22 1822   9.298   2.925   2.354
   37DPPC   C23 1823   9.326   2.832   2.472
   37DPPC   C24 1824   9.393   2.892   2.596
   37DPPC   C25 1825   9.537   2.935   2.571
   37DPPC   C26 1826   9.609   2.969   2.701
   37DPPC   C27 1827   9.654   2.852   2.788
   37DPPC   C28 1828   9.685   2.902   2.929
   37DPPC   C29 1829   9.702   2.785   3.026
   37DPPC   C30 1830   9.765   2.804   3.165
   37DPPC   C31 1831   9.673   2.889   3.252
   37DPPC   C32 1832   8.634   3.789   2.101
   37DPPC   O33 1833   8.512   3.723   2.135
   37DPPC   C34 1834   8.405   3.777   2.072
   37DPPC   O35 1835   8.412   3.848   1.971
   37DPPC   C36 1836   8.264   3.735   2.114
   37DPPC   C37 1837   8.255   3.732   2.266
   37DPPC   C38 1838   8.306   3.859   2.336
   37DPPC   C39 1839   8.248   3.888   2.474
   37DPPC   C40 1840   8.292   3.778   2.570
   37DPPC   C41 1841   8.204   3.781   2.695
   37DPPC   C42 1842   8.293   3.710   2.799
   37DPPC   C43 1843   8.246   3.727   2.944
   37DPPC   C44 1844   8.364   3.673   3.025
   37DPPC   C45 1845   8.344   3.711   3.172
   37DPPC   C46 1846   8.461   3.654   3.252
   37DPPC   C47 1847   8.462   3.692   3.400
   37DPPC   C48 1848   8.572   3.619   3.477
   37DPPC   C49 1849   8.680   3.723   3.506
   37DPPC   C50 1850   8.804   3.647   3.554
   38DPPC    C1 1851   3.409   4.326   1.515
   38DPPC    C2 1852   3.405   4.560   1.455
   38DPPC    C3 1853   3.225   4.427   1.389
   38DPPC    N4 1854   3.324   4.444   1.496
   38DPPC    C5 1855   3.246   4.487   1.613
   38DPPC    C6 1856   3.153   4.391   1.688
   38DPPC    O7 1857   3.225   4.287   1.755
   38DPPC    P8 1858   3.122   4.173   1.802
   38DPPC    O9 1859   3.191   4.072   1.885
   38DPPC   O10 1860   3.055   4.136   1.675
   38DPPC   O11 1861   3.024   4.267   1.889
   38DPPC   C12 1862   3.063   4.275   2.027
   38DPPC   C13 1863   3.161   4.389   2.051
   38DPPC   O14 1864   3.238   4.362   2.169
   38DPPC   C15 1865   3.329   4.445   2.225
   38DPPC   O16 1866   3.388   4.532   2.160
   38DPPC   C17 1867   3.373   4.395   2.363
   38DPPC   C18 1868   3.370   4.511   2.463
   38DPPC   C19 1869   3.432   4.467   2.595
   38DPPC   C20 1870   3.427   4.588   2.689
   38DPPC   C21 1871   3.490   4.545   2.821
   38DPPC   C22 1872   3.412   4.441   2.902
   38DPPC   C23 1873   3.471   4.387   3.032
   38DPPC   C24 1874   3.516   4.505   3.119
   38DPPC   C25 1875   3.399   4.597   3.154
   38DPPC   C26 1876   3.462   4.703   3.246
   38DPPC   C27 1877   3.357   4.810   3.275
   38DPPC   C28 1878   3.412   4.923   3.363
   38DPPC   C29 1879   3.314   5.040   3.366
   38DPPC   C30 1880   3.363   5.141   3.470
   38DPPC   C31 1881   3.248   5.237   3.501
   38DPPC   C32 1882   3.087   4.523   2.041
   38DPPC   O33 1883   2.976   4.532   2.130
   38DPPC   C34 1884   2.916   4.654   2.139
   38DPPC   O35 1885   2.963   4.763   2.106
   38DPPC   C36 1886   2.792   4.645   2.229
   38DPPC   C37 1887   2.807   4.618   2.379
   38DPPC   C38 1888   2.711   4.508   2.423
   38DPPC   C39 1889   2.763   4.445   2.552
   38DPPC   C40 1890   2.656   4.347   2.603
   38DPPC   C41 1891   2.705   4.254   2.714
   38DPPC   C42 1892   2.768   4.323   2.835
   38DPPC   C43 1893   2.784   4.231   2.956
   38DPPC   C44 1894   2.848   4.321   3.062
   38DPPC   C45 1895   3.001   4.329   3.053
   38DPPC   C46 1896   3.052   4.423   3.162
   38DPPC   C47 1897   3.018   4.370   3.302
   38DPPC   C48 1898   3.084   4.460   3.407
   38DPPC   C49 1899   3.018   4.598   3.397
   38DPPC   C50 1900   3.050   4.691   3.514
   39DPPC    C1 1901   4.209   8.061   2.028
   39DPPC    C2 1902   4.290   8.079   1.796
   39DPPC    C3 1903   4.246   7.867   1.912
   39DPPC    N4 1904   4.204   8.006   1.891
   39DPPC    C5 1905   4.071   8.008   1.831
   39DPPC    C6 1906   3.979   8.129   1.848
   39DPPC    O7 1907   3.850   8.109   1.789
   39DPPC    P8 1908   3.731   8.187   1.864
   39DPPC    O9 1909   3.618   8.202   1.770
   39DPPC   O10 1910   3.778   8.316   1.921
   39DPPC   O11 1911   3.691   8.074   1.972
   39DPPC   C12 1912   3.549   8.069   1.985
   39DPPC   C13 1913   3.494   8.013   2.117
   39DPPC   O14 1914   3.352   8.022   2.133
   39DPPC   C15 1915   3.289   7.903   2.146
   39DPPC   O16 1916   3.332   7.811   2.076
   39DPPC   C17 1917   3.146   7.915   2.198
   39DPPC   C18 1918   3.101   7.780   2.255
   39DPPC   C19 1919   2.950   7.780   2.282
   39DPPC   C20 1920   2.889   7.650   2.335
   39DPPC   C21 1921   2.756   7.677   2.406
   39DPPC   C22 1922   2.715   7.547   2.475
   39DPPC   C23 1923   2.572   7.567   2.527
   39DPPC   C24 1924   2.479   7.607   2.412
   39DPPC   C25 1925   2.343   7.647   2.469
   39DPPC   C26 1926   2.280   7.536   2.553
   39DPPC   C27 1927   2.134   7.519   2.510
   39DPPC   C28 1928   2.053   7.398   2.558
   39DPPC   C29 1929   1.907   7.413   2.513
   39DPPC   C30 1930   1.887   7.424   2.362
   39DPPC   C31 1931   1.740   7.412   2.321
   39DPPC   C32 1932   3.589   8.079   2.218
   39DPPC   O33 1933   3.580   8.221   2.230
   39DPPC   C34 1934   3.641   8.267   2.342
   39DPPC   O35 1935   3.729   8.204   2.400
   39DPPC   C36 1936   3.609   8.405   2.400
   39DPPC   C37 1937   3.482   8.411   2.485
   39DPPC   C38 1938   3.508   8.335   2.616
   39DPPC   C39 1939   3.381   8.328   2.701
   39DPPC   C40 1940   3.386   8.285   2.848
   39DPPC   C41 1941   3.259   8.315   2.928
   39DPPC   C42 1942   3.240   8.239   3.060
   39DPPC   C43 1943   3.104   8.279   3.118
   39DPPC   C44 1944   3.109   8.247   3.267
   39DPPC   C45 1945   2.986   8.311   3.332
   39DPPC   C46 1946   2.940   8.237   3.458
   39DPPC   C47 1947   2.815   8.304   3.516
   39DPPC   C48 1948   2.757   8.222   3.632
   39DPPC   C49 1949   2.832   8.247   3.763
   39DPPC   C50 1950   2.789   8.155   3.878
   40DPPC    C1 1951   3.140   7.222   2.213
   40DPPC    C2 1952   3.259   7.128   2.045
   40DPPC    C3 1953   3.231   7.008   2.256
   40DPPC    N4 1954   3.166   7.091   2.154
   40DPPC    C5 1955   3.043   7.030   2.103
   40DPPC    C6 1956   3.034   6.932   1.985
   40DPPC    O7 1957   3.118   6.818   2.005
   40DPPC    P8 1958   3.092   6.700   1.899
   40DPPC    O9 1959   3.206   6.607   1.913
   40DPPC   O10 1960   3.033   6.729   1.767
   40DPPC   O11 1961   2.974   6.649   1.997
   40DPPC   C12 1962   3.039   6.560   2.089
   40DPPC   C13 1963   2.954   6.528   2.212
   40DPPC   O14 1964   2.848   6.440   2.172
   40DPPC   C15 1965   2.873   6.307   2.154
   40DPPC   O16 1966   2.982   6.250   2.144
   40DPPC   C17 1967   2.741   6.231   2.149
   40DPPC   C18 1968   2.677   6.230   2.288
   40DPPC   C19 1969   2.542   6.159   2.285
   40DPPC   C20 1970   2.495   6.140   2.429
   40DPPC   C21 1971   2.484   6.265   2.517
   40DPPC   C22 1972   2.437   6.224   2.657
   40DPPC   C23 1973   2.436   6.338   2.759
   40DPPC   C24 1974   2.377   6.289   2.891
   40DPPC   C25 1975   2.369   6.409   2.986
   40DPPC   C26 1976   2.262   6.503   2.930
   40DPPC   C27 1977   2.219   6.582   3.054
   40DPPC   C28 1978   2.146   6.496   3.156
   40DPPC   C29 1979   2.198   6.490   3.300
   40DPPC   C30 1980   2.141   6.391   3.401
   40DPPC   C31 1981   2.165   6.430   3.547
   40DPPC   C32 1982   2.906   6.659   2.274
   40DPPC   O33 1983   2.979   6.688   2.394
   40DPPC   C34 1984   2.965   6.818   2.432
   40DPPC   O35 1985   2.933   6.912   2.360
   40DPPC   C36 1986   3.010   6.849   2.575
   40DPPC   C37 1987   2.970   6.989   2.623
   40DPPC   C38 1988   3.004   7.001   2.772
   40DPPC   C39 1989   2.873   7.027   2.847
   40DPPC   C40 1990   2.896   7.042   2.998
   40DPPC   C41 1991   2.750   7.072   3.033
   40DPPC   C42 1992   2.737   7.129   3.175
   40DPPC   C43 1993   2.809   7.033   3.270
   40DPPC   C44 1994   2.803   7.096   3.409
   40DPPC   C45 1995   2.659   7.137   3.443
   40DPPC   C46 1996   2.643   7.187   3.587
   40DPPC   C47 1997   2.507   7.254   3.604
   40DPPC   C48 1998   2.499   7.327   3.739
   40DPPC   C49 1999   2.363   7.391   3.767
   40DPPC   C50 2000   2.323   7.507   3.676
   41DPPC    C1 2001   3.096   5.787   1.886
   41DPPC    C2 2002   2.987   5.980   1.915
   41DPPC    C3 2003   3.215   5.980   1.839
   41DPPC    N4 2004   3.083   5.919   1.822
   41DPPC    C5 2005   3.052   5.907   1.678
   41DPPC    C6 2006   2.950   5.812   1.616
   41DPPC    O7 2007   2.812   5.835   1.647
   41DPPC    P8 2008   2.717   5.762   1.539
   41DPPC    O9 2009   2.799   5.740   1.418
   41DPPC   O10 2010   2.594   5.843   1.536
   41DPPC   O11 2011   2.691   5.619   1.609
   41DPPC   C12 2012   2.598   5.618   1.718
   41DPPC   C13 2013   2.528   5.485   1.745
   41DPPC   O14 2014   2.402   5.484   1.814
   41DPPC   C15 2015   2.283   5.537   1.774
   41DPPC   O16 2016   2.289   5.607   1.673
   41DPPC   C17 2017   2.178   5.547   1.885
   41DPPC   C18 2018   2.171   5.407   1.946
   41DPPC   C19 2019   2.061   5.398   2.051
   41DPPC   C20 2020   2.048   5.269   2.132
   41DPPC   C21 2021   1.913   5.283   2.202
   41DPPC   C22 2022   1.867   5.149   2.260
   41DPPC   C23 2023   1.742   5.181   2.343
   41DPPC   C24 2024   1.672   5.060   2.405
   41DPPC   C25 2025   1.560   5.096   2.503
   41DPPC   C26 2026   1.509   4.963   2.560
   41DPPC   C27 2027   1.418   5.005   2.675
   41DPPC   C28 2028   1.513   5.078   2.770
   41DPPC   C29 2029   1.441   5.113   2.900
   41DPPC   C30 2030   1.540   5.138   3.013
   41DPPC   C31 2031   1.470   5.141   3.149
   41DPPC   C32 2032   2.635   5.402   1.817
   41DPPC   O33 2033   2.713   5.483   1.906
   41DPPC   C34 2034   2.818   5.417   1.960
   41DPPC   O35 2035   2.861   5.305   1.933
   41DPPC   C36 2036   2.889   5.490   2.074
   41DPPC   C37 2037   2.871   5.394   2.192
   41DPPC   C38 2038   2.939   5.447   2.319
   41DPPC   C39 2039   2.918   5.362   2.445
   41DPPC   C40 2040   3.021   5.393   2.554
   41DPPC   C41 2041   2.973   5.297   2.664
   41DPPC   C42 2042   3.061   5.301   2.789
   41DPPC   C43 2043   3.185   5.213   2.777
   41DPPC   C44 2044   3.268   5.237   2.904
   41DPPC   C45 2045   3.380   5.133   2.902
   41DPPC   C46 2046   3.467   5.143   2.776
   41DPPC   C47 2047   3.568   5.028   2.781
   41DPPC   C48 2048   3.690   5.071   2.700
   41DPPC   C49 2049   3.771   5.185   2.763
   41DPPC   C50 2050   3.892   5.207   2.671
   42DPPC    C1 2051   1.939   4.526   1.909
   42DPPC    C2 2052   2.080   4.555   1.707
   42DPPC    C3 2053   2.081   4.358   1.827
   42DPPC    N4 2054   1.992   4.467   1.785
   42DPPC    C5 2055   1.887   4.411   1.698
   42DPPC    C6 2056   1.772   4.505   1.662
   42DPPC    O7 2057   1.800   4.606   1.564
   42DPPC    P8 2058   1.665   4.691   1.546
   42DPPC    O9 2059   1.548   4.602   1.530
   42DPPC   O10 2060   1.699   4.790   1.442
   42DPPC   O11 2061   1.678   4.757   1.693
   42DPPC   C12 2062   1.749   4.881   1.685
   42DPPC   C13 2063   1.788   4.932   1.823
   42DPPC   O14 2064   1.899   4.872   1.892
   42DPPC   C15 2065   2.026   4.903   1.857
   42DPPC   O16 2066   2.055   4.951   1.747
   42DPPC   C17 2067   2.130   4.866   1.963
   42DPPC   C18 2068   2.091   4.896   2.108
   42DPPC   C19 2069   2.004   4.782   2.160
   42DPPC   C20 2070   2.004   4.767   2.313
   42DPPC   C21 2071   1.932   4.635   2.341
   42DPPC   C22 2072   1.934   4.632   2.493
   42DPPC   C23 2073   1.883   4.504   2.558
   42DPPC   C24 2074   1.863   4.539   2.706
   42DPPC   C25 2075   1.819   4.415   2.783
   42DPPC   C26 2076   1.816   4.446   2.933
   42DPPC   C27 2077   1.774   4.333   3.028
   42DPPC   C28 2078   1.765   4.379   3.173
   42DPPC   C29 2079   1.902   4.429   3.220
   42DPPC   C30 2080   1.901   4.474   3.366
   42DPPC   C31 2081   1.845   4.616   3.366
   42DPPC   C32 2082   1.661   4.949   1.907
   42DPPC   O33 2083   1.594   5.073   1.882
   42DPPC   C34 2084   1.494   5.085   1.973
   42DPPC   O35 2085   1.445   4.986   2.027
   42DPPC   C36 2086   1.434   5.223   2.000
   42DPPC   C37 2087   1.374   5.237   2.140
   42DPPC   C38 2088   1.349   5.382   2.182
   42DPPC   C39 2089   1.222   5.435   2.114
   42DPPC   C40 2090   1.174   5.553   2.198
   42DPPC   C41 2091   1.038   5.518   2.260
   42DPPC   C42 2092   1.024   5.609   2.382
   42DPPC   C43 2093   0.912   5.569   2.479
   42DPPC   C44 2094   0.922   5.656   2.605
   42DPPC   C45 2095   0.839   5.588   2.715
   42DPPC   C46 2096   0.829   5.663   2.848
   42DPPC   C47 2097   0.719   5.604   2.936
   42DPPC   C48 2098   0.722   5.685   3.066
   42DPPC   C49 2099   0.606   5.669   3.164
   42DPPC   C50 2100   0.629   5.749   3.292
   43DPPC    C1 2101   1.676   6.537   1.708
   43DPPC    C2 2102   1.453   6.614   1.699
   43DPPC    C3 2103   1.636   6.738   1.801
   43DPPC    N4 2104   1.593   6.656   1.687
   43DPPC    C5 2105   1.647   6.714   1.563
   43DPPC    C6 2106   1.560   6.822   1.498
   43DPPC    O7 2107   1.530   6.926   1.591
   43DPPC    P8 2108   1.397   7.002   1.543
   43DPPC    O9 2109   1.336   6.944   1.421
   43DPPC   O10 2110   1.421   7.148   1.548
   43DPPC   O11 2111   1.316   6.951   1.672
   43DPPC   C12 2112   1.212   7.038   1.718
   43DPPC   C13 2113   1.141   6.980   1.840
   43DPPC   O14 2114   1.085   7.079   1.930
   43DPPC   C15 2115   0.951   7.076   1.949
   43DPPC   O16 2116   0.879   7.039   1.857
   43DPPC   C17 2117   0.908   7.162   2.068
   43DPPC   C18 2118   0.959   7.306   2.058
   43DPPC   C19 2119   0.903   7.385   2.176
   43DPPC   C20 2120   0.983   7.514   2.188
   43DPPC   C21 2121   0.911   7.604   2.288
   43DPPC   C22 2122   0.892   7.527   2.419
   43DPPC   C23 2123   0.811   7.605   2.522
   43DPPC   C24 2124   0.828   7.529   2.653
   43DPPC   C25 2125   0.974   7.523   2.698
   43DPPC   C26 2126   0.962   7.471   2.842
   43DPPC   C27 2127   1.090   7.412   2.901
   43DPPC   C28 2128   1.196   7.509   2.955
   43DPPC   C29 2129   1.307   7.439   3.034
   43DPPC   C30 2130   1.415   7.538   3.078
   43DPPC   C31 2131   1.517   7.475   3.173
   43DPPC   C32 2132   1.244   6.892   1.910
   43DPPC   O33 2133   1.215   6.799   2.015
   43DPPC   C34 2134   1.309   6.731   2.085
   43DPPC   O35 2135   1.412   6.688   2.032
   43DPPC   C36 2136   1.261   6.651   2.206
   43DPPC   C37 2137   1.263   6.732   2.336
   43DPPC   C38 2138   1.180   6.645   2.431
   43DPPC   C39 2139   1.129   6.732   2.546
   43DPPC   C40 2140   1.046   6.846   2.486
   43DPPC   C41 2141   0.975   6.933   2.589
   43DPPC   C42 2142   0.858   7.007   2.524
   43DPPC   C43 2143   0.762   7.070   2.625
   43DPPC   C44 2144   0.716   6.985   2.743
   43DPPC   C45 2145   0.631   7.083   2.824
   43DPPC   C46 2146   0.699   7.156   2.940
   43DPPC   C47 2147   0.596   7.227   3.028
   43DPPC   C48 2148   0.681   7.311   3.124
   43DPPC   C49 2149   0.598   7.429   3.172
   43DPPC   C50 2150   0.568   7.524   3.055
   44DPPC    C1 2151   4.884   1.727   1.519
   44DPPC    C2 2152   4.671   1.810   1.486
   44DPPC    C3 2153   4.758   1.812   1.700
   44DPPC    N4 2154   4.795   1.836   1.560
   44DPPC    C5 2155   4.864   1.965   1.544
   44DPPC    C6 2156   4.784   2.095   1.563
   44DPPC    O7 2157   4.733   2.121   1.694
   44DPPC    P8 2158   4.713   2.281   1.698
   44DPPC    O9 2159   4.604   2.301   1.797
   44DPPC   O10 2160   4.686   2.333   1.562
   44DPPC   O11 2161   4.860   2.319   1.752
   44DPPC   C12 2162   4.872   2.289   1.891
   44DPPC   C13 2163   5.020   2.260   1.914
   44DPPC   O14 2164   5.049   2.179   2.029
   44DPPC   C15 2165   5.170   2.117   2.032
   44DPPC   O16 2166   5.224   2.110   1.922
   44DPPC   C17 2167   5.210   2.033   2.154
   44DPPC   C18 2168   5.362   2.039   2.171
   44DPPC   C19 2169   5.389   2.002   2.317
   44DPPC   C20 2170   5.541   2.003   2.340
   44DPPC   C21 2171   5.583   1.985   2.486
   44DPPC   C22 2172   5.734   1.982   2.514
   44DPPC   C23 2173   5.764   1.963   2.663
   44DPPC   C24 2174   5.705   1.838   2.728
   44DPPC   C25 2175   5.720   1.838   2.880
   44DPPC   C26 2176   5.845   1.768   2.933
   44DPPC   C27 2177   5.829   1.735   3.081
   44DPPC   C28 2178   5.929   1.624   3.117
   44DPPC   C29 2179   5.930   1.583   3.264
   44DPPC   C30 2180   6.047   1.486   3.281
   44DPPC   C31 2181   6.060   1.437   3.425
   44DPPC   C32 2182   5.080   2.401   1.917
   44DPPC   O33 2183   5.015   2.492   2.006
   44DPPC   C34 2184   5.065   2.618   2.013
   44DPPC   O35 2185   5.156   2.659   1.941
   44DPPC   C36 2186   4.995   2.706   2.117
   44DPPC   C37 2187   5.074   2.831   2.155
   44DPPC   C38 2188   5.174   2.783   2.260
   44DPPC   C39 2189   5.102   2.765   2.394
   44DPPC   C40 2190   5.212   2.718   2.489
   44DPPC   C41 2191   5.146   2.684   2.623
   44DPPC   C42 2192   5.260   2.654   2.721
   44DPPC   C43 2193   5.202   2.582   2.843
   44DPPC   C44 2194   5.315   2.556   2.942
   44DPPC   C45 2195   5.262   2.500   3.074
   44DPPC   C46 2196   5.371   2.512   3.181
   44DPPC   C47 2197   5.326   2.426   3.300
   44DPPC   C48 2198   5.437   2.456   3.401
   44DPPC   C49 2199   5.566   2.421   3.327
   44DPPC   C50 2200   5.682   2.407   3.426
   45DPPC    C1 2201   0.215   4.354   1.403
   45DPPC    C2 2202   0.255   4.415   1.178
   45DPPC    C3 2203   0.434   4.389   1.332
   45DPPC    N4 2204   0.305   4.332   1.289
   45DPPC    C5 2205   0.322   4.189   1.258
   45DPPC    C6 2206   0.346   4.096   1.377
   45DPPC    O7 2207   0.483   4.060   1.400
   45DPPC    P8 2208   0.491   3.958   1.524
   45DPPC    O9 2209   0.637   3.935   1.522
   45DPPC   O10 2210   0.389   3.858   1.483
   45DPPC   O11 2211   0.440   4.031   1.657
   45DPPC   C12 2212   0.552   4.051   1.743
   45DPPC   C13 2213   0.529   4.151   1.857
   45DPPC   O14 2214   0.624   4.146   1.964
   45DPPC   C15 2215   0.721   4.242   1.961
   45DPPC   O16 2216   0.785   4.260   1.858
   45DPPC   C17 2217   0.773   4.264   2.103
   45DPPC   C18 2218   0.674   4.357   2.174
   45DPPC   C19 2219   0.703   4.378   2.323
   45DPPC   C20 2220   0.597   4.475   2.375
   45DPPC   C21 2221   0.633   4.570   2.489
   45DPPC   C22 2222   0.518   4.671   2.499
   45DPPC   C23 2223   0.383   4.607   2.529
   45DPPC   C24 2224   0.270   4.710   2.523
   45DPPC   C25 2225   0.164   4.635   2.604
   45DPPC   C26 2226   0.046   4.732   2.611
   45DPPC   C27 2227  -0.051   4.679   2.717
   45DPPC   C28 2228   0.025   4.634   2.842
   45DPPC   C29 2229  -0.061   4.590   2.961
   45DPPC   C30 2230   0.021   4.555   3.085
   45DPPC   C31 2231  -0.053   4.463   3.182
   45DPPC   C32 2232   0.385   4.130   1.903
   45DPPC   O33 2233   0.347   4.239   1.988
   45DPPC   C34 2234   0.219   4.234   2.034
   45DPPC   O35 2235   0.138   4.157   1.983
   45DPPC   C36 2236   0.189   4.333   2.147
   45DPPC   C37 2237   0.092   4.270   2.247
   45DPPC   C38 2238   0.107   4.348   2.377
   45DPPC   C39 2239   0.013   4.289   2.483
   45DPPC   C40 2240   0.048   4.148   2.531
   45DPPC   C41 2241  -0.054   4.102   2.635
   45DPPC   C42 2242  -0.079   4.176   2.767
   45DPPC   C43 2243  -0.178   4.086   2.841
   45DPPC   C44 2244  -0.115   3.946   2.840
   45DPPC   C45 2245  -0.224   3.848   2.886
   45DPPC   C46 2246  -0.272   3.887   3.026
   45DPPC   C47 2247  -0.369   3.789   3.093
   45DPPC   C48 2248  -0.510   3.790   3.033
   45DPPC   C49 2249  -0.583   3.659   3.061
   45DPPC   C50 2250  -0.714   3.642   2.983
   46DPPC    C1 2251   9.333   1.777   1.299
   46DPPC    C2 2252   9.338   1.833   1.515
   46DPPC    C3 2253   9.545   1.823   1.377
   46DPPC    N4 2254   9.406   1.867   1.389
   46DPPC    C5 2255   9.392   2.007   1.347
   46DPPC    C6 2256   9.374   2.129   1.438
   46DPPC    O7 2257   9.257   2.137   1.520
   46DPPC    P8 2258   9.250   2.282   1.590
   46DPPC    O9 2259   9.114   2.310   1.643
   46DPPC   O10 2260   9.331   2.378   1.513
   46DPPC   O11 2261   9.345   2.254   1.717
   46DPPC   C12 2262   9.279   2.183   1.822
   46DPPC   C13 2263   9.384   2.165   1.931
   46DPPC   O14 2264   9.370   2.045   2.009
   46DPPC   C15 2265   9.423   1.932   1.955
   46DPPC   O16 2266   9.459   1.923   1.838
   46DPPC   C17 2267   9.423   1.812   2.050
   46DPPC   C18 2268   9.356   1.829   2.187
   46DPPC   C19 2269   9.305   1.698   2.247
   46DPPC   C20 2270   9.253   1.726   2.388
   46DPPC   C21 2271   9.208   1.595   2.454
   46DPPC   C22 2272   9.127   1.611   2.583
   46DPPC   C23 2273   9.087   1.471   2.629
   46DPPC   C24 2274   8.989   1.448   2.744
   46DPPC   C25 2275   9.036   1.506   2.878
   46DPPC   C26 2276   8.946   1.449   2.988
   46DPPC   C27 2277   8.925   1.558   3.092
   46DPPC   C28 2278   9.063   1.578   3.154
   46DPPC   C29 2279   9.047   1.656   3.285
   46DPPC   C30 2280   8.944   1.592   3.378
   46DPPC   C31 2281   8.939   1.664   3.514
   46DPPC   C32 2282   9.391   2.298   2.004
   46DPPC   O33 2283   9.273   2.336   2.075
   46DPPC   C34 2284   9.273   2.460   2.130
   46DPPC   O35 2285   9.372   2.529   2.103
   46DPPC   C36 2286   9.144   2.512   2.194
   46DPPC   C37 2287   9.131   2.456   2.335
   46DPPC   C38 2288   9.055   2.573   2.399
   46DPPC   C39 2289   9.032   2.541   2.546
   46DPPC   C40 2290   8.895   2.477   2.573
   46DPPC   C41 2291   8.874   2.427   2.716
   46DPPC   C42 2292   8.748   2.341   2.728
   46DPPC   C43 2293   8.715   2.296   2.870
   46DPPC   C44 2294   8.588   2.212   2.891
   46DPPC   C45 2295   8.557   2.196   3.040
   46DPPC   C46 2296   8.415   2.204   3.097
   46DPPC   C47 2297   8.402   2.188   3.249
   46DPPC   C48 2298   8.490   2.300   3.306
   46DPPC   C49 2299   8.477   2.293   3.458
   46DPPC   C50 2300   8.591   2.373   3.521
   47DPPC    C1 2301   7.658   2.077   1.332
   47DPPC    C2 2302   7.673   1.908   1.168
   47DPPC    C3 2303   7.724   1.861   1.396
   47DPPC    N4 2304   7.633   1.935   1.307
   47DPPC    C5 2305   7.491   1.897   1.307
   47DPPC    C6 2306   7.432   1.836   1.435
   47DPPC    O7 2307   7.423   1.912   1.556
   47DPPC    P8 2308   7.405   1.828   1.692
   47DPPC    O9 2309   7.357   1.698   1.640
   47DPPC   O10 2310   7.324   1.908   1.786
   47DPPC   O11 2311   7.562   1.825   1.723
   47DPPC   C12 2312   7.602   1.769   1.849
   47DPPC   C13 2313   7.733   1.823   1.907
   47DPPC   O14 2314   7.800   1.734   1.997
   47DPPC   C15 2315   7.861   1.624   1.945
   47DPPC   O16 2316   7.885   1.609   1.826
   47DPPC   C17 2317   7.887   1.511   2.045
   47DPPC   C18 2318   7.793   1.393   2.020
   47DPPC   C19 2319   7.790   1.312   2.150
   47DPPC   C20 2320   7.740   1.393   2.270
   47DPPC   C21 2321   7.602   1.452   2.240
   47DPPC   C22 2322   7.555   1.523   2.366
   47DPPC   C23 2323   7.627   1.655   2.392
   47DPPC   C24 2324   7.537   1.730   2.490
   47DPPC   C25 2325   7.399   1.767   2.434
   47DPPC   C26 2326   7.324   1.841   2.545
   47DPPC   C27 2327   7.328   1.778   2.685
   47DPPC   C28 2328   7.263   1.876   2.783
   47DPPC   C29 2329   7.246   1.802   2.916
   47DPPC   C30 2330   7.155   1.873   3.016
   47DPPC   C31 2331   7.139   1.806   3.153
   47DPPC   C32 2332   7.694   1.960   1.965
   47DPPC   O33 2333   7.565   1.965   2.027
   47DPPC   C34 2334   7.509   2.081   2.069
   47DPPC   O35 2335   7.561   2.193   2.061
   47DPPC   C36 2336   7.383   2.052   2.151
   47DPPC   C37 2337   7.366   2.119   2.287
   47DPPC   C38 2338   7.218   2.130   2.321
   47DPPC   C39 2339   7.190   2.204   2.452
   47DPPC   C40 2340   7.051   2.170   2.505
   47DPPC   C41 2341   7.020   2.023   2.533
   47DPPC   C42 2342   6.888   2.006   2.608
   47DPPC   C43 2343   6.899   1.865   2.668
   47DPPC   C44 2344   6.775   1.861   2.757
   47DPPC   C45 2345   6.767   1.750   2.862
   47DPPC   C46 2346   6.704   1.807   2.988
   47DPPC   C47 2347   6.740   1.716   3.106
   47DPPC   C48 2348   6.697   1.763   3.245
   47DPPC   C49 2349   6.779   1.887   3.279
   47DPPC   C50 2350   6.767   1.909   3.430
   48DPPC    C1 2351   8.579   0.552   0.902
   48DPPC    C2 2352   8.403   0.584   0.752
   48DPPC    C3 2353   8.488   0.362   0.781
   48DPPC    N4 2354   8.457   0.488   0.849
   48DPPC    C5 2355   8.373   0.473   0.968
   48DPPC    C6 2356   8.299   0.346   1.010
   48DPPC    O7 2357   8.265   0.365   1.148
   48DPPC    P8 2358   8.185   0.231   1.188
   48DPPC    O9 2359   8.247   0.114   1.121
   48DPPC   O10 2360   8.043   0.262   1.159
   48DPPC   O11 2361   8.215   0.242   1.346
   48DPPC   C12 2362   8.353   0.240   1.385
   48DPPC   C13 2363   8.355   0.284   1.532
   48DPPC   O14 2364   8.478   0.287   1.606
   48DPPC   C15 2365   8.564   0.392   1.595
   48DPPC   O16 2366   8.541   0.469   1.503
   48DPPC   C17 2367   8.699   0.400   1.667
   48DPPC   C18 2368   8.690   0.321   1.798
   48DPPC   C19 2369   8.829   0.328   1.861
   48DPPC   C20 2370   8.843   0.269   2.001
   48DPPC   C21 2371   8.756   0.342   2.104
   48DPPC   C22 2372   8.781   0.268   2.236
   48DPPC   C23 2373   8.681   0.153   2.220
   48DPPC   C24 2374   8.672   0.059   2.339
   48DPPC   C25 2375   8.655   0.139   2.468
   48DPPC   C26 2376   8.639   0.048   2.590
   48DPPC   C27 2377   8.493   0.003   2.600
   48DPPC   C28 2378   8.445  -0.065   2.728
   48DPPC   C29 2379   8.318  -0.149   2.710
   48DPPC   C30 2380   8.257  -0.205   2.839
   48DPPC   C31 2381   8.156  -0.311   2.793
   48DPPC   C32 2382   8.245   0.203   1.599
   48DPPC   O33 2383   8.221   0.209   1.740
   48DPPC   C34 2384   8.154   0.317   1.785
   48DPPC   O35 2385   8.138   0.410   1.706
   48DPPC   C36 2386   8.109   0.323   1.931
   48DPPC   C37 2387   8.218   0.347   2.036
   48DPPC   C38 2388   8.150   0.360   2.172
   48DPPC   C39 2389   8.263   0.381   2.272
   48DPPC   C40 2390   8.213   0.374   2.417
   48DPPC   C41 2391   8.148   0.504   2.462
   48DPPC   C42 2392   8.114   0.489   2.610
   48DPPC   C43 2393   8.091   0.627   2.672
   48DPPC   C44 2394   8.039   0.630   2.816
   48DPPC   C45 2395   8.034   0.777   2.858
   48DPPC   C46 2396   8.011   0.804   3.007
   48DPPC   C47 2397   8.119   0.732   3.088
   48DPPC   C48 2398   8.125   0.761   3.239
   48DPPC   C49 2399   8.163   0.906   3.266
   48DPPC   C50 2400   8.171   0.923   3.418
   49DPPC    C1 2401   4.268   7.384   2.297
   49DPPC    C2 2402   4.201   7.395   2.535
   49DPPC    C3 2403   4.228   7.584   2.403
   49DPPC    N4 2404   4.181   7.445   2.398
   49DPPC    C5 2405   4.043   7.449   2.346
   49DPPC    C6 2406   3.973   7.316   2.316
   49DPPC    O7 2407   3.844   7.339   2.260
   49DPPC    P8 2408   3.797   7.245   2.138
   49DPPC    O9 2409   3.916   7.251   2.050
   49DPPC   O10 2410   3.672   7.315   2.100
   49DPPC   O11 2411   3.798   7.118   2.236
   49DPPC   C12 2412   3.672   7.050   2.233
   49DPPC   C13 2413   3.668   6.922   2.318
   49DPPC   O14 2414   3.552   6.839   2.307
   49DPPC   C15 2415   3.535   6.764   2.195
   49DPPC   O16 2416   3.613   6.765   2.100
   49DPPC   C17 2417   3.422   6.661   2.206
   49DPPC   C18 2418   3.481   6.539   2.277
   49DPPC   C19 2419   3.375   6.432   2.305
   49DPPC   C20 2420   3.273   6.474   2.411
   49DPPC   C21 2421   3.163   6.368   2.421
   49DPPC   C22 2422   3.068   6.395   2.538
   49DPPC   C23 2423   2.942   6.308   2.529
   49DPPC   C24 2424   2.962   6.156   2.531
   49DPPC   C25 2425   2.833   6.087   2.577
   49DPPC   C26 2426   2.845   5.936   2.557
   49DPPC   C27 2427   2.747   5.848   2.635
   49DPPC   C28 2428   2.777   5.699   2.615
   49DPPC   C29 2429   2.679   5.616   2.699
   49DPPC   C30 2430   2.692   5.615   2.851
   49DPPC   C31 2431   2.702   5.471   2.901
   49DPPC   C32 2432   3.711   6.974   2.455
   49DPPC   O33 2433   3.611   7.060   2.511
   49DPPC   C34 2434   3.638   7.109   2.635
   49DPPC   O35 2435   3.738   7.081   2.701
   49DPPC   C36 2436   3.512   7.168   2.699
   49DPPC   C37 2437   3.509   7.318   2.671
   49DPPC   C38 2438   3.397   7.382   2.754
   49DPPC   C39 2439   3.353   7.515   2.693
   49DPPC   C40 2440   3.245   7.581   2.780
   49DPPC   C41 2441   3.114   7.503   2.773
   49DPPC   C42 2442   3.000   7.554   2.862
   49DPPC   C43 2443   2.879   7.462   2.842
   49DPPC   C44 2444   2.751   7.535   2.883
   49DPPC   C45 2445   2.755   7.575   3.031
   49DPPC   C46 2446   2.619   7.632   3.072
   49DPPC   C47 2447   2.508   7.530   3.047
   49DPPC   C48 2448   2.372   7.586   3.091
   49DPPC   C49 2449   2.246   7.513   3.045
   49DPPC   C50 2450   2.249   7.495   2.894
   50DPPC    C1 2451   5.546   1.971   1.489
   50DPPC    C2 2452   5.595   1.785   1.328
   50DPPC    C3 2453   5.756   1.925   1.411
   50DPPC    N4 2454   5.631   1.858   1.451
   50DPPC    C5 2455   5.663   1.752   1.546
   50DPPC    C6 2456   5.556   1.694   1.639
   50DPPC    O7 2457   5.609   1.588   1.718
   50DPPC    P8 2458   5.486   1.487   1.741
   50DPPC    O9 2459   5.572   1.377   1.788
   50DPPC   O10 2460   5.418   1.476   1.609
   50DPPC   O11 2461   5.415   1.576   1.855
   50DPPC   C12 2462   5.472   1.540   1.981
   50DPPC   C13 2463   5.396   1.599   2.100
   50DPPC   O14 2464   5.445   1.557   2.228
   50DPPC   C15 2465   5.542   1.625   2.295
   50DPPC   O16 2466   5.617   1.703   2.236
   50DPPC   C17 2467   5.600   1.553   2.417
   50DPPC   C18 2468   5.507   1.575   2.536
   50DPPC   C19 2469   5.561   1.489   2.650
   50DPPC   C20 2470   5.477   1.497   2.777
   50DPPC   C21 2471   5.556   1.448   2.898
   50DPPC   C22 2472   5.497   1.477   3.036
   50DPPC   C23 2473   5.583   1.417   3.147
   50DPPC   C24 2474   5.517   1.455   3.280
   50DPPC   C25 2475   5.378   1.390   3.288
   50DPPC   C26 2476   5.294   1.457   3.396
   50DPPC   C27 2477   5.236   1.592   3.355
   50DPPC   C28 2478   5.146   1.669   3.452
   50DPPC   C29 2479   5.146   1.816   3.412
   50DPPC   C30 2480   5.073   1.893   3.522
   50DPPC   C31 2481   5.093   2.043   3.505
   50DPPC   C32 2482   5.246   1.586   2.074
   50DPPC   O33 2483   5.161   1.666   2.158
   50DPPC   C34 2484   5.134   1.624   2.284
   50DPPC   O35 2485   5.105   1.504   2.294
   50DPPC   C36 2486   5.052   1.732   2.355
   50DPPC   C37 2487   5.116   1.782   2.484
   50DPPC   C38 2488   5.049   1.904   2.547
   50DPPC   C39 2489   4.906   1.869   2.589
   50DPPC   C40 2490   4.856   2.008   2.630
   50DPPC   C41 2491   4.707   2.017   2.666
   50DPPC   C42 2492   4.675   1.911   2.772
   50DPPC   C43 2493   4.582   1.947   2.888
   50DPPC   C44 2494   4.565   1.824   2.976
   50DPPC   C45 2495   4.492   1.844   3.109
   50DPPC   C46 2496   4.473   1.707   3.175
   50DPPC   C47 2497   4.371   1.709   3.289
   50DPPC   C48 2498   4.438   1.783   3.405
   50DPPC   C49 2499   4.339   1.807   3.519
   50DPPC   C50 2500   4.393   1.878   3.643
   51DPPC    C1 2501   4.057   5.679   1.944
   51DPPC    C2 2502   4.256   5.795   1.938
   51DPPC    C3 2503   4.092   5.849   1.779
   51DPPC    N4 2504   4.111   5.813   1.921
   51DPPC    C5 2505   4.066   5.910   2.022
   51DPPC    C6 2506   3.920   5.953   2.007
   51DPPC    O7 2507   3.824   5.857   2.052
   51DPPC    P8 2508   3.678   5.905   2.003
   51DPPC    O9 2509   3.591   5.789   1.974
   51DPPC   O10 2510   3.680   6.004   1.893
   51DPPC   O11 2511   3.626   5.982   2.135
   51DPPC   C12 2512   3.636   5.893   2.246
   51DPPC   C13 2513   3.747   5.933   2.344
   51DPPC   O14 2514   3.781   5.826   2.433
   51DPPC   C15 2515   3.902   5.764   2.438
   51DPPC   O16 2516   3.991   5.772   2.354
   51DPPC   C17 2517   3.902   5.649   2.539
   51DPPC   C18 2518   3.943   5.704   2.676
   51DPPC   C19 2519   3.981   5.580   2.757
   51DPPC   C20 2520   4.015   5.644   2.892
   51DPPC   C21 2521   3.994   5.557   3.016
   51DPPC   C22 2522   4.073   5.427   2.996
   51DPPC   C23 2523   4.070   5.338   3.120
   51DPPC   C24 2524   4.131   5.199   3.096
   51DPPC   C25 2525   4.196   5.144   3.223
   51DPPC   C26 2526   4.254   5.003   3.215
   51DPPC   C27 2527   4.352   4.987   3.332
   51DPPC   C28 2528   4.431   4.858   3.308
   51DPPC   C29 2529   4.338   4.737   3.314
   51DPPC   C30 2530   4.419   4.609   3.295
   51DPPC   C31 2531   4.478   4.598   3.154
   51DPPC   C32 2532   3.720   6.072   2.402
   51DPPC   O33 2533   3.592   6.077   2.468
   51DPPC   C34 2534   3.555   6.190   2.533
   51DPPC   O35 2535   3.631   6.285   2.550
   51DPPC   C36 2536   3.416   6.195   2.598
   51DPPC   C37 2537   3.449   6.171   2.746
   51DPPC   C38 2538   3.327   6.148   2.835
   51DPPC   C39 2539   3.223   6.260   2.839
   51DPPC   C40 2540   3.113   6.248   2.945
   51DPPC   C41 2541   3.181   6.218   3.079
   51DPPC   C42 2542   3.083   6.232   3.195
   51DPPC   C43 2543   3.138   6.155   3.315
   51DPPC   C44 2544   3.096   6.214   3.450
   51DPPC   C45 2545   3.150   6.123   3.560
   51DPPC   C46 2546   3.087   6.173   3.690
   51DPPC   C47 2547   2.943   6.126   3.670
   51DPPC   C48 2548   2.857   6.184   3.783
   51DPPC   C49 2549   2.716   6.125   3.781
   51DPPC   C50 2550   2.653   6.184   3.907
   52DPPC    C1 2551   0.792   6.103   1.476
   52DPPC    C2 2552   0.846   6.177   1.686
   52DPPC    C3 2553   1.022   6.135   1.538
   52DPPC    N4 2554   0.887   6.192   1.546
   52DPPC    C5 2555   0.850   6.329   1.506
   52DPPC    C6 2556   0.938   6.441   1.560
   52DPPC    O7 2557   0.908   6.479   1.695
   52DPPC    P8 2558   1.016   6.567   1.775
   52DPPC    O9 2559   0.943   6.600   1.900
   52DPPC   O10 2560   1.066   6.672   1.683
   52DPPC   O11 2561   1.121   6.446   1.778
   52DPPC   C12 2562   1.096   6.368   1.896
   52DPPC   C13 2563   1.169   6.236   1.870
   52DPPC   O14 2564   1.112   6.137   1.956
   52DPPC   C15 2565   1.107   6.003   1.930
   52DPPC   O16 2566   1.158   5.956   1.828
   52DPPC   C17 2567   1.033   5.929   2.041
   52DPPC   C18 2568   0.888   5.891   2.008
   52DPPC   C19 2569   0.834   5.803   2.120
   52DPPC   C20 2570   0.685   5.783   2.096
   52DPPC   C21 2571   0.637   5.646   2.146
   52DPPC   C22 2572   0.629   5.640   2.299
   52DPPC   C23 2573   0.590   5.499   2.342
   52DPPC   C24 2574   0.561   5.483   2.491
   52DPPC   C25 2575   0.446   5.568   2.546
   52DPPC   C26 2576   0.416   5.550   2.694
   52DPPC   C27 2577   0.291   5.634   2.722
   52DPPC   C28 2578   0.245   5.621   2.867
   52DPPC   C29 2579   0.136   5.726   2.892
   52DPPC   C30 2580   0.109   5.718   3.042
   52DPPC   C31 2581  -0.006   5.814   3.074
   52DPPC   C32 2582   1.319   6.260   1.885
   52DPPC   O33 2583   1.363   6.304   2.014
   52DPPC   C34 2584   1.493   6.321   2.048
   52DPPC   O35 2585   1.581   6.316   1.962
   52DPPC   C36 2586   1.514   6.384   2.186
   52DPPC   C37 2587   1.631   6.326   2.266
   52DPPC   C38 2588   1.624   6.174   2.250
   52DPPC   C39 2589   1.756   6.109   2.291
   52DPPC   C40 2590   1.775   6.137   2.440
   52DPPC   C41 2591   1.896   6.065   2.499
   52DPPC   C42 2592   1.966   6.154   2.602
   52DPPC   C43 2593   1.888   6.178   2.731
   52DPPC   C44 2594   1.847   6.043   2.790
   52DPPC   C45 2595   1.754   6.061   2.910
   52DPPC   C46 2596   1.717   5.922   2.961
   52DPPC   C47 2597   1.719   5.921   3.114
   52DPPC   C48 2598   1.851   5.980   3.163
   52DPPC   C49 2599   1.870   6.019   3.310
   52DPPC   C50 2600   2.018   6.057   3.314
   53DPPC    C1 2601   4.682   3.320   1.370
   53DPPC    C2 2602   4.465   3.230   1.441
   53DPPC    C3 2603   4.549   3.189   1.226
   53DPPC    N4 2604   4.589   3.206   1.366
   53DPPC    C5 2605   4.655   3.083   1.414
   53DPPC    C6 2606   4.704   3.081   1.559
   53DPPC    O7 2607   4.779   2.961   1.580
   53DPPC    P8 2608   4.736   2.917   1.729
   53DPPC    O9 2609   4.803   2.787   1.754
   53DPPC   O10 2610   4.591   2.940   1.745
   53DPPC   O11 2611   4.809   3.051   1.781
   53DPPC   C12 2612   4.907   3.035   1.884
   53DPPC   C13 2613   4.989   3.159   1.918
   53DPPC   O14 2614   5.106   3.133   1.996
   53DPPC   C15 2615   5.207   3.224   1.999
   53DPPC   O16 2616   5.203   3.326   1.930
   53DPPC   C17 2617   5.301   3.221   2.120
   53DPPC   C18 2618   5.220   3.197   2.247
   53DPPC   C19 2619   5.121   3.310   2.275
   53DPPC   C20 2620   5.029   3.282   2.394
   53DPPC   C21 2621   4.963   3.144   2.382
   53DPPC   C22 2622   4.911   3.095   2.517
   53DPPC   C23 2623   4.831   3.204   2.590
   53DPPC   C24 2624   4.817   3.171   2.739
   53DPPC   C25 2625   4.726   3.270   2.811
   53DPPC   C26 2626   4.731   3.232   2.960
   53DPPC   C27 2627   4.626   3.313   3.036
   53DPPC   C28 2628   4.634   3.274   3.184
   53DPPC   C29 2629   4.624   3.129   3.234
   53DPPC   C30 2630   4.620   3.127   3.387
   53DPPC   C31 2631   4.583   2.989   3.443
   53DPPC   C32 2632   4.894   3.272   1.959
   53DPPC   O33 2633   4.791   3.251   2.056
   53DPPC   C34 2634   4.709   3.358   2.075
   53DPPC   O35 2635   4.741   3.469   2.033
   53DPPC   C36 2636   4.580   3.323   2.149
   53DPPC   C37 2637   4.601   3.299   2.299
   53DPPC   C38 2638   4.461   3.274   2.355
   53DPPC   C39 2639   4.471   3.283   2.507
   53DPPC   C40 2640   4.348   3.235   2.584
   53DPPC   C41 2641   4.370   3.237   2.735
   53DPPC   C42 2642   4.236   3.212   2.803
   53DPPC   C43 2643   4.261   3.235   2.952
   53DPPC   C44 2644   4.138   3.181   3.025
   53DPPC   C45 2645   4.187   3.203   3.169
   53DPPC   C46 2646   4.081   3.170   3.274
   53DPPC   C47 2647   4.158   3.204   3.401
   53DPPC   C48 2648   4.097   3.150   3.531
   53DPPC   C49 2649   4.200   3.164   3.643
   53DPPC   C50 2650   4.148   3.092   3.768
   54DPPC    C1 2651   6.227   0.313   1.848
   54DPPC    C2 2652   6.162   0.243   1.630
   54DPPC    C3 2653   6.332   0.417   1.652
   54DPPC    N4 2654   6.275   0.294   1.710
   54DPPC    C5 2655   6.368   0.181   1.711
   54DPPC    C6 2656   6.507   0.199   1.772
   54DPPC    O7 2657   6.514   0.214   1.914
   54DPPC    P8 2658   6.644   0.295   1.964
   54DPPC    O9 2659   6.613   0.427   1.904
   54DPPC   O10 2660   6.753   0.204   1.924
   54DPPC   O11 2661   6.608   0.284   2.120
   54DPPC   C12 2662   6.485   0.355   2.139
   54DPPC   C13 2663   6.463   0.392   2.286
   54DPPC   O14 2664   6.539   0.511   2.316
   54DPPC   C15 2665   6.496   0.634   2.276
   54DPPC   O16 2666   6.391   0.648   2.214
   54DPPC   C17 2667   6.596   0.743   2.315
   54DPPC   C18 2668   6.657   0.723   2.453
   54DPPC   C19 2669   6.558   0.718   2.570
   54DPPC   C20 2670   6.608   0.691   2.712
   54DPPC   C21 2671   6.500   0.674   2.819
   54DPPC   C22 2672   6.554   0.649   2.959
   54DPPC   C23 2673   6.439   0.647   3.060
   54DPPC   C24 2674   6.473   0.625   3.207
   54DPPC   C25 2675   6.344   0.599   3.284
   54DPPC   C26 2676   6.248   0.718   3.272
   54DPPC   C27 2677   6.301   0.838   3.351
   54DPPC   C28 2678   6.182   0.926   3.390
   54DPPC   C29 2679   6.217   1.029   3.498
   54DPPC   C30 2680   6.116   1.034   3.613
   54DPPC   C31 2681   6.171   1.111   3.733
   54DPPC   C32 2682   6.497   0.262   2.359
   54DPPC   O33 2683   6.481   0.261   2.501
   54DPPC   C34 2684   6.505   0.139   2.556
   54DPPC   O35 2685   6.580   0.068   2.490
   54DPPC   C36 2686   6.464   0.097   2.698
   54DPPC   C37 2687   6.481   0.205   2.805
   54DPPC   C38 2688   6.526   0.134   2.933
   54DPPC   C39 2689   6.531   0.244   3.040
   54DPPC   C40 2690   6.592   0.190   3.169
   54DPPC   C41 2691   6.603   0.298   3.276
   54DPPC   C42 2692   6.645   0.232   3.408
   54DPPC   C43 2693   6.654   0.333   3.523
   54DPPC   C44 2694   6.676   0.261   3.656
   54DPPC   C45 2695   6.688   0.356   3.776
   54DPPC   C46 2696   6.718   0.278   3.904
   54DPPC   C47 2697   6.701   0.366   4.028
   54DPPC   C48 2698   6.747   0.308   4.161
   54DPPC   C49 2699   6.896   0.274   4.169
   54DPPC   C50 2700   6.958   0.281   4.309
   55DPPC    C1 2701   0.254   7.192   1.795
   55DPPC    C2 2702   0.366   7.388   1.870
   55DPPC    C3 2703   0.399   7.296   1.645
   55DPPC    N4 2704   0.304   7.323   1.754
   55DPPC    C5 2705   0.190   7.409   1.716
   55DPPC    C6 2706   0.110   7.400   1.586
   55DPPC    O7 2707   0.013   7.504   1.574
   55DPPC    P8 2708  -0.064   7.497   1.433
   55DPPC    O9 2709   0.019   7.407   1.350
   55DPPC   O10 2710  -0.115   7.630   1.392
   55DPPC   O11 2711  -0.186   7.416   1.500
   55DPPC   C12 2712  -0.245   7.499   1.601
   55DPPC   C13 2713  -0.328   7.407   1.691
   55DPPC   O14 2714  -0.411   7.469   1.790
   55DPPC   C15 2715  -0.543   7.437   1.781
   55DPPC   O16 2716  -0.596   7.387   1.682
   55DPPC   C17 2717  -0.636   7.473   1.897
   55DPPC   C18 2718  -0.650   7.371   2.010
   55DPPC   C19 2719  -0.680   7.228   1.965
   55DPPC   C20 2720  -0.661   7.141   2.090
   55DPPC   C21 2721  -0.667   6.992   2.056
   55DPPC   C22 2722  -0.642   6.910   2.183
   55DPPC   C23 2723  -0.755   6.943   2.281
   55DPPC   C24 2724  -0.709   6.902   2.421
   55DPPC   C25 2725  -0.592   6.977   2.486
   55DPPC   C26 2726  -0.564   6.927   2.628
   55DPPC   C27 2727  -0.438   6.984   2.693
   55DPPC   C28 2728  -0.449   6.938   2.839
   55DPPC   C29 2729  -0.324   6.949   2.926
   55DPPC   C30 2730  -0.346   6.897   3.069
   55DPPC   C31 2731  -0.446   6.997   3.127
   55DPPC   C32 2732  -0.218   7.319   1.752
   55DPPC   O33 2733  -0.247   7.225   1.856
   55DPPC   C34 2734  -0.139   7.160   1.907
   55DPPC   O35 2735  -0.029   7.159   1.853
   55DPPC   C36 2736  -0.168   7.053   2.013
   55DPPC   C37 2737  -0.221   7.115   2.142
   55DPPC   C38 2738  -0.134   7.223   2.207
   55DPPC   C39 2739  -0.195   7.246   2.346
   55DPPC   C40 2740  -0.342   7.289   2.339
   55DPPC   C41 2741  -0.383   7.301   2.486
   55DPPC   C42 2742  -0.278   7.372   2.571
   55DPPC   C43 2743  -0.314   7.390   2.719
   55DPPC   C44 2744  -0.202   7.467   2.788
   55DPPC   C45 2745  -0.208   7.454   2.940
   55DPPC   C46 2746  -0.191   7.307   2.980
   55DPPC   C47 2747  -0.176   7.292   3.131
   55DPPC   C48 2748  -0.305   7.350   3.190
   55DPPC   C49 2749  -0.308   7.308   3.337
   55DPPC   C50 2750  -0.207   7.383   3.424
   56DPPC    C1 2751   4.208   1.925   2.387
   56DPPC    C2 2752   4.259   1.871   2.610
   56DPPC    C3 2753   4.289   1.710   2.432
   56DPPC    N4 2754   4.303   1.851   2.471
   56DPPC    C5 2755   4.439   1.904   2.452
   56DPPC    C6 2756   4.516   1.871   2.324
   56DPPC    O7 2757   4.630   1.957   2.318
   56DPPC    P8 2758   4.684   1.968   2.167
   56DPPC    O9 2759   4.562   1.978   2.084
   56DPPC   O10 2760   4.790   1.868   2.143
   56DPPC   O11 2761   4.756   2.112   2.173
   56DPPC   C12 2762   4.826   2.128   2.296
   56DPPC   C13 2763   4.916   2.251   2.303
   56DPPC   O14 2764   5.011   2.242   2.410
   56DPPC   C15 2765   5.105   2.338   2.432
   56DPPC   O16 2766   5.120   2.430   2.352
   56DPPC   C17 2767   5.169   2.331   2.571
   56DPPC   C18 2768   5.319   2.307   2.549
   56DPPC   C19 2769   5.388   2.298   2.685
   56DPPC   C20 2770   5.366   2.174   2.771
   56DPPC   C21 2771   5.442   2.194   2.902
   56DPPC   C22 2772   5.432   2.081   3.004
   56DPPC   C23 2773   5.515   2.104   3.131
   56DPPC   C24 2774   5.541   1.977   3.211
   56DPPC   C25 2775   5.640   2.019   3.320
   56DPPC   C26 2776   5.657   1.889   3.399
   56DPPC   C27 2777   5.736   1.907   3.529
   56DPPC   C28 2778   5.652   1.992   3.624
   56DPPC   C29 2779   5.716   2.025   3.758
   56DPPC   C30 2780   5.606   2.053   3.861
   56DPPC   C31 2781   5.515   2.149   3.784
   56DPPC   C32 2782   4.826   2.375   2.291
   56DPPC   O33 2783   4.711   2.361   2.374
   56DPPC   C34 2784   4.610   2.450   2.353
   56DPPC   O35 2785   4.628   2.546   2.278
   56DPPC   C36 2786   4.467   2.412   2.393
   56DPPC   C37 2787   4.475   2.339   2.528
   56DPPC   C38 2788   4.342   2.285   2.579
   56DPPC   C39 2789   4.354   2.287   2.731
   56DPPC   C40 2790   4.395   2.429   2.772
   56DPPC   C41 2791   4.376   2.427   2.924
   56DPPC   C42 2792   4.483   2.339   2.988
   56DPPC   C43 2793   4.454   2.339   3.138
   56DPPC   C44 2794   4.535   2.241   3.223
   56DPPC   C45 2795   4.488   2.236   3.368
   56DPPC   C46 2796   4.492   2.378   3.426
   56DPPC   C47 2797   4.468   2.389   3.577
   56DPPC   C48 2798   4.451   2.533   3.625
   56DPPC   C49 2799   4.444   2.511   3.776
   56DPPC   C50 2800   4.566   2.442   3.837
   57DPPC    C1 2801   5.715   7.076   2.076
   57DPPC    C2 2802   5.524   6.958   2.131
   57DPPC    C3 2803   5.609   6.940   1.901
   57DPPC    N4 2804   5.642   6.952   2.044
   57DPPC    C5 2805   5.735   6.844   2.082
   57DPPC    C6 2806   5.686   6.699   2.070
   57DPPC    O7 2807   5.793   6.604   2.059
   57DPPC    P8 2808   5.734   6.463   2.010
   57DPPC    O9 2809   5.850   6.393   1.951
   57DPPC   O10 2810   5.613   6.491   1.931
   57DPPC   O11 2811   5.691   6.404   2.154
   57DPPC   C12 2812   5.815   6.376   2.220
   57DPPC   C13 2813   5.822   6.425   2.364
   57DPPC   O14 2814   5.949   6.379   2.415
   57DPPC   C15 2815   6.028   6.477   2.466
   57DPPC   O16 2816   5.971   6.586   2.461
   57DPPC   C17 2817   6.169   6.441   2.513
   57DPPC   C18 2818   6.174   6.394   2.658
   57DPPC   C19 2819   6.133   6.511   2.747
   57DPPC   C20 2820   6.112   6.473   2.894
   57DPPC   C21 2821   6.029   6.577   2.969
   57DPPC   C22 2822   6.015   6.530   3.114
   57DPPC   C23 2823   5.939   6.620   3.211
   57DPPC   C24 2824   5.968   6.583   3.357
   57DPPC   C25 2825   5.902   6.446   3.371
   57DPPC   C26 2826   5.919   6.379   3.508
   57DPPC   C27 2827   5.844   6.446   3.623
   57DPPC   C28 2828   5.856   6.366   3.752
   57DPPC   C29 2829   5.744   6.386   3.855
   57DPPC   C30 2830   5.764   6.335   3.998
   57DPPC   C31 2831   5.627   6.320   4.064
   57DPPC   C32 2832   5.704   6.368   2.443
   57DPPC   O33 2833   5.715   6.233   2.490
   57DPPC   C34 2834   5.597   6.171   2.515
   57DPPC   O35 2835   5.496   6.219   2.463
   57DPPC   C36 2836   5.603   6.034   2.582
   57DPPC   C37 2837   5.479   6.039   2.672
   57DPPC   C38 2838   5.493   5.943   2.790
   57DPPC   C39 2839   5.367   5.942   2.876
   57DPPC   C40 2840   5.387   5.864   3.005
   57DPPC   C41 2841   5.254   5.873   3.081
   57DPPC   C42 2842   5.265   5.817   3.223
   57DPPC   C43 2843   5.132   5.802   3.298
   57DPPC   C44 2844   5.151   5.719   3.425
   57DPPC   C45 2845   5.014   5.696   3.488
   57DPPC   C46 2846   5.038   5.614   3.615
   57DPPC   C47 2847   5.072   5.468   3.583
   57DPPC   C48 2848   5.175   5.419   3.685
   57DPPC   C49 2849   5.124   5.398   3.827
   57DPPC   C50 2850   5.238   5.397   3.930
   58DPPC    C1 2851   8.469   6.932   1.411
   58DPPC    C2 2852   8.492   7.145   1.305
   58DPPC    C3 2853   8.287   7.096   1.412
   58DPPC    N4 2854   8.432   7.075   1.419
   58DPPC    C5 2855   8.480   7.128   1.548
   58DPPC    C6 2856   8.418   7.256   1.603
   58DPPC    O7 2857   8.461   7.377   1.538
   58DPPC    P8 2858   8.338   7.480   1.539
   58DPPC    O9 2859   8.220   7.402   1.495
   58DPPC   O10 2860   8.375   7.605   1.470
   58DPPC   O11 2861   8.336   7.495   1.700
   58DPPC   C12 2862   8.422   7.602   1.740
   58DPPC   C13 2863   8.439   7.632   1.889
   58DPPC   O14 2864   8.541   7.732   1.896
   58DPPC   C15 2865   8.496   7.860   1.890
   58DPPC   O16 2866   8.380   7.895   1.868
   58DPPC   C17 2867   8.607   7.964   1.904
   58DPPC   C18 2868   8.571   8.050   2.025
   58DPPC   C19 2869   8.671   8.155   2.074
   58DPPC   C20 2870   8.636   8.214   2.210
   58DPPC   C21 2871   8.638   8.108   2.321
   58DPPC   C22 2872   8.615   8.167   2.460
   58DPPC   C23 2873   8.580   8.051   2.553
   58DPPC   C24 2874   8.596   8.083   2.702
   58DPPC   C25 2875   8.520   7.983   2.788
   58DPPC   C26 2876   8.507   8.030   2.933
   58DPPC   C27 2877   8.441   7.925   3.023
   58DPPC   C28 2878   8.463   7.943   3.173
   58DPPC   C29 2879   8.609   7.910   3.205
   58DPPC   C30 2880   8.631   7.903   3.356
   58DPPC   C31 2881   8.781   7.912   3.383
   58DPPC   C32 2882   8.474   7.497   1.951
   58DPPC   O33 2883   8.444   7.488   2.091
   58DPPC   C34 2884   8.443   7.360   2.134
   58DPPC   O35 2885   8.453   7.270   2.051
   58DPPC   C36 2886   8.446   7.342   2.286
   58DPPC   C37 2887   8.592   7.318   2.328
   58DPPC   C38 2888   8.589   7.310   2.481
   58DPPC   C39 2889   8.727   7.272   2.537
   58DPPC   C40 2890   8.751   7.329   2.677
   58DPPC   C41 2891   8.648   7.280   2.778
   58DPPC   C42 2892   8.722   7.292   2.911
   58DPPC   C43 2893   8.664   7.178   2.994
   58DPPC   C44 2894   8.708   7.041   2.942
   58DPPC   C45 2895   8.643   6.933   3.028
   58DPPC   C46 2896   8.656   6.942   3.180
   58DPPC   C47 2897   8.586   6.831   3.259
   58DPPC   C48 2898   8.642   6.809   3.400
   58DPPC   C49 2899   8.588   6.682   3.466
   58DPPC   C50 2900   8.647   6.661   3.606
   59DPPC    C1 2901   0.920   5.345   1.919
   59DPPC    C2 2902   0.746   5.177   1.932
   59DPPC    C3 2903   0.721   5.377   1.806
   59DPPC    N4 2904   0.817   5.272   1.844
   59DPPC    C5 2905   0.881   5.206   1.730
   59DPPC    C6 2906   0.804   5.097   1.656
   59DPPC    O7 2907   0.664   5.115   1.633
   59DPPC    P8 2908   0.604   4.977   1.576
   59DPPC    O9 2909   0.712   4.878   1.554
   59DPPC   O10 2910   0.495   5.002   1.478
   59DPPC   O11 2911   0.527   4.924   1.707
   59DPPC   C12 2912   0.408   5.002   1.718
   59DPPC   C13 2913   0.346   5.020   1.857
   59DPPC   O14 2914   0.410   5.096   1.960
   59DPPC   C15 2915   0.330   5.197   2.002
   59DPPC   O16 2916   0.289   5.288   1.931
   59DPPC   C17 2917   0.371   5.236   2.145
   59DPPC   C18 2918   0.264   5.260   2.251
   59DPPC   C19 2919   0.191   5.128   2.277
   59DPPC   C20 2920   0.120   5.111   2.412
   59DPPC   C21 2921   0.234   5.128   2.512
   59DPPC   C22 2922   0.191   5.119   2.659
   59DPPC   C23 2923   0.311   5.176   2.734
   59DPPC   C24 2924   0.444   5.101   2.725
   59DPPC   C25 2925   0.555   5.197   2.769
   59DPPC   C26 2926   0.691   5.127   2.766
   59DPPC   C27 2927   0.683   4.998   2.849
   59DPPC   C28 2928   0.813   4.921   2.875
   59DPPC   C29 2929   0.865   4.879   2.738
   59DPPC   C30 2930   0.999   4.806   2.741
   59DPPC   C31 2931   1.026   4.734   2.608
   59DPPC   C32 2932   0.339   4.873   1.899
   59DPPC   O33 2933   0.231   4.847   1.989
   59DPPC   C34 2934   0.200   4.715   2.002
   59DPPC   O35 2935   0.244   4.638   1.916
   59DPPC   C36 2936   0.093   4.672   2.102
   59DPPC   C37 2937   0.033   4.797   2.166
   59DPPC   C38 2938  -0.105   4.763   2.223
   59DPPC   C39 2939  -0.179   4.892   2.258
   59DPPC   C40 2940  -0.305   4.878   2.344
   59DPPC   C41 2941  -0.362   5.017   2.369
   59DPPC   C42 2942  -0.483   5.014   2.462
   59DPPC   C43 2943  -0.436   4.956   2.595
   59DPPC   C44 2944  -0.550   4.938   2.695
   59DPPC   C45 2945  -0.495   4.848   2.806
   59DPPC   C46 2946  -0.386   4.918   2.887
   59DPPC   C47 2947  -0.304   4.817   2.969
   59DPPC   C48 2948  -0.405   4.784   3.079
   59DPPC   C49 2949  -0.453   4.904   3.162
   59DPPC   C50 2950  -0.542   4.843   3.270
   60DPPC    C1 2951   6.874   4.844   1.326
   60DPPC    C2 2952   6.664   4.751   1.413
   60DPPC    C3 2953   6.792   4.889   1.541
   60DPPC    N4 2954   6.751   4.869   1.401
   60DPPC    C5 2955   6.696   4.988   1.334
   60DPPC    C6 2956   6.573   5.052   1.399
   60DPPC    O7 2957   6.554   5.188   1.358
   60DPPC    P8 2958   6.498   5.280   1.478
   60DPPC    O9 2959   6.412   5.185   1.551
   60DPPC   O10 2960   6.458   5.401   1.403
   60DPPC   O11 2961   6.638   5.308   1.553
   60DPPC   C12 2962   6.652   5.244   1.680
   60DPPC   C13 2963   6.773   5.279   1.768
   60DPPC   O14 2964   6.785   5.188   1.878
   60DPPC   C15 2965   6.877   5.088   1.865
   60DPPC   O16 2966   6.941   5.076   1.761
   60DPPC   C17 2967   6.887   5.002   1.990
   60DPPC   C18 2968   6.800   4.878   1.969
   60DPPC   C19 2969   6.807   4.780   2.086
   60DPPC   C20 2970   6.701   4.672   2.065
   60DPPC   C21 2971   6.681   4.573   2.180
   60DPPC   C22 2972   6.620   4.648   2.298
   60DPPC   C23 2973   6.615   4.546   2.412
   60DPPC   C24 2974   6.574   4.611   2.544
   60DPPC   C25 2975   6.526   4.507   2.646
   60DPPC   C26 2976   6.513   4.562   2.789
   60DPPC   C27 2977   6.443   4.463   2.883
   60DPPC   C28 2978   6.512   4.327   2.866
   60DPPC   C29 2979   6.465   4.233   2.977
   60DPPC   C30 2980   6.494   4.084   2.959
   60DPPC   C31 2981   6.490   4.009   3.093
   60DPPC   C32 2982   6.763   5.427   1.809
   60DPPC   O33 2983   6.631   5.460   1.854
   60DPPC   C34 2984   6.618   5.591   1.887
   60DPPC   O35 2985   6.698   5.676   1.848
   60DPPC   C36 2986   6.496   5.630   1.971
   60DPPC   C37 2987   6.505   5.613   2.123
   60DPPC   C38 2988   6.372   5.667   2.176
   60DPPC   C39 2989   6.397   5.751   2.302
   60DPPC   C40 2990   6.261   5.800   2.350
   60DPPC   C41 2991   6.264   5.891   2.473
   60DPPC   C42 2992   6.119   5.908   2.516
   60DPPC   C43 2993   6.109   6.000   2.638
   60DPPC   C44 2994   5.964   6.007   2.687
   60DPPC   C45 2995   5.971   6.104   2.806
   60DPPC   C46 2996   6.062   6.054   2.918
   60DPPC   C47 2997   6.063   6.131   3.051
   60DPPC   C48 2998   6.145   6.052   3.153
   60DPPC   C49 2999   6.146   6.157   3.263
   60DPPC   C50 3000   6.207   6.104   3.393
   61DPPC    C1 3001   3.996   0.331   2.245
   61DPPC    C2 3002   4.029   0.224   2.053
   61DPPC    C3 3003   3.801   0.254   2.110
   61DPPC    N4 3004   3.933   0.319   2.113
   61DPPC    C5 3005   3.929   0.446   2.040
   61DPPC    C6 3006   3.838   0.558   2.090
   61DPPC    O7 3007   3.900   0.655   2.176
   61DPPC    P8 3008   3.788   0.766   2.204
   61DPPC    O9 3009   3.662   0.711   2.258
   61DPPC   O10 3010   3.803   0.877   2.108
   61DPPC   O11 3011   3.867   0.826   2.331
   61DPPC   C12 3012   3.887   0.717   2.422
   61DPPC   C13 3013   3.925   0.763   2.562
   61DPPC   O14 3014   3.963   0.654   2.648
   61DPPC   C15 3015   4.096   0.644   2.672
   61DPPC   O16 3016   4.167   0.684   2.580
   61DPPC   C17 3017   4.142   0.535   2.769
   61DPPC   C18 3018   4.058   0.407   2.780
   61DPPC   C19 3019   4.127   0.303   2.868
   61DPPC   C20 3020   4.263   0.246   2.827
   61DPPC   C21 3021   4.272   0.109   2.894
   61DPPC   C22 3022   4.398   0.032   2.853
   61DPPC   C23 3023   4.525   0.112   2.882
   61DPPC   C24 3024   4.651   0.039   2.834
   61DPPC   C25 3025   4.773   0.129   2.813
   61DPPC   C26 3026   4.912   0.074   2.845
   61DPPC   C27 3027   5.018   0.108   2.740
   61DPPC   C28 3028   5.149   0.034   2.765
   61DPPC   C29 3029   5.135  -0.116   2.792
   61DPPC   C30 3030   5.050  -0.199   2.696
   61DPPC   C31 3031   5.061  -0.344   2.745
   61DPPC   C32 3032   3.811   0.857   2.602
   61DPPC   O33 3033   3.841   0.941   2.714
   61DPPC   C34 3034   3.743   1.024   2.759
   61DPPC   O35 3035   3.643   1.039   2.688
   61DPPC   C36 3036   3.778   1.121   2.872
   61DPPC   C37 3037   3.742   1.062   3.008
   61DPPC   C38 3038   3.769   1.169   3.113
   61DPPC   C39 3039   3.741   1.118   3.255
   61DPPC   C40 3040   3.596   1.071   3.266
   61DPPC   C41 3041   3.590   0.946   3.355
   61DPPC   C42 3042   3.442   0.907   3.360
   61DPPC   C43 3043   3.439   0.793   3.462
   61DPPC   C44 3044   3.306   0.717   3.468
   61DPPC   C45 3045   3.325   0.610   3.575
   61DPPC   C46 3046   3.363   0.664   3.713
   61DPPC   C47 3047   3.264   0.760   3.780
   61DPPC   C48 3048   3.321   0.779   3.921
   61DPPC   C49 3049   3.213   0.847   4.005
   61DPPC   C50 3050   3.243   0.839   4.154
   62DPPC    C1 3051   7.796   4.457   1.133
   62DPPC    C2 3052   7.609   4.303   1.197
   62DPPC    C3 3053   7.735   4.422   1.354
   62DPPC    N4 3054   7.680   4.430   1.218
   62DPPC    C5 3055   7.598   4.550   1.194
   62DPPC    C6 3056   7.452   4.551   1.239
   62DPPC    O7 3057   7.446   4.573   1.380
   62DPPC    P8 3058   7.299   4.556   1.443
   62DPPC    O9 3059   7.310   4.450   1.546
   62DPPC   O10 3060   7.213   4.556   1.322
   62DPPC   O11 3061   7.293   4.705   1.504
   62DPPC   C12 3062   7.385   4.714   1.612
   62DPPC   C13 3063   7.345   4.830   1.705
   62DPPC   O14 3064   7.430   4.853   1.818
   62DPPC   C15 3065   7.422   4.978   1.871
   62DPPC   O16 3066   7.409   5.074   1.795
   62DPPC   C17 3067   7.476   4.989   2.014
   62DPPC   C18 3068   7.379   5.027   2.126
   62DPPC   C19 3069   7.262   4.928   2.132
   62DPPC   C20 3070   7.210   4.953   2.274
   62DPPC   C21 3071   7.064   4.913   2.298
   62DPPC   C22 3072   7.023   4.951   2.441
   62DPPC   C23 3073   6.886   4.899   2.483
   62DPPC   C24 3074   6.843   4.941   2.623
   62DPPC   C25 3075   6.699   4.913   2.664
   62DPPC   C26 3076   6.593   4.964   2.566
   62DPPC   C27 3077   6.449   4.937   2.612
   62DPPC   C28 3078   6.331   4.952   2.515
   62DPPC   C29 3079   6.198   4.929   2.586
   62DPPC   C30 3080   6.211   4.797   2.664
   62DPPC   C31 3081   6.074   4.765   2.724
   62DPPC   C32 3082   7.195   4.821   1.733
   62DPPC   O33 3083   7.173   4.695   1.798
   62DPPC   C34 3084   7.045   4.650   1.804
   62DPPC   O35 3085   6.964   4.685   1.718
   62DPPC   C36 3086   7.030   4.528   1.895
   62DPPC   C37 3087   7.125   4.531   2.015
   62DPPC   C38 3088   7.094   4.423   2.119
   62DPPC   C39 3089   7.180   4.442   2.244
   62DPPC   C40 3090   7.126   4.383   2.375
   62DPPC   C41 3091   6.986   4.437   2.404
   62DPPC   C42 3092   6.934   4.399   2.543
   62DPPC   C43 3093   7.034   4.437   2.653
   62DPPC   C44 3094   6.973   4.411   2.790
   62DPPC   C45 3095   6.937   4.262   2.787
   62DPPC   C46 3096   6.901   4.214   2.928
   62DPPC   C47 3097   6.873   4.066   2.955
   62DPPC   C48 3098   6.834   4.051   3.102
   62DPPC   C49 3099   6.918   4.125   3.206
   62DPPC   C50 3100   6.846   4.128   3.341
   63DPPC    C1 3101   7.812   8.498   1.052
   63DPPC    C2 3102   7.787   8.275   1.036
   63DPPC    C3 3103   7.981   8.349   1.145
   63DPPC    N4 3104   7.837   8.376   1.131
   63DPPC    C5 3105   7.753   8.364   1.251
   63DPPC    C6 3106   7.813   8.416   1.382
   63DPPC    O7 3107   7.823   8.556   1.410
   63DPPC    P8 3108   7.892   8.551   1.556
   63DPPC    O9 3109   7.927   8.692   1.579
   63DPPC   O10 3110   7.996   8.446   1.544
   63DPPC   O11 3111   7.769   8.494   1.643
   63DPPC   C12 3112   7.707   8.605   1.707
   63DPPC   C13 3113   7.583   8.571   1.790
   63DPPC   O14 3114   7.511   8.686   1.835
   63DPPC   C15 3115   7.399   8.714   1.763
   63DPPC   O16 3116   7.372   8.660   1.656
   63DPPC   C17 3117   7.310   8.824   1.821
   63DPPC   C18 3118   7.381   8.898   1.935
   63DPPC   C19 3119   7.277   8.970   2.020
   63DPPC   C20 3120   7.332   9.043   2.143
   63DPPC   C21 3121   7.237   9.085   2.255
   63DPPC   C22 3122   7.300   9.061   2.393
   63DPPC   C23 3123   7.203   9.125   2.492
   63DPPC   C24 3124   7.194   9.075   2.636
   63DPPC   C25 3125   7.088   9.159   2.708
   63DPPC   C26 3126   7.040   9.104   2.842
   63DPPC   C27 3127   7.147   9.109   2.951
   63DPPC   C28 3128   7.101   9.070   3.092
   63DPPC   C29 3129   7.062   8.924   3.114
   63DPPC   C30 3130   7.025   8.898   3.261
   63DPPC   C31 3131   7.140   8.812   3.314
   63DPPC   C32 3132   7.636   8.494   1.911
   63DPPC   O33 3133   7.752   8.552   1.972
   63DPPC   C34 3134   7.801   8.482   2.078
   63DPPC   O35 3135   7.732   8.398   2.136
   63DPPC   C36 3136   7.924   8.551   2.137
   63DPPC   C37 3137   7.906   8.601   2.281
   63DPPC   C38 3138   7.836   8.737   2.286
   63DPPC   C39 3139   7.812   8.776   2.432
   63DPPC   C40 3140   7.743   8.912   2.447
   63DPPC   C41 3141   7.728   8.954   2.593
   63DPPC   C42 3142   7.658   9.090   2.594
   63DPPC   C43 3143   7.620   9.138   2.734
   63DPPC   C44 3144   7.548   9.272   2.745
   63DPPC   C45 3145   7.570   9.344   2.878
   63DPPC   C46 3146   7.498   9.260   2.983
   63DPPC   C47 3147   7.506   9.329   3.120
   63DPPC   C48 3148   7.424   9.263   3.231
   63DPPC   C49 3149   7.435   9.342   3.361
   63DPPC   C50 3150   7.355   9.279   3.475
   64DPPC    C1 3151   3.421   0.059   1.987
   64DPPC    C2 3152   3.342  -0.008   1.774
   64DPPC    C3 3153   3.218   0.162   1.895
   64DPPC    N4 3154   3.351   0.106   1.867
   64DPPC    C5 3155   3.446   0.194   1.797
   64DPPC    C6 3156   3.513   0.313   1.865
   64DPPC    O7 3157   3.421   0.408   1.918
   64DPPC    P8 3158   3.486   0.527   2.004
   64DPPC    O9 3159   3.377   0.615   2.050
   64DPPC   O10 3160   3.598   0.573   1.918
   64DPPC   O11 3161   3.542   0.442   2.128
   64DPPC   C12 3162   3.424   0.428   2.208
   64DPPC   C13 3163   3.447   0.377   2.350
   64DPPC   O14 3164   3.318   0.360   2.410
   64DPPC   C15 3165   3.236   0.257   2.375
   64DPPC   O16 3166   3.268   0.182   2.283
   64DPPC   C17 3167   3.102   0.250   2.447
   64DPPC   C18 3168   3.126   0.232   2.597
   64DPPC   C19 3169   3.164   0.366   2.660
   64DPPC   C20 3170   3.172   0.352   2.812
   64DPPC   C21 3171   3.043   0.296   2.873
   64DPPC   C22 3172   3.057   0.283   3.025
   64DPPC   C23 3173   3.185   0.213   3.072
   64DPPC   C24 3174   3.235   0.278   3.201
   64DPPC   C25 3175   3.361   0.221   3.265
   64DPPC   C26 3176   3.320   0.102   3.352
   64DPPC   C27 3177   3.447   0.022   3.383
   64DPPC   C28 3178   3.398  -0.104   3.455
   64DPPC   C29 3179   3.515  -0.203   3.456
   64DPPC   C30 3180   3.544  -0.256   3.315
   64DPPC   C31 3181   3.626  -0.384   3.331
   64DPPC   C32 3182   3.537   0.484   2.413
   64DPPC   O33 3183   3.577   0.442   2.543
   64DPPC   C34 3184   3.670   0.342   2.543
   64DPPC   O35 3185   3.738   0.319   2.444
   64DPPC   C36 3186   3.704   0.278   2.678
   64DPPC   C37 3187   3.593   0.189   2.735
   64DPPC   C38 3188   3.603   0.204   2.887
   64DPPC   C39 3189   3.736   0.161   2.948
   64DPPC   C40 3190   3.741   0.008   2.935
   64DPPC   C41 3191   3.883  -0.039   2.965
   64DPPC   C42 3192   3.924   0.016   3.101
   64DPPC   C43 3193   4.043  -0.059   3.162
   64DPPC   C44 3194   3.993  -0.203   3.181
   64DPPC   C45 3195   4.104  -0.293   3.236
   64DPPC   C46 3196   4.045  -0.419   3.301
   64DPPC   C47 3197   4.160  -0.514   3.336
   64DPPC   C48 3198   4.098  -0.646   3.383
   64DPPC   C49 3199   4.212  -0.746   3.403
   64DPPC   C50 3200   4.283  -0.771   3.269
   65DPPC    C1 3201   2.384   5.119   5.704
   65DPPC    C2 3202   2.563   5.090   5.552
   65DPPC    C3 3203   2.548   4.951   5.748
   65DPPC    N4 3204   2.471   5.018   5.642
   65DPPC    C5 3205   2.389   4.911   5.584
   65DPPC    C6 3206   2.441   4.791   5.506
   65DPPC    O7 3207   2.348   4.682   5.496
   65DPPC    P8 3208   2.428   4.549   5.454
   65DPPC    O9 3209   2.312   4.458   5.448
   65DPPC   O10 3210   2.542   4.537   5.548
   65DPPC   O11 3211   2.488   4.594   5.311
   65DPPC   C12 3212   2.411   4.546   5.201
   65DPPC   C13 3213   2.471   4.593   5.069
   65DPPC   O14 3214   2.381   4.589   4.957
   65DPPC   C15 3215   2.287   4.685   4.934
   65DPPC   O16 3216   2.277   4.776   5.016
   65DPPC   C17 3217   2.233   4.697   4.792
   65DPPC   C18 3218   2.271   4.827   4.720
   65DPPC   C19 3219   2.422   4.850   4.707
   65DPPC   C20 3220   2.444   4.971   4.615
   65DPPC   C21 3221   2.591   4.982   4.573
   65DPPC   C22 3222   2.611   5.108   4.489
   65DPPC   C23 3223   2.500   5.101   4.383
   65DPPC   C24 3224   2.540   5.215   4.289
   65DPPC   C25 3225   2.677   5.182   4.229
   65DPPC   C26 3226   2.741   5.297   4.152
   65DPPC   C27 3227   2.885   5.256   4.117
   65DPPC   C28 3228   2.954   5.361   4.030
   65DPPC   C29 3229   3.097   5.311   4.007
   65DPPC   C30 3230   3.181   5.409   3.926
   65DPPC   C31 3231   3.320   5.346   3.915
   65DPPC   C32 3232   2.600   4.511   5.063
   65DPPC   O33 3233   2.597   4.369   5.076
   65DPPC   C34 3234   2.723   4.317   5.068
   65DPPC   O35 3235   2.824   4.385   5.082
   65DPPC   C36 3236   2.718   4.165   5.087
   65DPPC   C37 3237   2.655   4.068   4.987
   65DPPC   C38 3238   2.725   4.092   4.853
   65DPPC   C39 3239   2.670   4.005   4.740
   65DPPC   C40 3240   2.764   4.008   4.619
   65DPPC   C41 3241   2.725   3.940   4.487
   65DPPC   C42 3242   2.821   3.951   4.368
   65DPPC   C43 3243   2.809   4.090   4.304
   65DPPC   C44 3244   2.869   4.076   4.164
   65DPPC   C45 3245   2.825   4.197   4.082
   65DPPC   C46 3246   2.900   4.183   3.949
   65DPPC   C47 3247   2.824   4.113   3.836
   65DPPC   C48 3248   2.907   4.094   3.710
   65DPPC   C49 3249   2.828   4.008   3.612
   65DPPC   C50 3250   2.701   4.086   3.575
   66DPPC    C1 3251   8.109   1.346   1.483
   66DPPC    C2 3252   8.074   1.578   1.489
   66DPPC    C3 3253   8.163   1.476   1.678
   66DPPC    N4 3254   8.167   1.472   1.531
   66DPPC    C5 3255   8.290   1.503   1.457
   66DPPC    C6 3256   8.400   1.397   1.462
   66DPPC    O7 3257   8.514   1.450   1.394
   66DPPC    P8 3258   8.641   1.352   1.378
   66DPPC    O9 3259   8.765   1.404   1.317
   66DPPC   O10 3260   8.585   1.225   1.325
   66DPPC   O11 3261   8.661   1.333   1.536
   66DPPC   C12 3262   8.698   1.447   1.614
   66DPPC   C13 3263   8.653   1.421   1.758
   66DPPC   O14 3264   8.640   1.538   1.841
   66DPPC   C15 3265   8.524   1.608   1.823
   66DPPC   O16 3266   8.461   1.599   1.718
   66DPPC   C17 3267   8.480   1.704   1.934
   66DPPC   C18 3268   8.395   1.636   2.042
   66DPPC   C19 3269   8.344   1.716   2.161
   66DPPC   C20 3270   8.243   1.825   2.125
   66DPPC   C21 3271   8.145   1.856   2.238
   66DPPC   C22 3272   8.055   1.976   2.207
   66DPPC   C23 3273   7.935   1.972   2.303
   66DPPC   C24 3274   7.862   2.105   2.286
   66DPPC   C25 3275   7.733   2.119   2.366
   66DPPC   C26 3276   7.751   2.098   2.516
   66DPPC   C27 3277   7.634   2.117   2.612
   66DPPC   C28 3278   7.672   2.071   2.752
   66DPPC   C29 3279   7.551   2.090   2.845
   66DPPC   C30 3280   7.595   2.081   2.991
   66DPPC   C31 3281   7.484   2.104   3.094
   66DPPC   C32 3282   8.741   1.304   1.803
   66DPPC   O33 3283   8.715   1.250   1.932
   66DPPC   C34 3284   8.596   1.192   1.963
   66DPPC   O35 3285   8.495   1.217   1.898
   66DPPC   C36 3286   8.594   1.107   2.091
   66DPPC   C37 3287   8.628   1.187   2.217
   66DPPC   C38 3288   8.668   1.090   2.328
   66DPPC   C39 3289   8.694   1.154   2.464
   66DPPC   C40 3290   8.714   1.061   2.584
   66DPPC   C41 3291   8.841   0.975   2.576
   66DPPC   C42 3292   8.864   0.905   2.710
   66DPPC   C43 3293   8.881   0.992   2.835
   66DPPC   C44 3294   8.917   0.901   2.953
   66DPPC   C45 3295   8.906   0.985   3.080
   66DPPC   C46 3296   8.882   0.898   3.204
   66DPPC   C47 3297   9.003   0.805   3.215
   66DPPC   C48 3298   8.991   0.723   3.344
   66DPPC   C49 3299   9.102   0.622   3.374
   66DPPC   C50 3300   9.086   0.538   3.501
   67DPPC    C1 3301   4.869   3.025   6.024
   67DPPC    C2 3302   4.674   2.912   6.029
   67DPPC    C3 3303   4.687   3.084   5.874
   67DPPC    N4 3304   4.766   2.974   5.933
   67DPPC    C5 3305   4.822   2.875   5.840
   67DPPC    C6 3306   4.906   2.761   5.900
   67DPPC    O7 3307   4.997   2.699   5.810
   67DPPC    P8 3308   5.061   2.574   5.889
   67DPPC    O9 3309   5.008   2.551   6.026
   67DPPC   O10 3310   5.206   2.575   5.858
   67DPPC   O11 3311   4.993   2.457   5.802
   67DPPC   C12 3312   5.032   2.475   5.666
   67DPPC   C13 3313   4.978   2.367   5.572
   67DPPC   O14 3314   5.050   2.356   5.449
   67DPPC   C15 3315   5.157   2.272   5.450
   67DPPC   O16 3316   5.192   2.218   5.555
   67DPPC   C17 3317   5.241   2.256   5.323
   67DPPC   C18 3318   5.240   2.107   5.288
   67DPPC   C19 3319   5.310   2.104   5.152
   67DPPC   C20 3320   5.441   2.179   5.174
   67DPPC   C21 3321   5.525   2.179   5.047
   67DPPC   C22 3322   5.670   2.225   5.061
   67DPPC   C23 3323   5.749   2.216   4.930
   67DPPC   C24 3324   5.683   2.293   4.815
   67DPPC   C25 3325   5.770   2.296   4.690
   67DPPC   C26 3326   5.701   2.375   4.578
   67DPPC   C27 3327   5.779   2.354   4.448
   67DPPC   C28 3328   5.696   2.391   4.324
   67DPPC   C29 3329   5.762   2.361   4.190
   67DPPC   C30 3330   5.696   2.437   4.075
   67DPPC   C31 3331   5.772   2.399   3.948
   67DPPC   C32 3332   4.828   2.387   5.552
   67DPPC   O33 3333   4.780   2.502   5.482
   67DPPC   C34 3334   4.645   2.515   5.487
   67DPPC   O35 3335   4.582   2.488   5.589
   67DPPC   C36 3336   4.589   2.580   5.361
   67DPPC   C37 3337   4.591   2.733   5.372
   67DPPC   C38 3338   4.524   2.782   5.243
   67DPPC   C39 3339   4.567   2.736   5.104
   67DPPC   C40 3340   4.491   2.804   4.989
   67DPPC   C41 3341   4.552   2.768   4.854
   67DPPC   C42 3342   4.511   2.865   4.743
   67DPPC   C43 3343   4.545   3.010   4.776
   67DPPC   C44 3344   4.487   3.087   4.656
   67DPPC   C45 3345   4.542   3.033   4.524
   67DPPC   C46 3346   4.501   3.117   4.402
   67DPPC   C47 3347   4.566   3.068   4.272
   67DPPC   C48 3348   4.533   3.154   4.150
   67DPPC   C49 3349   4.592   3.074   4.034
   67DPPC   C50 3350   4.615   3.168   3.916
   68DPPC    C1 3351   0.674   4.041   1.140
   68DPPC    C2 3352   0.871   3.943   1.046
   68DPPC    C3 3353   0.913   4.101   1.192
   68DPPC    N4 3354   0.811   3.997   1.169
   68DPPC    C5 3355   0.814   3.899   1.278
   68DPPC    C6 3356   0.753   3.761   1.248
   68DPPC    O7 3357   0.771   3.664   1.351
   68DPPC    P8 3358   0.703   3.521   1.323
   68DPPC    O9 3359   0.797   3.409   1.345
   68DPPC   O10 3360   0.631   3.527   1.193
   68DPPC   O11 3361   0.614   3.548   1.454
   68DPPC   C12 3362   0.702   3.528   1.565
   68DPPC   C13 3363   0.667   3.624   1.679
   68DPPC   O14 3364   0.741   3.584   1.795
   68DPPC   C15 3365   0.851   3.653   1.836
   68DPPC   O16 3366   0.906   3.736   1.764
   68DPPC   C17 3367   0.893   3.617   1.979
   68DPPC   C18 3368   0.813   3.680   2.093
   68DPPC   C19 3369   0.795   3.827   2.057
   68DPPC   C20 3370   0.702   3.887   2.163
   68DPPC   C21 3371   0.768   3.867   2.299
   68DPPC   C22 3372   0.666   3.939   2.387
   68DPPC   C23 3373   0.696   3.933   2.537
   68DPPC   C24 3374   0.587   4.012   2.609
   68DPPC   C25 3375   0.578   4.162   2.578
   68DPPC   C26 3376   0.451   4.225   2.635
   68DPPC   C27 3377   0.448   4.196   2.786
   68DPPC   C28 3378   0.322   4.240   2.861
   68DPPC   C29 3379   0.317   4.219   3.012
   68DPPC   C30 3380   0.316   4.070   3.045
   68DPPC   C31 3381   0.298   4.040   3.194
   68DPPC   C32 3382   0.516   3.610   1.703
   68DPPC   O33 3383   0.460   3.716   1.781
   68DPPC   C34 3384   0.350   3.676   1.850
   68DPPC   O35 3385   0.282   3.585   1.805
   68DPPC   C36 3386   0.279   3.784   1.933
   68DPPC   C37 3387   0.278   3.751   2.083
   68DPPC   C38 3388   0.251   3.862   2.184
   68DPPC   C39 3389   0.103   3.901   2.185
   68DPPC   C40 3390   0.005   3.810   2.259
   68DPPC   C41 3391  -0.138   3.858   2.234
   68DPPC   C42 3392  -0.235   3.760   2.300
   68DPPC   C43 3393  -0.206   3.769   2.450
   68DPPC   C44 3394  -0.309   3.668   2.502
   68DPPC   C45 3395  -0.444   3.736   2.519
   68DPPC   C46 3396  -0.438   3.857   2.613
   68DPPC   C47 3397  -0.579   3.916   2.607
   68DPPC   C48 3398  -0.611   4.042   2.688
   68DPPC   C49 3399  -0.755   4.090   2.667
   68DPPC   C50 3400  -0.841   3.981   2.730
   69DPPC    C1 3401   5.480   2.612   6.387
   69DPPC    C2 3402   5.543   2.617   6.160
   69DPPC    C3 3403   5.486   2.408   6.265
   69DPPC    N4 3404   5.453   2.551   6.256
   69DPPC    C5 3405   5.314   2.584   6.221
   69DPPC    C6 3406   5.259   2.719   6.268
   69DPPC    O7 3407   5.308   2.839   6.206
   69DPPC    P8 3408   5.217   2.971   6.191
   69DPPC    O9 3409   5.302   3.078   6.249
   69DPPC   O10 3410   5.086   2.930   6.245
   69DPPC   O11 3411   5.224   2.952   6.032
   69DPPC   C12 3412   5.351   2.980   5.973
   69DPPC   C13 3413   5.331   2.947   5.825
   69DPPC   O14 3414   5.441   2.991   5.744
   69DPPC   C15 3415   5.469   3.116   5.697
   69DPPC   O16 3416   5.426   3.212   5.760
   69DPPC   C17 3417   5.587   3.131   5.602
   69DPPC   C18 3418   5.519   3.116   5.465
   69DPPC   C19 3419   5.626   3.120   5.355
   69DPPC   C20 3420   5.581   3.071   5.217
   69DPPC   C21 3421   5.697   3.086   5.118
   69DPPC   C22 3422   5.656   3.068   4.972
   69DPPC   C23 3423   5.778   3.116   4.894
   69DPPC   C24 3424   5.736   3.168   4.756
   69DPPC   C25 3425   5.865   3.229   4.703
   69DPPC   C26 3426   5.861   3.299   4.567
   69DPPC   C27 3427   5.816   3.203   4.457
   69DPPC   C28 3428   5.777   3.270   4.325
   69DPPC   C29 3429   5.742   3.160   4.226
   69DPPC   C30 3430   5.723   3.223   4.088
   69DPPC   C31 3431   5.688   3.120   3.980
   69DPPC   C32 3432   5.195   3.003   5.786
   69DPPC   O33 3433   5.164   2.962   5.652
   69DPPC   C34 3434   5.054   3.013   5.590
   69DPPC   O35 3435   4.976   3.089   5.646
   69DPPC   C36 3436   5.055   3.001   5.438
   69DPPC   C37 3437   4.995   2.867   5.395
   69DPPC   C38 3438   5.049   2.823   5.259
   69DPPC   C39 3439   4.992   2.688   5.214
   69DPPC   C40 3440   5.005   2.669   5.062
   69DPPC   C41 3441   5.017   2.521   5.026
   69DPPC   C42 3442   5.072   2.494   4.886
   69DPPC   C43 3443   5.125   2.352   4.863
   69DPPC   C44 3444   5.189   2.331   4.726
   69DPPC   C45 3445   5.248   2.190   4.730
   69DPPC   C46 3446   5.346   2.163   4.616
   69DPPC   C47 3447   5.275   2.191   4.483
   69DPPC   C48 3448   5.374   2.155   4.372
   69DPPC   C49 3449   5.310   2.178   4.235
   69DPPC   C50 3450   5.282   2.328   4.229
   70DPPC    C1 3451   2.692   0.100   5.294
   70DPPC    C2 3452   2.787  -0.011   5.100
   70DPPC    C3 3453   2.917   0.089   5.283
   70DPPC    N4 3454   2.799   0.011   5.245
   70DPPC    C5 3455   2.777  -0.103   5.336
   70DPPC    C6 3456   2.885  -0.212   5.342
   70DPPC    O7 3457   2.931  -0.266   5.218
   70DPPC    P8 3458   2.986  -0.414   5.247
   70DPPC    O9 3459   2.871  -0.470   5.321
   70DPPC   O10 3460   3.110  -0.372   5.316
   70DPPC   O11 3461   2.991  -0.465   5.094
   70DPPC   C12 3462   2.862  -0.459   5.034
   70DPPC   C13 3463   2.881  -0.484   4.884
   70DPPC   O14 3464   2.902  -0.619   4.843
   70DPPC   C15 3465   2.809  -0.718   4.855
   70DPPC   O16 3466   2.696  -0.691   4.893
   70DPPC   C17 3467   2.845  -0.857   4.803
   70DPPC   C18 3468   2.870  -0.837   4.653
   70DPPC   C19 3469   2.872  -0.967   4.572
   70DPPC   C20 3470   2.928  -0.928   4.435
   70DPPC   C21 3471   3.070  -0.872   4.451
   70DPPC   C22 3472   3.117  -0.828   4.312
   70DPPC   C23 3473   3.268  -0.819   4.286
   70DPPC   C24 3474   3.303  -0.746   4.156
   70DPPC   C25 3475   3.446  -0.690   4.156
   70DPPC   C26 3476   3.459  -0.623   4.019
   70DPPC   C27 3477   3.606  -0.589   3.997
   70DPPC   C28 3478   3.639  -0.510   3.869
   70DPPC   C29 3479   3.787  -0.540   3.845
   70DPPC   C30 3480   3.872  -0.492   3.963
   70DPPC   C31 3481   4.019  -0.520   3.931
   70DPPC   C32 3482   2.993  -0.392   4.834
   70DPPC   O33 3483   2.949  -0.256   4.828
   70DPPC   C34 3484   3.044  -0.168   4.788
   70DPPC   O35 3485   3.156  -0.209   4.758
   70DPPC   C36 3486   2.999  -0.025   4.758
   70DPPC   C37 3487   3.070   0.038   4.638
   70DPPC   C38 3488   2.997   0.166   4.596
   70DPPC   C39 3489   3.041   0.208   4.455
   70DPPC   C40 3490   2.964   0.111   4.364
   70DPPC   C41 3491   3.007   0.114   4.217
   70DPPC   C42 3492   2.957  -0.012   4.145
   70DPPC   C43 3493   2.805  -0.022   4.154
   70DPPC   C44 3494   2.747   0.092   4.071
   70DPPC   C45 3495   2.692   0.049   3.935
   70DPPC   C46 3496   2.540   0.030   3.924
   70DPPC   C47 3497   2.497  -0.032   3.791
   70DPPC   C48 3498   2.348  -0.063   3.773
   70DPPC   C49 3499   2.318  -0.150   3.651
   70DPPC   C50 3500   2.167  -0.167   3.634
   71DPPC    C1 3501   3.984   3.741   5.550
   71DPPC    C2 3502   4.019   3.830   5.775
   71DPPC    C3 3503   4.035   3.596   5.714
   71DPPC    N4 3504   4.064   3.734   5.673
   71DPPC    C5 3505   4.207   3.765   5.656
   71DPPC    C6 3506   4.294   3.772   5.781
   71DPPC    O7 3507   4.309   3.645   5.844
   71DPPC    P8 3508   4.409   3.646   5.970
   71DPPC    O9 3509   4.390   3.527   6.056
   71DPPC   O10 3510   4.407   3.780   6.033
   71DPPC   O11 3511   4.539   3.643   5.875
   71DPPC   C12 3512   4.569   3.510   5.831
   71DPPC   C13 3513   4.645   3.510   5.698
   71DPPC   O14 3514   4.786   3.534   5.698
   71DPPC   C15 3515   4.856   3.422   5.730
   71DPPC   O16 3516   4.819   3.355   5.826
   71DPPC   C17 3517   5.005   3.424   5.694
   71DPPC   C18 3518   5.021   3.402   5.544
   71DPPC   C19 3519   5.161   3.439   5.496
   71DPPC   C20 3520   5.183   3.391   5.352
   71DPPC   C21 3521   5.306   3.451   5.284
   71DPPC   C22 3522   5.282   3.416   5.137
   71DPPC   C23 3523   5.311   3.268   5.108
   71DPPC   C24 3524   5.304   3.246   4.957
   71DPPC   C25 3525   5.378   3.337   4.858
   71DPPC   C26 3526   5.370   3.275   4.719
   71DPPC   C27 3527   5.417   3.366   4.605
   71DPPC   C28 3528   5.377   3.301   4.472
   71DPPC   C29 3529   5.422   3.390   4.356
   71DPPC   C30 3530   5.377   3.335   4.221
   71DPPC   C31 3531   5.416   3.427   4.105
   71DPPC   C32 3532   4.563   3.597   5.602
   71DPPC   O33 3533   4.586   3.569   5.464
   71DPPC   C34 3534   4.507   3.638   5.377
   71DPPC   O35 3535   4.435   3.730   5.414
   71DPPC   C36 3536   4.508   3.602   5.229
   71DPPC   C37 3537   4.415   3.486   5.193
   71DPPC   C38 3538   4.392   3.445   5.048
   71DPPC   C39 3539   4.284   3.336   5.053
   71DPPC   C40 3540   4.227   3.310   4.914
   71DPPC   C41 3541   4.174   3.440   4.853
   71DPPC   C42 3542   4.156   3.419   4.703
   71DPPC   C43 3543   4.105   3.541   4.627
   71DPPC   C44 3544   4.101   3.503   4.479
   71DPPC   C45 3545   4.248   3.479   4.447
   71DPPC   C46 3546   4.275   3.417   4.310
   71DPPC   C47 3547   4.221   3.504   4.195
   71DPPC   C48 3548   4.284   3.466   4.061
   71DPPC   C49 3549   4.272   3.577   3.957
   71DPPC   C50 3550   4.128   3.603   3.912
   72DPPC    C1 3551   0.937   8.473   4.790
   72DPPC    C2 3552   1.095   8.617   4.881
   72DPPC    C3 3553   0.865   8.630   4.946
   72DPPC    N4 3554   0.976   8.538   4.916
   72DPPC    C5 3555   0.994   8.441   5.026
   72DPPC    C6 3556   1.084   8.319   5.010
   72DPPC    O7 3557   1.214   8.354   4.962
   72DPPC    P8 3558   1.321   8.233   4.953
   72DPPC    O9 3559   1.261   8.139   5.050
   72DPPC   O10 3560   1.456   8.292   4.967
   72DPPC   O11 3561   1.295   8.157   4.813
   72DPPC   C12 3562   1.276   8.265   4.721
   72DPPC   C13 3563   1.258   8.234   4.572
   72DPPC   O14 3564   1.274   8.353   4.494
   72DPPC   C15 3565   1.359   8.366   4.389
   72DPPC   O16 3566   1.455   8.292   4.365
   72DPPC   C17 3567   1.325   8.493   4.310
   72DPPC   C18 3568   1.348   8.468   4.161
   72DPPC   C19 3569   1.341   8.586   4.064
   72DPPC   C20 3570   1.337   8.532   3.920
   72DPPC   C21 3571   1.270   8.641   3.835
   72DPPC   C22 3572   1.305   8.630   3.687
   72DPPC   C23 3573   1.260   8.749   3.603
   72DPPC   C24 3574   1.287   8.723   3.455
   72DPPC   C25 3575   1.267   8.845   3.365
   72DPPC   C26 3576   1.273   8.813   3.216
   72DPPC   C27 3577   1.158   8.722   3.172
   72DPPC   C28 3578   1.028   8.797   3.201
   72DPPC   C29 3579   0.907   8.703   3.205
   72DPPC   C30 3580   0.789   8.794   3.239
   72DPPC   C31 3581   0.806   8.829   3.387
   72DPPC   C32 3582   1.129   8.153   4.560
   72DPPC   O33 3583   1.006   8.225   4.563
   72DPPC   C34 3584   0.904   8.147   4.519
   72DPPC   O35 3585   0.884   8.027   4.542
   72DPPC   C36 3586   0.778   8.222   4.476
   72DPPC   C37 3587   0.740   8.196   4.330
   72DPPC   C38 3588   0.620   8.276   4.281
   72DPPC   C39 3589   0.609   8.272   4.129
   72DPPC   C40 3590   0.592   8.124   4.092
   72DPPC   C41 3591   0.566   8.098   3.943
   72DPPC   C42 3592   0.424   8.141   3.907
   72DPPC   C43 3593   0.426   8.123   3.755
   72DPPC   C44 3594   0.308   8.196   3.692
   72DPPC   C45 3595   0.180   8.156   3.765
   72DPPC   C46 3596   0.065   8.225   3.692
   72DPPC   C47 3597  -0.069   8.170   3.741
   72DPPC   C48 3598  -0.167   8.238   3.644
   72DPPC   C49 3599  -0.311   8.201   3.681
   72DPPC   C50 3600  -0.325   8.050   3.665
   73DPPC    C1 3601   8.466   8.281   4.976
   73DPPC    C2 3602   8.377   8.166   4.779
   73DPPC    C3 3603   8.578   8.095   4.879
   73DPPC    N4 3604   8.446   8.152   4.908
   73DPPC    C5 3605   8.381   8.055   4.998
   73DPPC    C6 3606   8.257   8.091   5.081
   73DPPC    O7 3607   8.210   7.969   5.140
   73DPPC    P8 3608   8.059   7.959   5.194
   73DPPC    O9 3609   8.036   8.088   5.263
   73DPPC   O10 3610   8.045   7.826   5.258
   73DPPC   O11 3611   7.993   7.956   5.047
   73DPPC   C12 3612   8.021   7.827   4.993
   73DPPC   C13 3613   7.951   7.787   4.863
   73DPPC   O14 3614   7.996   7.860   4.748
   73DPPC   C15 3615   8.117   7.837   4.692
   73DPPC   O16 3616   8.207   7.790   4.762
   73DPPC   C17 3617   8.155   7.912   4.564
   73DPPC   C18 3618   8.190   7.813   4.453
   73DPPC   C19 3619   8.077   7.728   4.394
   73DPPC   C20 3620   8.146   7.629   4.300
   73DPPC   C21 3621   8.153   7.491   4.365
   73DPPC   C22 3622   8.211   7.388   4.268
   73DPPC   C23 3623   8.344   7.441   4.215
   73DPPC   C24 3624   8.393   7.353   4.100
   73DPPC   C25 3625   8.308   7.362   3.972
   73DPPC   C26 3626   8.381   7.313   3.847
   73DPPC   C27 3627   8.446   7.178   3.881
   73DPPC   C28 3628   8.515   7.141   3.749
   73DPPC   C29 3629   8.630   7.232   3.706
   73DPPC   C30 3630   8.688   7.199   3.568
   73DPPC   C31 3631   8.819   7.270   3.531
   73DPPC   C32 3632   7.801   7.796   4.888
   73DPPC   O33 3633   7.720   7.768   4.774
   73DPPC   C34 3634   7.729   7.641   4.727
   73DPPC   O35 3635   7.788   7.556   4.792
   73DPPC   C36 3636   7.667   7.609   4.591
   73DPPC   C37 3637   7.713   7.474   4.533
   73DPPC   C38 3638   7.640   7.435   4.405
   73DPPC   C39 3639   7.660   7.538   4.294
   73DPPC   C40 3640   7.605   7.488   4.160
   73DPPC   C41 3641   7.646   7.593   4.056
   73DPPC   C42 3642   7.637   7.535   3.914
   73DPPC   C43 3643   7.714   7.636   3.828
   73DPPC   C44 3644   7.773   7.576   3.700
   73DPPC   C45 3645   7.845   7.676   3.610
   73DPPC   C46 3646   7.753   7.794   3.579
   73DPPC   C47 3647   7.818   7.897   3.486
   73DPPC   C48 3648   7.931   7.971   3.557
   73DPPC   C49 3649   7.889   8.114   3.590
   73DPPC   C50 3650   8.020   8.182   3.630
   74DPPC    C1 3651   5.864   4.834   5.815
   74DPPC    C2 3652   5.659   4.943   5.724
   74DPPC    C3 3653   5.868   5.034   5.690
   74DPPC    N4 3654   5.800   4.905   5.704
   74DPPC    C5 3655   5.794   4.820   5.584
   74DPPC    C6 3656   5.916   4.808   5.492
   74DPPC    O7 3657   5.915   4.689   5.412
   74DPPC    P8 3658   6.073   4.672   5.390
   74DPPC    O9 3659   6.103   4.557   5.302
   74DPPC   O10 3660   6.147   4.689   5.518
   74DPPC   O11 3661   6.107   4.804   5.304
   74DPPC   C12 3662   6.215   4.770   5.217
   74DPPC   C13 3663   6.237   4.862   5.097
   74DPPC   O14 3664   6.368   4.862   5.039
   74DPPC   C15 3665   6.401   4.760   4.955
   74DPPC   O16 3666   6.336   4.656   4.964
   74DPPC   C17 3667   6.524   4.790   4.870
   74DPPC   C18 3668   6.486   4.794   4.722
   74DPPC   C19 3669   6.606   4.848   4.644
   74DPPC   C20 3670   6.562   4.854   4.497
   74DPPC   C21 3671   6.445   4.951   4.476
   74DPPC   C22 3672   6.368   4.916   4.348
   74DPPC   C23 3673   6.461   4.925   4.227
   74DPPC   C24 3674   6.379   4.915   4.099
   74DPPC   C25 3675   6.470   4.941   3.978
   74DPPC   C26 3676   6.392   4.907   3.851
   74DPPC   C27 3677   6.493   4.853   3.750
   74DPPC   C28 3678   6.432   4.785   3.627
   74DPPC   C29 3679   6.367   4.656   3.677
   74DPPC   C30 3680   6.454   4.561   3.760
   74DPPC   C31 3681   6.368   4.444   3.807
   74DPPC   C32 3682   6.209   5.001   5.155
   74DPPC   O33 3683   6.169   5.085   5.046
   74DPPC   C34 3684   6.180   5.219   5.064
   74DPPC   O35 3685   6.191   5.265   5.177
   74DPPC   C36 3686   6.175   5.317   4.947
   74DPPC   C37 3687   6.154   5.237   4.818
   74DPPC   C38 3688   6.193   5.328   4.701
   74DPPC   C39 3689   6.340   5.368   4.718
   74DPPC   C40 3690   6.392   5.446   4.597
   74DPPC   C41 3691   6.409   5.351   4.478
   74DPPC   C42 3692   6.484   5.424   4.367
   74DPPC   C43 3693   6.470   5.347   4.236
   74DPPC   C44 3694   6.551   5.406   4.121
   74DPPC   C45 3695   6.504   5.343   3.990
   74DPPC   C46 3696   6.605   5.372   3.878
   74DPPC   C47 3697   6.558   5.302   3.751
   74DPPC   C48 3698   6.674   5.303   3.651
   74DPPC   C49 3699   6.622   5.256   3.515
   74DPPC   C50 3700   6.503   5.328   3.451
   75DPPC    C1 3701   3.748   1.475   5.773
   75DPPC    C2 3702   3.722   1.536   5.535
   75DPPC    C3 3703   3.639   1.341   5.629
   75DPPC    N4 3704   3.659   1.484   5.657
   75DPPC    C5 3705   3.545   1.566   5.699
   75DPPC    C6 3706   3.450   1.640   5.605
   75DPPC    O7 3707   3.514   1.760   5.559
   75DPPC    P8 3708   3.378   1.844   5.541
   75DPPC    O9 3709   3.344   1.876   5.681
   75DPPC   O10 3710   3.298   1.765   5.445
   75DPPC   O11 3711   3.432   1.976   5.466
   75DPPC   C12 3712   3.386   1.985   5.332
   75DPPC   C13 3713   3.444   2.110   5.265
   75DPPC   O14 3714   3.411   2.123   5.126
   75DPPC   C15 3715   3.432   2.241   5.063
   75DPPC   O16 3716   3.465   2.344   5.121
   75DPPC   C17 3717   3.411   2.251   4.912
   75DPPC   C18 3718   3.530   2.305   4.832
   75DPPC   C19 3719   3.649   2.209   4.839
   75DPPC   C20 3720   3.781   2.281   4.815
   75DPPC   C21 3721   3.901   2.187   4.807
   75DPPC   C22 3722   4.020   2.282   4.790
   75DPPC   C23 3723   4.150   2.206   4.764
   75DPPC   C24 3724   4.261   2.306   4.731
   75DPPC   C25 3725   4.226   2.400   4.616
   75DPPC   C26 3726   4.339   2.457   4.531
   75DPPC   C27 3727   4.288   2.552   4.422
   75DPPC   C28 3728   4.391   2.603   4.321
   75DPPC   C29 3729   4.320   2.659   4.197
   75DPPC   C30 3730   4.420   2.730   4.106
   75DPPC   C31 3731   4.341   2.802   3.996
   75DPPC   C32 3732   3.594   2.098   5.296
   75DPPC   O33 3733   3.648   1.969   5.266
   75DPPC   C34 3734   3.783   1.954   5.263
   75DPPC   O35 3735   3.849   2.036   5.326
   75DPPC   C36 3736   3.822   1.815   5.212
   75DPPC   C37 3737   3.853   1.831   5.063
   75DPPC   C38 3738   3.902   1.703   4.995
   75DPPC   C39 3739   3.941   1.719   4.847
   75DPPC   C40 3740   3.833   1.751   4.744
   75DPPC   C41 3741   3.885   1.779   4.603
   75DPPC   C42 3742   3.763   1.814   4.517
   75DPPC   C43 3743   3.829   1.869   4.391
   75DPPC   C44 3744   3.733   1.895   4.274
   75DPPC   C45 3745   3.666   1.763   4.237
   75DPPC   C46 3746   3.578   1.774   4.112
   75DPPC   C47 3747   3.673   1.810   3.998
   75DPPC   C48 3748   3.593   1.841   3.872
   75DPPC   C49 3749   3.697   1.861   3.761
   75DPPC   C50 3750   3.626   1.927   3.643
   76DPPC    C1 3751   5.886   0.024   5.320
   76DPPC    C2 3752   5.683   0.087   5.400
   76DPPC    C3 3753   5.817   0.256   5.296
   76DPPC    N4 3754   5.775   0.115   5.289
   76DPPC    C5 3755   5.720   0.070   5.160
   76DPPC    C6 3756   5.592   0.145   5.125
   76DPPC    O7 3757   5.512   0.106   5.013
   76DPPC    P8 3758   5.404   0.225   4.995
   76DPPC    O9 3759   5.483   0.345   4.959
   76DPPC   O10 3760   5.325   0.220   5.119
   76DPPC   O11 3761   5.335   0.140   4.877
   76DPPC   C12 3762   5.381   0.184   4.749
   76DPPC   C13 3763   5.272   0.194   4.641
   76DPPC   O14 3764   5.199   0.316   4.625
   76DPPC   C15 3765   5.268   0.422   4.574
   76DPPC   O16 3766   5.391   0.419   4.583
   76DPPC   C17 3767   5.191   0.553   4.560
   76DPPC   C18 3768   5.172   0.630   4.691
   76DPPC   C19 3769   5.094   0.761   4.673
   76DPPC   C20 3770   4.966   0.738   4.592
   76DPPC   C21 3771   4.880   0.860   4.557
   76DPPC   C22 3772   4.775   0.826   4.452
   76DPPC   C23 3773   4.862   0.780   4.335
   76DPPC   C24 3774   4.785   0.770   4.203
   76DPPC   C25 3775   4.840   0.665   4.107
   76DPPC   C26 3776   4.793   0.672   3.961
   76DPPC   C27 3777   4.861   0.562   3.880
   76DPPC   C28 3778   5.013   0.584   3.877
   76DPPC   C29 3779   5.097   0.457   3.886
   76DPPC   C30 3780   5.077   0.371   3.761
   76DPPC   C31 3781   5.175   0.253   3.762
   76DPPC   C32 3782   5.210   0.054   4.632
   76DPPC   O33 3783   5.311  -0.040   4.596
   76DPPC   C34 3784   5.274  -0.169   4.619
   76DPPC   O35 3785   5.191  -0.193   4.706
   76DPPC   C36 3786   5.366  -0.280   4.569
   76DPPC   C37 3787   5.386  -0.253   4.419
   76DPPC   C38 3788   5.530  -0.293   4.389
   76DPPC   C39 3789   5.564  -0.268   4.242
   76DPPC   C40 3790   5.658  -0.370   4.177
   76DPPC   C41 3791   5.579  -0.496   4.143
   76DPPC   C42 3792   5.657  -0.601   4.063
   76DPPC   C43 3793   5.573  -0.729   4.065
   76DPPC   C44 3794   5.449  -0.703   3.981
   76DPPC   C45 3795   5.394  -0.837   3.930
   76DPPC   C46 3796   5.278  -0.800   3.838
   76DPPC   C47 3797   5.323  -0.794   3.691
   76DPPC   C48 3798   5.372  -0.929   3.640
   76DPPC   C49 3799   5.459  -0.905   3.517
   76DPPC   C50 3800   5.476  -1.034   3.437
   77DPPC    C1 3801   9.300   6.067   4.803
   77DPPC    C2 3802   9.427   5.885   4.704
   77DPPC    C3 3803   9.393   5.893   4.937
   77DPPC    N4 3804   9.329   5.923   4.807
   77DPPC    C5 3805   9.214   5.835   4.780
   77DPPC    C6 3806   9.079   5.818   4.850
   77DPPC    O7 3807   9.099   5.749   4.973
   77DPPC    P8 3808   8.979   5.770   5.078
   77DPPC    O9 3809   8.897   5.888   5.044
   77DPPC   O10 3810   9.034   5.762   5.215
   77DPPC   O11 3811   8.897   5.633   5.051
   77DPPC   C12 3812   8.961   5.510   5.086
   77DPPC   C13 3813   8.876   5.388   5.048
   77DPPC   O14 3814   8.957   5.277   5.007
   77DPPC   C15 3815   8.974   5.168   5.087
   77DPPC   O16 3816   8.974   5.184   5.209
   77DPPC   C17 3817   9.012   5.031   5.031
   77DPPC   C18 3818   8.960   5.011   4.888
   77DPPC   C19 3819   9.048   4.907   4.820
   77DPPC   C20 3820   9.194   4.954   4.815
   77DPPC   C21 3821   9.284   4.832   4.793
   77DPPC   C22 3822   9.287   4.798   4.644
   77DPPC   C23 3823   9.349   4.916   4.569
   77DPPC   C24 3824   9.349   4.878   4.420
   77DPPC   C25 3825   9.396   4.994   4.333
   77DPPC   C26 3826   9.397   4.957   4.184
   77DPPC   C27 3827   9.466   5.069   4.106
   77DPPC   C28 3828   9.455   5.015   3.963
   77DPPC   C29 3829   9.508   5.112   3.858
   77DPPC   C30 3830   9.545   5.032   3.733
   77DPPC   C31 3831   9.422   5.003   3.646
   77DPPC   C32 3832   8.793   5.435   4.928
   77DPPC   O33 3833   8.725   5.330   4.858
   77DPPC   C34 3834   8.654   5.375   4.752
   77DPPC   O35 3835   8.677   5.486   4.705
   77DPPC   C36 3836   8.583   5.259   4.680
   77DPPC   C37 3837   8.507   5.294   4.552
   77DPPC   C38 3838   8.488   5.162   4.478
   77DPPC   C39 3839   8.505   5.201   4.331
   77DPPC   C40 3840   8.466   5.075   4.254
   77DPPC   C41 3841   8.534   4.940   4.280
   77DPPC   C42 3842   8.457   4.822   4.221
   77DPPC   C43 3843   8.522   4.687   4.252
   77DPPC   C44 3844   8.450   4.566   4.192
   77DPPC   C45 3845   8.497   4.422   4.212
   77DPPC   C46 3846   8.453   4.339   4.091
   77DPPC   C47 3847   8.505   4.401   3.961
   77DPPC   C48 3848   8.484   4.323   3.832
   77DPPC   C49 3849   8.552   4.389   3.712
   77DPPC   C50 3850   8.546   4.303   3.586
   78DPPC    C1 3851   1.043   5.327   5.294
   78DPPC    C2 3852   1.138   5.147   5.206
   78DPPC    C3 3853   1.193   5.378   5.131
   78DPPC    N4 3854   1.175   5.285   5.243
   78DPPC    C5 3855   1.266   5.309   5.356
   78DPPC    C6 3856   1.408   5.252   5.343
   78DPPC    O7 3857   1.421   5.110   5.345
   78DPPC    P8 3858   1.572   5.067   5.308
   78DPPC    O9 3859   1.604   4.940   5.377
   78DPPC   O10 3860   1.645   5.193   5.334
   78DPPC   O11 3861   1.541   5.062   5.150
   78DPPC   C12 3862   1.486   4.934   5.117
   78DPPC   C13 3863   1.402   4.921   4.990
   78DPPC   O14 3864   1.336   4.797   4.962
   78DPPC   C15 3865   1.224   4.760   5.029
   78DPPC   O16 3866   1.143   4.837   5.081
   78DPPC   C17 3867   1.173   4.626   4.976
   78DPPC   C18 3868   1.109   4.632   4.838
   78DPPC   C19 3869   1.057   4.492   4.807
   78DPPC   C20 3870   1.005   4.495   4.663
   78DPPC   C21 3871   1.128   4.528   4.577
   78DPPC   C22 3872   1.111   4.575   4.432
   78DPPC   C23 3873   1.248   4.575   4.364
   78DPPC   C24 3874   1.237   4.602   4.214
   78DPPC   C25 3875   1.156   4.496   4.139
   78DPPC   C26 3876   1.143   4.541   3.994
   78DPPC   C27 3877   1.292   4.552   3.960
   78DPPC   C28 3878   1.301   4.628   3.828
   78DPPC   C29 3879   1.432   4.603   3.752
   78DPPC   C30 3880   1.425   4.462   3.692
   78DPPC   C31 3881   1.554   4.425   3.617
   78DPPC   C32 3882   1.501   4.958   4.879
   78DPPC   O33 3883   1.444   4.975   4.749
   78DPPC   C34 3884   1.539   5.016   4.661
   78DPPC   O35 3885   1.655   4.982   4.680
   78DPPC   C36 3886   1.494   5.106   4.545
   78DPPC   C37 3887   1.385   5.036   4.464
   78DPPC   C38 3888   1.447   4.933   4.369
   78DPPC   C39 3889   1.526   5.024   4.274
   78DPPC   C40 3890   1.620   4.942   4.186
   78DPPC   C41 3891   1.553   4.859   4.076
   78DPPC   C42 3892   1.659   4.787   3.992
   78DPPC   C43 3893   1.742   4.896   3.924
   78DPPC   C44 3894   1.845   4.839   3.826
   78DPPC   C45 3895   1.885   4.944   3.723
   78DPPC   C46 3896   1.939   5.067   3.796
   78DPPC   C47 3897   1.986   5.181   3.706
   78DPPC   C48 3898   2.055   5.292   3.786
   78DPPC   C49 3899   2.201   5.255   3.816
   78DPPC   C50 3900   2.281   5.377   3.861
   79DPPC    C1 3901   0.057   3.600   6.115
   79DPPC    C2 3902   0.078   3.602   5.880
   79DPPC    C3 3903  -0.145   3.574   5.978
   79DPPC    N4 3904  -0.012   3.636   5.991
   79DPPC    C5 3905  -0.009   3.783   5.986
   79DPPC    C6 3906  -0.109   3.864   5.903
   79DPPC    O7 3907  -0.069   3.862   5.766
   79DPPC    P8 3908  -0.195   3.937   5.700
   79DPPC    O9 3909  -0.207   4.070   5.764
   79DPPC   O10 3910  -0.301   3.834   5.694
   79DPPC   O11 3911  -0.122   3.944   5.556
   79DPPC   C12 3912  -0.067   3.818   5.517
   79DPPC   C13 3913  -0.019   3.820   5.372
   79DPPC   O14 3914   0.018   3.686   5.336
   79DPPC   C15 3915  -0.064   3.583   5.303
   79DPPC   O16 3916  -0.174   3.580   5.358
   79DPPC   C17 3917  -0.010   3.468   5.219
   79DPPC   C18 3918   0.009   3.512   5.073
   79DPPC   C19 3919   0.019   3.387   4.985
   79DPPC   C20 3920  -0.002   3.425   4.838
   79DPPC   C21 3921   0.011   3.301   4.750
   79DPPC   C22 3922  -0.025   3.348   4.609
   79DPPC   C23 3923  -0.043   3.232   4.510
   79DPPC   C24 3924  -0.093   3.282   4.375
   79DPPC   C25 3925  -0.112   3.169   4.274
   79DPPC   C26 3926  -0.112   3.235   4.136
   79DPPC   C27 3927  -0.137   3.138   4.021
   79DPPC   C28 3928  -0.130   3.224   3.895
   79DPPC   C29 3929  -0.170   3.139   3.774
   79DPPC   C30 3930  -0.081   3.017   3.755
   79DPPC   C31 3931  -0.113   2.947   3.622
   79DPPC   C32 3932   0.098   3.918   5.384
   79DPPC   O33 3933   0.141   3.975   5.260
   79DPPC   C34 3934   0.236   4.071   5.266
   79DPPC   O35 3935   0.265   4.112   5.378
   79DPPC   C36 3936   0.303   4.122   5.138
   79DPPC   C37 3937   0.214   4.128   5.013
   79DPPC   C38 3938   0.303   4.143   4.890
   79DPPC   C39 3939   0.212   4.125   4.769
   79DPPC   C40 3940   0.106   4.233   4.740
   79DPPC   C41 3941   0.012   4.189   4.628
   79DPPC   C42 3942   0.075   4.189   4.489
   79DPPC   C43 3943  -0.030   4.131   4.393
   79DPPC   C44 3944   0.026   4.149   4.251
   79DPPC   C45 3945  -0.098   4.121   4.166
   79DPPC   C46 3946  -0.062   4.193   4.036
   79DPPC   C47 3947  -0.171   4.206   3.929
   79DPPC   C48 3948  -0.103   4.257   3.802
   79DPPC   C49 3949  -0.199   4.239   3.684
   79DPPC   C50 3950  -0.132   4.267   3.549
   80DPPC    C1 3951   0.560   4.392   5.711
   80DPPC    C2 3952   0.714   4.471   5.892
   80DPPC    C3 3953   0.586   4.277   5.918
   80DPPC    N4 3954   0.655   4.359   5.817
   80DPPC    C5 3955   0.760   4.280   5.751
   80DPPC    C6 3956   0.855   4.347   5.652
   80DPPC    O7 3957   0.973   4.268   5.633
   80DPPC    P8 3958   1.072   4.371   5.558
   80DPPC    O9 3959   1.207   4.321   5.591
   80DPPC   O10 3960   1.028   4.511   5.579
   80DPPC   O11 3961   1.011   4.311   5.421
   80DPPC   C12 3962   1.039   4.414   5.326
   80DPPC   C13 3963   0.979   4.373   5.191
   80DPPC   O14 3964   0.838   4.352   5.189
   80DPPC   C15 3965   0.750   4.454   5.170
   80DPPC   O16 3966   0.772   4.565   5.219
   80DPPC   C17 3967   0.614   4.404   5.124
   80DPPC   C18 3968   0.612   4.400   4.971
   80DPPC   C19 3969   0.646   4.527   4.893
   80DPPC   C20 3970   0.626   4.532   4.741
   80DPPC   C21 3971   0.671   4.663   4.676
   80DPPC   C22 3972   0.620   4.652   4.532
   80DPPC   C23 3973   0.738   4.614   4.441
   80DPPC   C24 3974   0.684   4.593   4.300
   80DPPC   C25 3975   0.806   4.540   4.224
   80DPPC   C26 3976   0.788   4.483   4.083
   80DPPC   C27 3977   0.748   4.582   3.974
   80DPPC   C28 3978   0.713   4.504   3.847
   80DPPC   C29 3979   0.697   4.586   3.719
   80DPPC   C30 3980   0.648   4.506   3.598
   80DPPC   C31 3981   0.642   4.584   3.467
   80DPPC   C32 3982   1.062   4.254   5.142
   80DPPC   O33 3983   1.177   4.291   5.064
   80DPPC   C34 3984   1.235   4.187   4.999
   80DPPC   O35 3985   1.187   4.076   5.020
   80DPPC   C36 3986   1.343   4.224   4.897
   80DPPC   C37 3987   1.329   4.130   4.777
   80DPPC   C38 3988   1.225   4.165   4.670
   80DPPC   C39 3989   1.210   4.055   4.565
   80DPPC   C40 3990   1.093   4.090   4.472
   80DPPC   C41 3991   1.064   3.974   4.377
   80DPPC   C42 3992   0.988   4.005   4.249
   80DPPC   C43 3993   1.025   4.111   4.145
   80DPPC   C44 3994   0.960   4.093   4.008
   80DPPC   C45 3995   1.017   4.159   3.882
   80DPPC   C46 3996   0.923   4.156   3.761
   80DPPC   C47 3997   1.004   4.103   3.642
   80DPPC   C48 3998   0.910   4.081   3.524
   80DPPC   C49 3999   0.983   4.011   3.410
   80DPPC   C50 4000   0.886   3.964   3.301
   81DPPC    C1 4001   5.913   4.189   5.396
   81DPPC    C2 4002   5.707   4.152   5.515
   81DPPC    C3 4003   5.882   4.263   5.619
   81DPPC    N4 4004   5.815   4.249   5.488
   81DPPC    C5 4005   5.759   4.370   5.427
   81DPPC    C6 4006   5.689   4.473   5.515
   81DPPC    O7 4007   5.590   4.422   5.606
   81DPPC    P8 4008   5.560   4.530   5.721
   81DPPC    O9 4009   5.697   4.578   5.750
   81DPPC   O10 4010   5.465   4.483   5.824
   81DPPC   O11 4011   5.491   4.650   5.638
   81DPPC   C12 4012   5.373   4.603   5.571
   81DPPC   C13 4013   5.289   4.717   5.513
   81DPPC   O14 4014   5.176   4.681   5.432
   81DPPC   C15 4015   5.057   4.668   5.495
   81DPPC   O16 4016   5.046   4.720   5.606
   81DPPC   C17 4017   4.931   4.618   5.424
   81DPPC   C18 4018   4.945   4.609   5.272
   81DPPC   C19 4019   4.818   4.563   5.202
   81DPPC   C20 4020   4.773   4.430   5.264
   81DPPC   C21 4021   4.644   4.378   5.198
   81DPPC   C22 4022   4.671   4.323   5.058
   81DPPC   C23 4023   4.534   4.313   4.991
   81DPPC   C24 4024   4.549   4.313   4.839
   81DPPC   C25 4025   4.409   4.278   4.789
   81DPPC   C26 4026   4.294   4.374   4.819
   81DPPC   C27 4027   4.166   4.303   4.774
   81DPPC   C28 4028   4.173   4.267   4.626
   81DPPC   C29 4029   4.085   4.147   4.588
   81DPPC   C30 4030   4.137   4.103   4.452
   81DPPC   C31 4031   4.056   3.999   4.374
   81DPPC   C32 4032   5.388   4.808   5.440
   81DPPC   O33 4033   5.475   4.761   5.336
   81DPPC   C34 4034   5.588   4.829   5.302
   81DPPC   O35 4035   5.613   4.940   5.348
   81DPPC   C36 4036   5.655   4.779   5.174
   81DPPC   C37 4037   5.629   4.631   5.142
   81DPPC   C38 4038   5.725   4.599   5.027
   81DPPC   C39 4039   5.723   4.450   4.992
   81DPPC   C40 4040   5.866   4.408   4.955
   81DPPC   C41 4041   5.903   4.261   4.934
   81DPPC   C42 4042   5.830   4.194   4.817
   81DPPC   C43 4043   5.871   4.249   4.680
   81DPPC   C44 4044   5.801   4.195   4.555
   81DPPC   C45 4045   5.835   4.245   4.415
   81DPPC   C46 4046   5.738   4.160   4.332
   81DPPC   C47 4047   5.722   4.212   4.189
   81DPPC   C48 4048   5.848   4.171   4.112
   81DPPC   C49 4049   5.845   4.229   3.971
   81DPPC   C50 4050   5.971   4.218   3.883
   82DPPC    C1 4051   9.166   5.635   5.494
   82DPPC    C2 4052   9.373   5.539   5.536
   82DPPC    C3 4053   9.188   5.456   5.639
   82DPPC    N4 4054   9.232   5.505   5.508
   82DPPC    C5 4055   9.207   5.425   5.387
   82DPPC    C6 4056   9.263   5.284   5.368
   82DPPC    O7 4057   9.404   5.292   5.348
   82DPPC    P8 4058   9.453   5.148   5.293
   82DPPC    O9 4059   9.384   5.046   5.375
   82DPPC   O10 4060   9.601   5.148   5.287
   82DPPC   O11 4061   9.391   5.163   5.145
   82DPPC   C12 4062   9.487   5.215   5.052
   82DPPC   C13 4063   9.445   5.184   4.908
   82DPPC   O14 4064   9.560   5.171   4.823
   82DPPC   C15 4065   9.622   5.051   4.808
   82DPPC   O16 4066   9.625   4.975   4.905
   82DPPC   C17 4067   9.752   5.058   4.728
   82DPPC   C18 4068   9.715   5.057   4.579
   82DPPC   C19 4069   9.835   5.071   4.486
   82DPPC   C20 4070   9.786   5.068   4.341
   82DPPC   C21 4071   9.912   5.072   4.255
   82DPPC   C22 4072   9.867   5.009   4.123
   82DPPC   C23 4073   9.960   5.063   4.015
   82DPPC   C24 4074   9.955   4.973   3.891
   82DPPC   C25 4075  10.048   5.029   3.783
   82DPPC   C26 4076  10.033   4.962   3.646
   82DPPC   C27 4077  10.122   5.028   3.539
   82DPPC   C28 4078  10.110   4.960   3.403
   82DPPC   C29 4079  10.157   5.046   3.286
   82DPPC   C30 4080  10.063   5.166   3.287
   82DPPC   C31 4081  10.097   5.259   3.170
   82DPPC   C32 4082   9.351   5.300   4.872
   82DPPC   O33 4083   9.257   5.267   4.770
   82DPPC   C34 4084   9.179   5.376   4.743
   82DPPC   O35 4085   9.206   5.489   4.782
   82DPPC   C36 4086   9.072   5.348   4.637
   82DPPC   C37 4087   9.131   5.353   4.496
   82DPPC   C38 4088   9.024   5.301   4.400
   82DPPC   C39 4089   9.032   5.149   4.404
   82DPPC   C40 4090   8.910   5.076   4.347
   82DPPC   C41 4091   8.866   5.124   4.209
   82DPPC   C42 4092   8.938   5.056   4.092
   82DPPC   C43 4093   8.870   5.102   3.962
   82DPPC   C44 4094   8.948   5.032   3.851
   82DPPC   C45 4095   8.900   5.061   3.709
   82DPPC   C46 4096   9.002   5.009   3.607
   82DPPC   C47 4097   9.073   4.875   3.627
   82DPPC   C48 4098   8.968   4.763   3.623
   82DPPC   C49 4099   9.026   4.622   3.616
   82DPPC   C50 4100   9.137   4.614   3.511
   83DPPC    C1 4101   7.579   5.231   5.856
   83DPPC    C2 4102   7.693   5.027   5.861
   83DPPC    C3 4103   7.467   5.027   5.876
   83DPPC    N4 4104   7.575   5.094   5.804
   83DPPC    C5 4105   7.572   5.103   5.657
   83DPPC    C6 4106   7.536   4.983   5.570
   83DPPC    O7 4107   7.640   4.885   5.564
   83DPPC    P8 4108   7.606   4.778   5.448
   83DPPC    O9 4109   7.460   4.757   5.454
   83DPPC   O10 4110   7.709   4.678   5.484
   83DPPC   O11 4111   7.648   4.860   5.316
   83DPPC   C12 4112   7.776   4.818   5.269
   83DPPC   C13 4113   7.875   4.924   5.220
   83DPPC   O14 4114   7.850   4.987   5.094
   83DPPC   C15 4115   7.909   5.108   5.073
   83DPPC   O16 4116   7.987   5.159   5.153
   83DPPC   C17 4117   7.907   5.156   4.928
   83DPPC   C18 4118   7.771   5.212   4.884
   83DPPC   C19 4119   7.746   5.239   4.736
   83DPPC   C20 4120   7.849   5.332   4.670
   83DPPC   C21 4121   7.855   5.323   4.517
   83DPPC   C22 4122   7.729   5.380   4.451
   83DPPC   C23 4123   7.758   5.388   4.301
   83DPPC   C24 4124   7.643   5.449   4.221
   83DPPC   C25 4125   7.671   5.438   4.071
   83DPPC   C26 4126   7.553   5.480   3.982
   83DPPC   C27 4127   7.578   5.461   3.832
   83DPPC   C28 4128   7.450   5.499   3.756
   83DPPC   C29 4129   7.469   5.491   3.604
   83DPPC   C30 4130   7.454   5.352   3.543
   83DPPC   C31 4131   7.486   5.344   3.394
   83DPPC   C32 4132   8.006   4.845   5.221
   83DPPC   O33 4133   8.007   4.726   5.141
   83DPPC   C34 4134   8.132   4.679   5.114
   83DPPC   O35 4135   8.235   4.735   5.149
   83DPPC   C36 4136   8.139   4.550   5.032
   83DPPC   C37 4137   8.259   4.543   4.937
   83DPPC   C38 4138   8.234   4.450   4.818
   83DPPC   C39 4139   8.367   4.424   4.747
   83DPPC   C40 4140   8.431   4.552   4.695
   83DPPC   C41 4141   8.558   4.503   4.625
   83DPPC   C42 4142   8.659   4.618   4.614
   83DPPC   C43 4143   8.773   4.589   4.517
   83DPPC   C44 4144   8.861   4.708   4.478
   83DPPC   C45 4145   8.996   4.655   4.431
   83DPPC   C46 4146   8.990   4.671   4.279
   83DPPC   C47 4147   9.118   4.623   4.209
   83DPPC   C48 4148   9.125   4.651   4.059
   83DPPC   C49 4149   9.268   4.615   4.018
   83DPPC   C50 4150   9.301   4.642   3.871
   84DPPC    C1 4151   0.842   7.176   4.622
   84DPPC    C2 4152   0.657   7.237   4.496
   84DPPC    C3 4153   0.709   7.003   4.523
   84DPPC    N4 4154   0.704   7.134   4.590
   84DPPC    C5 4155   0.618   7.146   4.708
   84DPPC    C6 4156   0.484   7.073   4.715
   84DPPC    O7 4157   0.370   7.117   4.640
   84DPPC    P8 4158   0.243   7.033   4.693
   84DPPC    O9 4159   0.224   7.055   4.838
   84DPPC   O10 4160   0.280   6.898   4.645
   84DPPC   O11 4161   0.123   7.100   4.610
   84DPPC   C12 4162   0.089   7.004   4.510
   84DPPC   C13 4163  -0.031   7.057   4.431
   84DPPC   O14 4164  -0.077   6.965   4.331
   84DPPC   C15 4165  -0.132   6.844   4.360
   84DPPC   O16 4166  -0.094   6.780   4.458
   84DPPC   C17 4167  -0.213   6.785   4.244
   84DPPC   C18 4168  -0.161   6.840   4.111
   84DPPC   C19 4169  -0.268   6.817   4.004
   84DPPC   C20 4170  -0.390   6.887   4.065
   84DPPC   C21 4171  -0.515   6.844   3.988
   84DPPC   C22 4172  -0.633   6.857   4.083
   84DPPC   C23 4173  -0.752   6.782   4.022
   84DPPC   C24 4174  -0.884   6.827   4.086
   84DPPC   C25 4175  -1.008   6.751   4.040
   84DPPC   C26 4176  -1.137   6.793   4.110
   84DPPC   C27 4177  -1.258   6.706   4.076
   84DPPC   C28 4178  -1.376   6.775   4.145
   84DPPC   C29 4179  -1.512   6.706   4.130
   84DPPC   C30 4180  -1.602   6.781   4.228
   84DPPC   C31 4181  -1.753   6.760   4.214
   84DPPC   C32 4182  -0.004   7.193   4.368
   84DPPC   O33 4183   0.065   7.204   4.244
   84DPPC   C34 4184   0.087   7.335   4.213
   84DPPC   O35 4185   0.034   7.428   4.273
   84DPPC   C36 4186   0.134   7.355   4.068
   84DPPC   C37 4187   0.277   7.303   4.052
   84DPPC   C38 4188   0.322   7.313   3.906
   84DPPC   C39 4189   0.228   7.231   3.817
   84DPPC   C40 4190   0.228   7.092   3.880
   84DPPC   C41 4191   0.151   6.998   3.789
   84DPPC   C42 4192   0.176   6.851   3.825
   84DPPC   C43 4193   0.327   6.824   3.816
   84DPPC   C44 4194   0.360   6.684   3.867
   84DPPC   C45 4195   0.509   6.682   3.905
   84DPPC   C46 4196   0.542   6.800   3.996
   84DPPC   C47 4197   0.681   6.773   4.054
   84DPPC   C48 4198   0.770   6.756   3.930
   84DPPC   C49 4199   0.899   6.837   3.935
   84DPPC   C50 4200   0.981   6.824   3.806
   85DPPC    C1 4201   8.288   7.424   4.748
   85DPPC    C2 4202   8.217   7.482   4.959
   85DPPC    C3 4203   8.376   7.309   4.921
   85DPPC    N4 4204   8.339   7.446   4.884
   85DPPC    C5 4205   8.440   7.551   4.869
   85DPPC    C6 4206   8.531   7.606   4.980
   85DPPC    O7 4207   8.644   7.524   5.010
   85DPPC    P8 4208   8.784   7.604   5.014
   85DPPC    O9 4209   8.877   7.507   5.074
   85DPPC   O10 4210   8.751   7.737   5.070
   85DPPC   O11 4211   8.798   7.602   4.853
   85DPPC   C12 4212   8.826   7.467   4.816
   85DPPC   C13 4213   8.824   7.438   4.666
   85DPPC   O14 4214   8.795   7.301   4.636
   85DPPC   C15 4215   8.670   7.255   4.611
   85DPPC   O16 4216   8.571   7.315   4.652
   85DPPC   C17 4217   8.663   7.126   4.528
   85DPPC   C18 4218   8.530   7.094   4.460
   85DPPC   C19 4219   8.460   6.987   4.544
   85DPPC   C20 4220   8.323   6.959   4.481
   85DPPC   C21 4221   8.230   7.074   4.519
   85DPPC   C22 4222   8.093   7.058   4.453
   85DPPC   C23 4223   7.972   7.135   4.506
   85DPPC   C24 4224   7.868   7.119   4.395
   85DPPC   C25 4225   7.913   7.159   4.254
   85DPPC   C26 4226   7.801   7.151   4.151
   85DPPC   C27 4227   7.842   7.209   4.016
   85DPPC   C28 4228   7.964   7.145   3.951
   85DPPC   C29 4229   7.977   7.177   3.802
   85DPPC   C30 4230   8.102   7.108   3.746
   85DPPC   C31 4231   8.121   7.146   3.599
   85DPPC   C32 4232   8.955   7.494   4.610
   85DPPC   O33 4233   8.962   7.533   4.473
   85DPPC   C34 4234   9.076   7.596   4.432
   85DPPC   O35 4235   9.162   7.639   4.509
   85DPPC   C36 4236   9.081   7.623   4.282
   85DPPC   C37 4237   9.223   7.649   4.232
   85DPPC   C38 4238   9.231   7.726   4.100
   85DPPC   C39 4239   9.376   7.737   4.050
   85DPPC   C40 4240   9.379   7.800   3.911
   85DPPC   C41 4241   9.489   7.739   3.825
   85DPPC   C42 4242   9.478   7.786   3.680
   85DPPC   C43 4243   9.581   7.699   3.608
   85DPPC   C44 4244   9.594   7.701   3.455
   85DPPC   C45 4245   9.708   7.610   3.409
   85DPPC   C46 4246   9.683   7.462   3.439
   85DPPC   C47 4247   9.774   7.356   3.378
   85DPPC   C48 4248   9.700   7.224   3.400
   85DPPC   C49 4249   9.738   7.111   3.304
   85DPPC   C50 4250   9.886   7.081   3.326
   86DPPC    C1 4251   7.160   7.301   5.547
   86DPPC    C2 4252   7.367   7.267   5.408
   86DPPC    C3 4253   7.336   7.430   5.573
   86DPPC    N4 4254   7.307   7.290   5.540
   86DPPC    C5 4255   7.369   7.206   5.643
   86DPPC    C6 4256   7.360   7.054   5.623
   86DPPC    O7 4257   7.227   7.003   5.607
   86DPPC    P8 4258   7.238   6.845   5.575
   86DPPC    O9 4259   7.137   6.801   5.673
   86DPPC   O10 4260   7.379   6.801   5.574
   86DPPC   O11 4261   7.170   6.866   5.431
   86DPPC   C12 4262   7.256   6.861   5.317
   86DPPC   C13 4263   7.179   6.841   5.187
   86DPPC   O14 4264   7.270   6.846   5.076
   86DPPC   C15 4265   7.234   6.774   4.966
   86DPPC   O16 4266   7.145   6.690   4.977
   86DPPC   C17 4267   7.349   6.766   4.865
   86DPPC   C18 4268   7.310   6.716   4.726
   86DPPC   C19 4269   7.407   6.767   4.619
   86DPPC   C20 4270   7.341   6.738   4.484
   86DPPC   C21 4271   7.426   6.799   4.372
   86DPPC   C22 4272   7.403   6.950   4.364
   86DPPC   C23 4273   7.298   7.013   4.273
   86DPPC   C24 4274   7.302   7.165   4.294
   86DPPC   C25 4275   7.213   7.246   4.200
   86DPPC   C26 4276   7.268   7.239   4.058
   86DPPC   C27 4277   7.180   7.334   3.977
   86DPPC   C28 4278   7.236   7.367   3.838
   86DPPC   C29 4279   7.283   7.255   3.747
   86DPPC   C30 4280   7.355   7.303   3.620
   86DPPC   C31 4281   7.250   7.366   3.528
   86DPPC   C32 4282   7.063   6.940   5.177
   86DPPC   O33 4283   7.095   7.078   5.162
   86DPPC   C34 4284   6.990   7.163   5.182
   86DPPC   O35 4285   6.876   7.121   5.202
   86DPPC   C36 4286   7.033   7.309   5.198
   86DPPC   C37 4287   7.024   7.381   5.063
   86DPPC   C38 4288   6.884   7.422   5.016
   86DPPC   C39 4289   6.889   7.468   4.871
   86DPPC   C40 4290   6.977   7.593   4.873
   86DPPC   C41 4291   7.065   7.591   4.747
   86DPPC   C42 4292   7.142   7.721   4.724
   86DPPC   C43 4293   7.239   7.742   4.841
   86DPPC   C44 4294   7.323   7.868   4.818
   86DPPC   C45 4295   7.218   7.980   4.819
   86DPPC   C46 4296   7.261   8.113   4.755
   86DPPC   C47 4297   7.159   8.227   4.760
   86DPPC   C48 4298   7.239   8.340   4.695
   86DPPC   C49 4299   7.149   8.464   4.699
   86DPPC   C50 4300   7.207   8.561   4.596
   87DPPC    C1 4301   5.185   4.625   5.960
   87DPPC    C2 4302   5.029   4.488   6.069
   87DPPC    C3 4303   4.971   4.648   5.909
   87DPPC    N4 4304   5.067   4.541   5.937
   87DPPC    C5 4305   5.081   4.447   5.825
   87DPPC    C6 4306   5.197   4.348   5.823
   87DPPC    O7 4307   5.162   4.241   5.911
   87DPPC    P8 4308   5.280   4.134   5.935
   87DPPC    O9 4309   5.213   4.002   5.948
   87DPPC   O10 4310   5.357   4.201   6.042
   87DPPC   O11 4311   5.348   4.146   5.790
   87DPPC   C12 4312   5.311   4.034   5.709
   87DPPC   C13 4313   5.243   4.070   5.577
   87DPPC   O14 4314   5.195   3.955   5.506
   87DPPC   C15 4315   5.064   3.921   5.522
   87DPPC   O16 4316   4.992   3.961   5.613
   87DPPC   C17 4317   5.013   3.804   5.438
   87DPPC   C18 4318   4.891   3.829   5.350
   87DPPC   C19 4319   4.850   3.716   5.255
   87DPPC   C20 4320   4.958   3.696   5.148
   87DPPC   C21 4321   4.911   3.586   5.052
   87DPPC   C22 4322   5.027   3.556   4.957
   87DPPC   C23 4323   5.072   3.687   4.893
   87DPPC   C24 4324   5.196   3.665   4.805
   87DPPC   C25 4325   5.168   3.612   4.664
   87DPPC   C26 4326   5.079   3.709   4.586
   87DPPC   C27 4327   5.038   3.642   4.454
   87DPPC   C28 4328   4.920   3.710   4.383
   87DPPC   C29 4329   4.890   3.626   4.258
   87DPPC   C30 4330   4.758   3.681   4.204
   87DPPC   C31 4331   4.727   3.622   4.067
   87DPPC   C32 4332   5.333   4.167   5.501
   87DPPC   O33 4333   5.250   4.248   5.418
   87DPPC   C34 4334   5.320   4.315   5.322
   87DPPC   O35 4335   5.443   4.312   5.318
   87DPPC   C36 4336   5.237   4.361   5.202
   87DPPC   C37 4337   5.220   4.250   5.097
   87DPPC   C38 4338   5.135   4.137   5.155
   87DPPC   C39 4339   5.086   4.037   5.050
   87DPPC   C40 4340   4.981   4.108   4.965
   87DPPC   C41 4341   4.925   4.020   4.853
   87DPPC   C42 4342   4.802   4.075   4.780
   87DPPC   C43 4343   4.790   4.015   4.640
   87DPPC   C44 4344   4.660   4.073   4.585
   87DPPC   C45 4345   4.651   4.032   4.438
   87DPPC   C46 4346   4.549   4.125   4.372
   87DPPC   C47 4347   4.536   4.114   4.220
   87DPPC   C48 4348   4.504   3.968   4.189
   87DPPC   C49 4349   4.475   3.966   4.039
   87DPPC   C50 4350   4.359   4.050   3.986
   88DPPC    C1 4351   7.926   6.676   5.433
   88DPPC    C2 4352   7.793   6.492   5.504
   88DPPC    C3 4353   7.817   6.693   5.638
   88DPPC    N4 4354   7.802   6.639   5.503
   88DPPC    C5 4355   7.684   6.682   5.425
   88DPPC    C6 4356   7.644   6.829   5.418
   88DPPC    O7 4357   7.744   6.914   5.361
   88DPPC    P8 4358   7.700   7.069   5.361
   88DPPC    O9 4359   7.819   7.144   5.316
   88DPPC   O10 4360   7.624   7.101   5.484
   88DPPC   O11 4361   7.596   7.059   5.238
   88DPPC   C12 4362   7.661   7.014   5.119
   88DPPC   C13 4363   7.587   6.980   4.989
   88DPPC   O14 4364   7.676   6.953   4.879
   88DPPC   C15 4365   7.728   6.830   4.855
   88DPPC   O16 4366   7.720   6.753   4.950
   88DPPC   C17 4367   7.781   6.793   4.716
   88DPPC   C18 4368   7.770   6.643   4.686
   88DPPC   C19 4369   7.876   6.616   4.578
   88DPPC   C20 4370   7.873   6.470   4.533
   88DPPC   C21 4371   7.984   6.456   4.429
   88DPPC   C22 4372   7.937   6.386   4.301
   88DPPC   C23 4373   8.062   6.337   4.229
   88DPPC   C24 4374   8.027   6.279   4.091
   88DPPC   C25 4375   8.146   6.217   4.019
   88DPPC   C26 4376   8.117   6.207   3.869
   88DPPC   C27 4377   8.239   6.157   3.791
   88DPPC   C28 4378   8.195   6.088   3.662
   88DPPC   C29 4379   8.130   6.189   3.568
   88DPPC   C30 4380   8.119   6.150   3.421
   88DPPC   C31 4381   8.099   6.263   3.319
   88DPPC   C32 4382   7.500   7.103   4.965
   88DPPC   O33 4383   7.381   7.085   4.887
   88DPPC   C34 4384   7.300   7.195   4.891
   88DPPC   O35 4385   7.342   7.295   4.948
   88DPPC   C36 4386   7.158   7.175   4.839
   88DPPC   C37 4387   7.149   7.196   4.688
   88DPPC   C38 4388   7.014   7.156   4.628
   88DPPC   C39 4389   6.991   7.005   4.637
   88DPPC   C40 4390   6.844   6.975   4.603
   88DPPC   C41 4391   6.826   6.831   4.650
   88DPPC   C42 4392   6.678   6.791   4.654
   88DPPC   C43 4393   6.616   6.789   4.514
   88DPPC   C44 4394   6.480   6.720   4.503
   88DPPC   C45 4395   6.396   6.761   4.381
   88DPPC   C46 4396   6.306   6.644   4.342
   88DPPC   C47 4397   6.242   6.667   4.205
   88DPPC   C48 4398   6.156   6.543   4.176
   88DPPC   C49 4399   6.236   6.418   4.211
   88DPPC   C50 4400   6.174   6.296   4.141
   89DPPC    C1 4401   8.895   1.171   5.646
   89DPPC    C2 4402   8.949   1.393   5.661
   89DPPC    C3 4403   9.020   1.278   5.477
   89DPPC    N4 4404   8.903   1.293   5.564
   89DPPC    C5 4405   8.792   1.331   5.476
   89DPPC    C6 4406   8.652   1.377   5.518
   89DPPC    O7 4407   8.664   1.460   5.634
   89DPPC    P8 4408   8.532   1.552   5.643
   89DPPC    O9 4409   8.562   1.668   5.730
   89DPPC   O10 4410   8.424   1.453   5.660
   89DPPC   O11 4411   8.537   1.599   5.489
   89DPPC   C12 4412   8.432   1.684   5.442
   89DPPC   C13 4413   8.477   1.757   5.316
   89DPPC   O14 4414   8.371   1.845   5.275
   89DPPC   C15 4415   8.373   1.978   5.301
   89DPPC   O16 4416   8.435   2.017   5.400
   89DPPC   C17 4417   8.286   2.069   5.213
   89DPPC   C18 4418   8.267   2.024   5.068
   89DPPC   C19 4419   8.200   2.124   4.974
   89DPPC   C20 4420   8.171   2.062   4.837
   89DPPC   C21 4421   8.105   2.161   4.741
   89DPPC   C22 4422   7.973   2.209   4.802
   89DPPC   C23 4423   7.916   2.295   4.690
   89DPPC   C24 4424   7.785   2.357   4.739
   89DPPC   C25 4425   7.709   2.442   4.637
   89DPPC   C26 4426   7.664   2.354   4.520
   89DPPC   C27 4427   7.566   2.433   4.433
   89DPPC   C28 4428   7.618   2.564   4.373
   89DPPC   C29 4429   7.514   2.616   4.273
   89DPPC   C30 4430   7.572   2.747   4.220
   89DPPC   C31 4431   7.701   2.732   4.140
   89DPPC   C32 4432   8.522   1.658   5.208
   89DPPC   O33 4433   8.591   1.731   5.106
   89DPPC   C34 4434   8.620   1.672   4.987
   89DPPC   O35 4435   8.584   1.555   4.972
   89DPPC   C36 4436   8.698   1.746   4.877
   89DPPC   C37 4437   8.600   1.815   4.782
   89DPPC   C38 4438   8.665   1.940   4.723
   89DPPC   C39 4439   8.677   1.949   4.571
   89DPPC   C40 4440   8.542   1.968   4.501
   89DPPC   C41 4441   8.570   2.008   4.355
   89DPPC   C42 4442   8.447   1.984   4.268
   89DPPC   C43 4443   8.318   2.029   4.338
   89DPPC   C44 4444   8.200   1.972   4.259
   89DPPC   C45 4445   8.080   2.043   4.321
   89DPPC   C46 4446   7.954   2.002   4.243
   89DPPC   C47 4447   7.822   2.035   4.311
   89DPPC   C48 4448   7.713   1.969   4.226
   89DPPC   C49 4449   7.577   2.022   4.274
   89DPPC   C50 4450   7.473   1.985   4.168
   90DPPC    C1 4451   6.078   3.117   6.140
   90DPPC    C2 4452   5.918   3.283   6.047
   90DPPC    C3 4453   6.045   3.331   6.214
   90DPPC    N4 4454   6.056   3.253   6.090
   90DPPC    C5 4455   6.156   3.303   5.995
   90DPPC    C6 4456   6.186   3.453   5.987
   90DPPC    O7 4457   6.091   3.529   5.912
   90DPPC    P8 4458   6.093   3.684   5.954
   90DPPC    O9 4459   6.118   3.680   6.100
   90DPPC   O10 4460   5.993   3.770   5.887
   90DPPC   O11 4461   6.234   3.711   5.881
   90DPPC   C12 4462   6.212   3.718   5.740
   90DPPC   C13 4463   6.339   3.720   5.654
   90DPPC   O14 4464   6.323   3.762   5.518
   90DPPC   C15 4465   6.259   3.878   5.485
   90DPPC   O16 4466   6.247   3.970   5.565
   90DPPC   C17 4467   6.232   3.900   5.336
   90DPPC   C18 4468   6.108   3.822   5.292
   90DPPC   C19 4469   6.052   3.872   5.158
   90DPPC   C20 4470   6.146   3.892   5.039
   90DPPC   C21 4471   6.084   3.933   4.905
   90DPPC   C22 4472   6.191   3.988   4.810
   90DPPC   C23 4473   6.153   4.016   4.665
   90DPPC   C24 4474   6.271   4.060   4.578
   90DPPC   C25 4475   6.227   4.088   4.434
   90DPPC   C26 4476   6.344   4.064   4.338
   90DPPC   C27 4477   6.303   4.100   4.195
   90DPPC   C28 4478   6.425   4.081   4.106
   90DPPC   C29 4479   6.396   4.046   3.959
   90DPPC   C30 4480   6.356   3.900   3.938
   90DPPC   C31 4481   6.488   3.823   3.941
   90DPPC   C32 4482   6.418   3.590   5.666
   90DPPC   O33 4483   6.343   3.471   5.638
   90DPPC   C34 4484   6.408   3.354   5.659
   90DPPC   O35 4485   6.507   3.355   5.732
   90DPPC   C36 4486   6.331   3.222   5.648
   90DPPC   C37 4487   6.354   3.145   5.518
   90DPPC   C38 4488   6.242   3.041   5.509
   90DPPC   C39 4489   6.230   2.977   5.371
   90DPPC   C40 4490   6.119   2.872   5.370
   90DPPC   C41 4491   6.118   2.806   5.231
   90DPPC   C42 4492   6.026   2.689   5.200
   90DPPC   C43 4493   6.018   2.661   5.050
   90DPPC   C44 4494   5.973   2.776   4.959
   90DPPC   C45 4495   5.986   2.720   4.817
   90DPPC   C46 4496   5.961   2.820   4.704
   90DPPC   C47 4497   6.026   2.766   4.577
   90DPPC   C48 4498   5.932   2.785   4.458
   90DPPC   C49 4499   5.964   2.676   4.356
   90DPPC   C50 4500   6.105   2.697   4.301
   91DPPC    C1 4501   4.517   7.123   5.565
   91DPPC    C2 4502   4.461   7.260   5.737
   91DPPC    C3 4503   4.648   7.329   5.618
   91DPPC    N4 4504   4.516   7.265   5.601
   91DPPC    C5 4505   4.415   7.346   5.530
   91DPPC    C6 4506   4.448   7.348   5.381
   91DPPC    O7 4507   4.357   7.441   5.322
   91DPPC    P8 4508   4.311   7.389   5.177
   91DPPC    O9 4509   4.242   7.507   5.120
   91DPPC   O10 4510   4.239   7.263   5.209
   91DPPC   O11 4511   4.452   7.338   5.118
   91DPPC   C12 4512   4.456   7.406   4.992
   91DPPC   C13 4513   4.574   7.356   4.909
   91DPPC   O14 4514   4.617   7.433   4.795
   91DPPC   C15 4515   4.695   7.544   4.806
   91DPPC   O16 4516   4.740   7.591   4.910
   91DPPC   C17 4517   4.760   7.579   4.672
   91DPPC   C18 4518   4.727   7.498   4.546
   91DPPC   C19 4519   4.821   7.531   4.430
   91DPPC   C20 4520   4.763   7.478   4.299
   91DPPC   C21 4521   4.835   7.547   4.183
   91DPPC   C22 4522   4.827   7.465   4.054
   91DPPC   C23 4523   4.894   7.531   3.934
   91DPPC   C24 4524   4.916   7.440   3.813
   91DPPC   C25 4525   4.965   7.525   3.696
   91DPPC   C26 4526   4.979   7.431   3.576
   91DPPC   C27 4527   5.078   7.315   3.593
   91DPPC   C28 4528   5.121   7.267   3.454
   91DPPC   C29 4529   5.228   7.157   3.456
   91DPPC   C30 4530   5.308   7.143   3.327
   91DPPC   C31 4531   5.220   7.094   3.212
   91DPPC   C32 4532   4.557   7.206   4.884
   91DPPC   O33 4533   4.419   7.169   4.874
   91DPPC   C34 4534   4.390   7.042   4.834
   91DPPC   O35 4535   4.474   6.955   4.860
   91DPPC   C36 4536   4.257   7.015   4.765
   91DPPC   C37 4537   4.276   6.913   4.652
   91DPPC   C38 4538   4.133   6.881   4.606
   91DPPC   C39 4539   4.147   6.785   4.488
   91DPPC   C40 4540   4.210   6.878   4.384
   91DPPC   C41 4541   4.252   6.798   4.261
   91DPPC   C42 4542   4.138   6.712   4.206
   91DPPC   C43 4543   4.189   6.622   4.093
   91DPPC   C44 4544   4.313   6.546   4.140
   91DPPC   C45 4545   4.334   6.428   4.044
   91DPPC   C46 4546   4.354   6.470   3.898
   91DPPC   C47 4547   4.375   6.351   3.805
   91DPPC   C48 4548   4.339   6.403   3.666
   91DPPC   C49 4549   4.343   6.280   3.574
   91DPPC   C50 4550   4.312   6.313   3.428
   92DPPC    C1 4551   1.860   5.977   5.429
   92DPPC    C2 4552   1.834   6.206   5.515
   92DPPC    C3 4553   1.802   6.032   5.653
   92DPPC    N4 4554   1.886   6.070   5.539
   92DPPC    C5 4555   2.027   6.069   5.582
   92DPPC    C6 4556   2.126   6.114   5.475
   92DPPC    O7 4557   2.186   6.005   5.405
   92DPPC    P8 4558   2.307   6.050   5.308
   92DPPC    O9 4559   2.320   5.921   5.238
   92DPPC   O10 4560   2.385   6.093   5.426
   92DPPC   O11 4561   2.216   6.153   5.223
   92DPPC   C12 4562   2.177   6.079   5.107
   92DPPC   C13 4563   2.093   6.153   5.003
   92DPPC   O14 4564   2.056   6.068   4.893
   92DPPC   C15 4565   1.924   6.037   4.886
   92DPPC   O16 4566   1.846   6.111   4.946
   92DPPC   C17 4567   1.880   5.923   4.794
   92DPPC   C18 4568   1.869   5.974   4.650
   92DPPC   C19 4569   1.890   5.843   4.575
   92DPPC   C20 4570   1.861   5.882   4.430
   92DPPC   C21 4571   1.840   5.757   4.344
   92DPPC   C22 4572   1.798   5.797   4.202
   92DPPC   C23 4573   1.794   5.674   4.111
   92DPPC   C24 4574   1.695   5.573   4.170
   92DPPC   C25 4575   1.682   5.459   4.069
   92DPPC   C26 4576   1.561   5.375   4.113
   92DPPC   C27 4577   1.536   5.289   3.990
   92DPPC   C28 4578   1.553   5.373   3.863
   92DPPC   C29 4579   1.498   5.284   3.752
   92DPPC   C30 4580   1.519   5.319   3.605
   92DPPC   C31 4581   1.475   5.466   3.596
   92DPPC   C32 4582   2.177   6.277   4.971
   92DPPC   O33 4583   2.313   6.256   4.931
   92DPPC   C34 4584   2.397   6.362   4.918
   92DPPC   O35 4585   2.403   6.465   4.984
   92DPPC   C36 4586   2.528   6.331   4.845
   92DPPC   C37 4587   2.584   6.451   4.769
   92DPPC   C38 4588   2.728   6.425   4.725
   92DPPC   C39 4589   2.742   6.313   4.622
   92DPPC   C40 4590   2.658   6.349   4.499
   92DPPC   C41 4591   2.696   6.255   4.385
   92DPPC   C42 4592   2.677   6.106   4.415
   92DPPC   C43 4593   2.678   6.028   4.283
   92DPPC   C44 4594   2.629   5.887   4.318
   92DPPC   C45 4595   2.729   5.814   4.407
   92DPPC   C46 4596   2.690   5.670   4.444
   92DPPC   C47 4597   2.782   5.604   4.547
   92DPPC   C48 4598   2.741   5.467   4.601
   92DPPC   C49 4599   2.841   5.410   4.702
   92DPPC   C50 4600   2.785   5.277   4.752
   93DPPC    C1 4601   1.340   2.764   5.059
   93DPPC    C2 4602   1.253   2.947   4.940
   93DPPC    C3 4603   1.125   2.741   4.978
   93DPPC    N4 4604   1.216   2.841   5.035
   93DPPC    C5 4605   1.165   2.874   5.169
   93DPPC    C6 4606   1.232   2.991   5.243
   93DPPC    O7 4607   1.163   3.111   5.208
   93DPPC    P8 4608   1.240   3.236   5.274
   93DPPC    O9 4609   1.325   3.183   5.383
   93DPPC   O10 4610   1.129   3.330   5.304
   93DPPC   O11 4611   1.318   3.277   5.139
   93DPPC   C12 4612   1.220   3.320   5.045
   93DPPC   C13 4613   1.256   3.438   4.954
   93DPPC   O14 4614   1.165   3.488   4.855
   93DPPC   C15 4615   1.058   3.565   4.888
   93DPPC   O16 4616   1.023   3.588   5.004
   93DPPC   C17 4617   0.975   3.607   4.767
   93DPPC   C18 4618   0.838   3.538   4.771
   93DPPC   C19 4619   0.745   3.580   4.657
   93DPPC   C20 4620   0.816   3.553   4.524
   93DPPC   C21 4621   0.755   3.587   4.388
   93DPPC   C22 4622   0.729   3.737   4.368
   93DPPC   C23 4623   0.669   3.772   4.232
   93DPPC   C24 4624   0.774   3.757   4.121
   93DPPC   C25 4625   0.720   3.807   3.987
   93DPPC   C26 4626   0.606   3.712   3.949
   93DPPC   C27 4627   0.539   3.733   3.813
   93DPPC   C28 4628   0.630   3.710   3.692
   93DPPC   C29 4629   0.546   3.741   3.567
   93DPPC   C30 4630   0.627   3.679   3.453
   93DPPC   C31 4631   0.559   3.719   3.322
   93DPPC   C32 4632   1.383   3.386   4.886
   93DPPC   O33 4633   1.358   3.283   4.790
   93DPPC   C34 4634   1.453   3.259   4.696
   93DPPC   O35 4635   1.572   3.284   4.716
   93DPPC   C36 4636   1.421   3.160   4.584
   93DPPC   C37 4637   1.279   3.174   4.529
   93DPPC   C38 4638   1.249   3.069   4.422
   93DPPC   C39 4639   1.336   3.082   4.296
   93DPPC   C40 4640   1.299   2.974   4.195
   93DPPC   C41 4641   1.382   2.989   4.067
   93DPPC   C42 4642   1.316   2.901   3.961
   93DPPC   C43 4643   1.387   2.899   3.826
   93DPPC   C44 4644   1.308   2.986   3.727
   93DPPC   C45 4645   1.393   3.014   3.603
   93DPPC   C46 4646   1.305   3.110   3.522
   93DPPC   C47 4647   1.371   3.198   3.417
   93DPPC   C48 4648   1.389   3.129   3.282
   93DPPC   C49 4649   1.420   3.213   3.158
   93DPPC   C50 4650   1.442   3.140   3.025
   94DPPC    C1 4651   3.477   6.515   5.439
   94DPPC    C2 4652   3.571   6.618   5.643
   94DPPC    C3 4653   3.340   6.605   5.617
   94DPPC    N4 4654   3.465   6.535   5.584
   94DPPC    C5 4655   3.451   6.402   5.645
   94DPPC    C6 4656   3.574   6.313   5.667
   94DPPC    O7 4657   3.645   6.280   5.547
   94DPPC    P8 4658   3.764   6.182   5.592
   94DPPC    O9 4659   3.684   6.081   5.664
   94DPPC   O10 4660   3.849   6.281   5.664
   94DPPC   O11 4661   3.800   6.154   5.438
   94DPPC   C12 4662   3.866   6.270   5.387
   94DPPC   C13 4663   3.884   6.263   5.235
   94DPPC   O14 4664   3.769   6.318   5.169
   94DPPC   C15 4665   3.768   6.452   5.145
   94DPPC   O16 4666   3.856   6.525   5.190
   94DPPC   C17 4667   3.640   6.507   5.082
   94DPPC   C18 4668   3.680   6.600   4.967
   94DPPC   C19 4669   3.545   6.633   4.903
   94DPPC   C20 4670   3.566   6.734   4.790
   94DPPC   C21 4671   3.438   6.760   4.711
   94DPPC   C22 4672   3.478   6.867   4.609
   94DPPC   C23 4673   3.595   6.824   4.521
   94DPPC   C24 4674   3.557   6.704   4.434
   94DPPC   C25 4675   3.643   6.689   4.308
   94DPPC   C26 4676   3.647   6.546   4.254
   94DPPC   C27 4677   3.696   6.556   4.110
   94DPPC   C28 4678   3.756   6.420   4.071
   94DPPC   C29 4679   3.653   6.309   4.097
   94DPPC   C30 4680   3.582   6.277   3.966
   94DPPC   C31 4681   3.493   6.154   3.986
   94DPPC   C32 4682   3.915   6.119   5.196
   94DPPC   O33 4683   3.969   6.087   5.067
   94DPPC   C34 4684   4.023   5.963   5.074
   94DPPC   O35 4685   4.013   5.904   5.182
   94DPPC   C36 4686   4.105   5.918   4.953
   94DPPC   C37 4687   4.024   5.812   4.878
   94DPPC   C38 4688   4.065   5.829   4.732
   94DPPC   C39 4689   4.195   5.755   4.700
   94DPPC   C40 4690   4.233   5.819   4.566
   94DPPC   C41 4691   4.125   5.779   4.465
   94DPPC   C42 4692   4.183   5.816   4.328
   94DPPC   C43 4693   4.309   5.739   4.288
   94DPPC   C44 4694   4.315   5.753   4.136
   94DPPC   C45 4695   4.437   5.678   4.081
   94DPPC   C46 4696   4.451   5.684   3.929
   94DPPC   C47 4697   4.548   5.576   3.881
   94DPPC   C48 4698   4.596   5.600   3.737
   94DPPC   C49 4699   4.662   5.472   3.684
   94DPPC   C50 4700   4.696   5.494   3.536
   95DPPC    C1 4701   1.114   1.849   5.598
   95DPPC    C2 4702   0.955   1.767   5.449
   95DPPC    C3 4703   0.894   1.873   5.655
   95DPPC    N4 4704   0.983   1.880   5.539
   95DPPC    C5 4705   0.981   2.005   5.461
   95DPPC    C6 4706   0.989   2.136   5.540
   95DPPC    O7 4707   1.124   2.180   5.560
   95DPPC    P8 4708   1.114   2.325   5.629
   95DPPC    O9 4709   1.257   2.354   5.648
   95DPPC   O10 4710   1.028   2.309   5.748
   95DPPC   O11 4711   1.055   2.402   5.501
   95DPPC   C12 4712   1.157   2.432   5.405
   95DPPC   C13 4713   1.093   2.476   5.274
   95DPPC   O14 4714   1.177   2.488   5.158
   95DPPC   C15 4715   1.204   2.369   5.099
   95DPPC   O16 4716   1.153   2.268   5.147
   95DPPC   C17 4717   1.322   2.358   5.002
   95DPPC   C18 4718   1.323   2.231   4.916
   95DPPC   C19 4719   1.203   2.235   4.821
   95DPPC   C20 4720   1.187   2.096   4.758
   95DPPC   C21 4721   1.071   2.096   4.659
   95DPPC   C22 4722   1.055   1.955   4.601
   95DPPC   C23 4723   0.938   1.958   4.503
   95DPPC   C24 4724   0.979   2.042   4.382
   95DPPC   C25 4725   0.867   2.040   4.277
   95DPPC   C26 4726   0.919   1.995   4.141
   95DPPC   C27 4727   0.802   1.984   4.043
   95DPPC   C28 4728   0.863   1.954   3.906
   95DPPC   C29 4729   0.762   1.917   3.797
   95DPPC   C30 4730   0.850   1.866   3.682
   95DPPC   C31 4731   0.747   1.834   3.573
   95DPPC   C32 4732   1.013   2.592   5.332
   95DPPC   O33 4733   0.939   2.665   5.234
   95DPPC   C34 4734   0.816   2.702   5.279
   95DPPC   O35 4735   0.770   2.629   5.367
   95DPPC   C36 4736   0.740   2.818   5.214
   95DPPC   C37 4737   0.770   2.834   5.065
   95DPPC   C38 4738   0.689   2.952   5.011
   95DPPC   C39 4739   0.746   2.975   4.871
   95DPPC   C40 4740   0.829   3.103   4.861
   95DPPC   C41 4741   0.896   3.110   4.724
   95DPPC   C42 4742   0.803   3.162   4.614
   95DPPC   C43 4743   0.882   3.166   4.483
   95DPPC   C44 4744   0.785   3.200   4.369
   95DPPC   C45 4745   0.869   3.231   4.245
   95DPPC   C46 4746   0.788   3.266   4.120
   95DPPC   C47 4747   0.873   3.304   3.999
   95DPPC   C48 4748   0.794   3.327   3.870
   95DPPC   C49 4749   0.717   3.200   3.831
   95DPPC   C50 4750   0.799   3.076   3.794
   96DPPC    C1 4751   2.003   8.032   4.725
   96DPPC    C2 4752   1.980   7.940   4.948
   96DPPC    C3 4753   2.149   7.858   4.797
   96DPPC    N4 4754   2.074   7.977   4.841
   96DPPC    C5 4755   2.166   8.084   4.881
   96DPPC    C6 4756   2.283   8.053   4.975
   96DPPC    O7 4757   2.337   8.174   5.028
   96DPPC    P8 4758   2.491   8.172   5.073
   96DPPC    O9 4759   2.513   8.035   5.123
   96DPPC   O10 4760   2.507   8.293   5.157
   96DPPC   O11 4761   2.547   8.187   4.923
   96DPPC   C12 4762   2.552   8.327   4.892
   96DPPC   C13 4763   2.629   8.351   4.762
   96DPPC   O14 4764   2.572   8.458   4.685
   96DPPC   C15 4765   2.616   8.585   4.707
   96DPPC   O16 4766   2.659   8.618   4.818
   96DPPC   C17 4767   2.557   8.691   4.614
   96DPPC   C18 4768   2.648   8.700   4.491
   96DPPC   C19 4769   2.567   8.774   4.384
   96DPPC   C20 4770   2.439   8.699   4.350
   96DPPC   C21 4771   2.361   8.768   4.238
   96DPPC   C22 4772   2.245   8.683   4.185
   96DPPC   C23 4773   2.215   8.707   4.036
   96DPPC   C24 4774   2.161   8.844   3.996
   96DPPC   C25 4775   2.131   8.853   3.846
   96DPPC   C26 4776   2.098   8.996   3.801
   96DPPC   C27 4777   2.137   9.007   3.654
   96DPPC   C28 4778   2.091   9.147   3.611
   96DPPC   C29 4779   2.130   9.183   3.468
   96DPPC   C30 4780   2.282   9.165   3.471
   96DPPC   C31 4781   2.333   9.157   3.327
   96DPPC   C32 4782   2.633   8.225   4.676
   96DPPC   O33 4783   2.712   8.227   4.557
   96DPPC   C34 4784   2.671   8.135   4.466
   96DPPC   O35 4785   2.593   8.044   4.491
   96DPPC   C36 4786   2.741   8.140   4.330
   96DPPC   C37 4787   2.889   8.110   4.355
   96DPPC   C38 4788   2.976   8.126   4.230
   96DPPC   C39 4789   3.122   8.093   4.263
   96DPPC   C40 4790   3.158   8.172   4.388
   96DPPC   C41 4791   3.287   8.122   4.453
   96DPPC   C42 4792   3.402   8.132   4.352
   96DPPC   C43 4793   3.530   8.114   4.434
   96DPPC   C44 4794   3.656   8.150   4.355
   96DPPC   C45 4795   3.649   8.295   4.309
   96DPPC   C46 4796   3.761   8.337   4.213
   96DPPC   C47 4797   3.748   8.485   4.175
   96DPPC   C48 4798   3.866   8.535   4.091
   96DPPC   C49 4799   3.989   8.481   4.164
   96DPPC   C50 4800   4.117   8.524   4.091
   97DPPC    C1 4801   9.528   4.414   5.801
   97DPPC    C2 4802   9.487   4.264   5.608
   97DPPC    C3 4803   9.676   4.379   5.625
   97DPPC    N4 4804   9.580   4.310   5.712
   97DPPC    C5 4805   9.614   4.200   5.804
   97DPPC    C6 4806   9.711   4.088   5.766
   97DPPC    O7 4807   9.851   4.111   5.753
   97DPPC    P8 4808   9.914   3.963   5.767
   97DPPC    O9 4809   9.811   3.868   5.720
   97DPPC   O10 4810   9.936   3.957   5.913
   97DPPC   O11 4811  10.046   3.956   5.674
   97DPPC   C12 4812   9.993   3.985   5.545
   97DPPC   C13 4813  10.070   3.912   5.435
   97DPPC   O14 4814  10.082   3.996   5.320
   97DPPC   C15 4815  10.156   3.943   5.219
   97DPPC   O16 4816  10.219   3.839   5.236
   97DPPC   C17 4817  10.199   4.037   5.106
   97DPPC   C18 4818  10.208   3.951   4.980
   97DPPC   C19 4819  10.245   4.045   4.865
   97DPPC   C20 4820  10.247   3.976   4.729
   97DPPC   C21 4821  10.235   4.071   4.609
   97DPPC   C22 4822  10.092   4.122   4.593
   97DPPC   C23 4823  10.088   4.233   4.487
   97DPPC   C24 4824   9.942   4.255   4.448
   97DPPC   C25 4825   9.913   4.344   4.327
   97DPPC   C26 4826   9.967   4.288   4.196
   97DPPC   C27 4827   9.921   4.144   4.172
   97DPPC   C28 4828   9.915   4.106   4.024
   97DPPC   C29 4829   9.816   4.201   3.957
   97DPPC   C30 4830   9.801   4.159   3.810
   97DPPC   C31 4831   9.934   4.157   3.735
   97DPPC   C32 4832  10.012   3.772   5.408
   97DPPC   O33 4833   9.914   3.780   5.304
   97DPPC   C34 4834   9.850   3.667   5.264
   97DPPC   O35 4835   9.866   3.561   5.325
   97DPPC   C36 4836   9.780   3.684   5.129
   97DPPC   C37 4837   9.879   3.698   5.014
   97DPPC   C38 4838   9.808   3.704   4.879
   97DPPC   C39 4839   9.881   3.763   4.758
   97DPPC   C40 4840   9.791   3.778   4.636
   97DPPC   C41 4841   9.873   3.793   4.507
   97DPPC   C42 4842   9.793   3.748   4.384
   97DPPC   C43 4843   9.653   3.807   4.371
   97DPPC   C44 4844   9.578   3.771   4.243
   97DPPC   C45 4845   9.655   3.799   4.114
   97DPPC   C46 4846   9.566   3.761   3.995
   97DPPC   C47 4847   9.643   3.786   3.865
   97DPPC   C48 4848   9.559   3.789   3.737
   97DPPC   C49 4849   9.643   3.794   3.609
   97DPPC   C50 4850   9.570   3.833   3.480
   98DPPC    C1 4851   7.929   4.365   5.732
   98DPPC    C2 4852   7.755   4.216   5.783
   98DPPC    C3 4853   7.777   4.451   5.877
   98DPPC    N4 4854   7.785   4.358   5.764
   98DPPC    C5 4855   7.719   4.418   5.647
   98DPPC    C6 4856   7.566   4.426   5.643
   98DPPC    O7 4857   7.496   4.301   5.644
   98DPPC    P8 4858   7.350   4.354   5.689
   98DPPC    O9 4859   7.382   4.432   5.810
   98DPPC   O10 4860   7.259   4.237   5.688
   98DPPC   O11 4861   7.311   4.441   5.559
   98DPPC   C12 4862   7.284   4.342   5.459
   98DPPC   C13 4863   7.254   4.410   5.325
   98DPPC   O14 4864   7.211   4.316   5.226
   98DPPC   C15 4865   7.081   4.317   5.185
   98DPPC   O16 4866   7.014   4.398   5.250
   98DPPC   C17 4867   7.040   4.243   5.058
   98DPPC   C18 4868   7.159   4.241   4.962
   98DPPC   C19 4869   7.184   4.369   4.882
   98DPPC   C20 4870   7.192   4.350   4.730
   98DPPC   C21 4871   7.299   4.249   4.688
   98DPPC   C22 4872   7.329   4.256   4.538
   98DPPC   C23 4873   7.387   4.390   4.493
   98DPPC   C24 4874   7.423   4.415   4.346
   98DPPC   C25 4875   7.290   4.434   4.273
   98DPPC   C26 4876   7.305   4.413   4.123
   98DPPC   C27 4877   7.406   4.510   4.061
   98DPPC   C28 4878   7.379   4.522   3.911
   98DPPC   C29 4879   7.239   4.582   3.895
   98DPPC   C30 4880   7.197   4.575   3.748
   98DPPC   C31 4881   7.298   4.631   3.648
   98DPPC   C32 4882   7.385   4.480   5.286
   98DPPC   O33 4883   7.383   4.569   5.175
   98DPPC   C34 4884   7.501   4.573   5.106
   98DPPC   O35 4885   7.602   4.517   5.149
   98DPPC   C36 4886   7.495   4.618   4.960
   98DPPC   C37 4887   7.601   4.719   4.915
   98DPPC   C38 4888   7.560   4.775   4.779
   98DPPC   C39 4889   7.657   4.754   4.663
   98DPPC   C40 4890   7.604   4.831   4.542
   98DPPC   C41 4891   7.666   4.778   4.412
   98DPPC   C42 4892   7.627   4.861   4.290
   98DPPC   C43 4893   7.697   4.807   4.165
   98DPPC   C44 4894   7.669   4.881   4.034
   98DPPC   C45 4895   7.705   4.795   3.912
   98DPPC   C46 4896   7.855   4.766   3.911
   98DPPC   C47 4897   7.887   4.693   3.780
   98DPPC   C48 4898   8.035   4.721   3.751
   98DPPC   C49 4899   8.093   4.596   3.685
   98DPPC   C50 4900   8.245   4.608   3.668
   99DPPC    C1 4901   8.338   5.446   1.274
   99DPPC    C2 4902   8.474   5.558   1.445
   99DPPC    C3 4903   8.487   5.595   1.207
   99DPPC    N4 4904   8.396   5.572   1.321
   99DPPC    C5 4905   8.301   5.684   1.327
   99DPPC    C6 4906   8.188   5.687   1.431
   99DPPC    O7 4907   8.054   5.675   1.382
   99DPPC    P8 4908   7.963   5.784   1.457
   99DPPC    O9 4909   7.828   5.799   1.398
   99DPPC   O10 4910   8.038   5.911   1.464
   99DPPC   O11 4911   7.957   5.741   1.612
   99DPPC   C12 4912   7.834   5.788   1.669
   99DPPC   C13 4913   7.833   5.792   1.822
   99DPPC   O14 4914   7.851   5.925   1.872
   99DPPC   C15 4915   7.748   6.014   1.857
   99DPPC   O16 4916   7.654   6.012   1.779
   99DPPC   C17 4917   7.750   6.137   1.949
   99DPPC   C18 4918   7.608   6.172   1.992
   99DPPC   C19 4919   7.614   6.307   2.063
   99DPPC   C20 4920   7.693   6.284   2.192
   99DPPC   C21 4921   7.671   6.412   2.273
   99DPPC   C22 4922   7.522   6.414   2.307
   99DPPC   C23 4923   7.488   6.536   2.393
   99DPPC   C24 4924   7.340   6.575   2.386
   99DPPC   C25 4925   7.320   6.700   2.472
   99DPPC   C26 4926   7.396   6.685   2.604
   99DPPC   C27 4927   7.323   6.630   2.727
   99DPPC   C28 4928   7.413   6.558   2.828
   99DPPC   C29 4929   7.325   6.536   2.951
   99DPPC   C30 4930   7.380   6.416   3.028
   99DPPC   C31 4931   7.289   6.396   3.150
   99DPPC   C32 4932   7.937   5.691   1.870
   99DPPC   O33 4933   7.885   5.568   1.921
   99DPPC   C34 4934   7.983   5.494   1.978
   99DPPC   O35 4935   8.096   5.539   1.992
   99DPPC   C36 4936   7.935   5.378   2.067
   99DPPC   C37 4937   7.995   5.389   2.207
   99DPPC   C38 4938   7.952   5.274   2.299
   99DPPC   C39 4939   8.031   5.300   2.428
   99DPPC   C40 4940   7.995   5.191   2.529
   99DPPC   C41 4941   8.082   5.193   2.655
   99DPPC   C42 4942   8.002   5.135   2.772
   99DPPC   C43 4943   7.879   5.219   2.806
   99DPPC   C44 4944   7.817   5.190   2.943
   99DPPC   C45 4945   7.756   5.051   2.964
   99DPPC   C46 4946   7.716   5.029   3.110
   99DPPC   C47 4947   7.630   4.903   3.120
   99DPPC   C48 4948   7.597   4.847   3.258
   99DPPC   C49 4949   7.486   4.741   3.252
   99DPPC   C50 4950   7.354   4.816   3.237
  100DPPC    C1 4951   4.384   4.550   2.298
  100DPPC    C2 4952   4.252   4.574   2.103
  100DPPC    C3 4953   4.171   4.463   2.299
  100DPPC    N4 4954   4.248   4.578   2.249
  100DPPC    C5 4955   4.194   4.702   2.308
  100DPPC    C6 4956   4.052   4.741   2.266
  100DPPC    O7 4957   4.030   4.881   2.284
  100DPPC    P8 4958   3.931   4.937   2.170
  100DPPC    O9 4959   3.987   4.928   2.033
  100DPPC   O10 4960   3.885   5.067   2.225
  100DPPC   O11 4961   3.801   4.843   2.185
  100DPPC   C12 4962   3.709   4.884   2.287
  100DPPC   C13 4963   3.598   4.786   2.325
  100DPPC   O14 4964   3.484   4.849   2.386
  100DPPC   C15 4965   3.413   4.948   2.327
  100DPPC   O16 4966   3.421   4.964   2.205
  100DPPC   C17 4967   3.296   4.985   2.418
  100DPPC   C18 4968   3.168   4.906   2.389
  100DPPC   C19 4969   3.135   4.799   2.493
  100DPPC   C20 4970   3.121   4.862   2.632
  100DPPC   C21 4971   3.070   4.766   2.741
  100DPPC   C22 4972   3.048   4.843   2.871
  100DPPC   C23 4973   2.984   4.739   2.964
  100DPPC   C24 4974   2.979   4.798   3.105
  100DPPC   C25 4975   2.871   4.906   3.104
  100DPPC   C26 4976   2.854   4.979   3.238
  100DPPC   C27 4977   2.809   5.120   3.198
  100DPPC   C28 4978   2.795   5.210   3.321
  100DPPC   C29 4979   2.787   5.354   3.270
  100DPPC   C30 4980   2.777   5.446   3.392
  100DPPC   C31 4981   2.876   5.407   3.502
  100DPPC   C32 4982   3.665   4.660   2.381
  100DPPC   O33 4983   3.758   4.688   2.486
  100DPPC   C34 4984   3.812   4.573   2.535
  100DPPC   O35 4985   3.787   4.464   2.483
  100DPPC   C36 4986   3.931   4.593   2.629
  100DPPC   C37 4987   3.896   4.568   2.776
  100DPPC   C38 4988   4.019   4.587   2.866
  100DPPC   C39 4989   3.985   4.607   3.014
  100DPPC   C40 4990   3.931   4.748   3.039
  100DPPC   C41 4991   3.914   4.756   3.191
  100DPPC   C42 4992   3.874   4.889   3.254
  100DPPC   C43 4993   3.764   4.970   3.184
  100DPPC   C44 4994   3.729   5.098   3.260
  100DPPC   C45 4995   3.673   5.210   3.173
  100DPPC   C46 4996   3.663   5.339   3.254
  100DPPC   C47 4997   3.594   5.446   3.169
  100DPPC   C48 4998   3.578   5.572   3.254
  100DPPC   C49 4999   3.718   5.606   3.308
  100DPPC   C50 5000   3.696   5.747   3.362
  101DPPC    C1 5001   5.680   0.467   1.970
  101DPPC    C2 5002   5.657   0.260   2.062
  101DPPC    C3 5003   5.666   0.452   2.201
  101DPPC    N4 5004   5.607   0.397   2.078
  101DPPC    C5 5005   5.461   0.415   2.068
  101DPPC    C6 5006   5.375   0.336   1.969
  101DPPC    O7 5007   5.238   0.375   1.977
  101DPPC    P8 5008   5.138   0.258   1.930
  101DPPC    O9 5009   5.214   0.162   1.846
  101DPPC   O10 5010   5.020   0.322   1.868
  101DPPC   O11 5011   5.113   0.202   2.078
  101DPPC   C12 5012   5.038   0.297   2.154
  101DPPC   C13 5013   5.007   0.257   2.298
  101DPPC   O14 5014   4.953   0.379   2.351
  101DPPC   C15 5015   4.826   0.381   2.400
  101DPPC   O16 5016   4.744   0.304   2.350
  101DPPC   C17 5017   4.789   0.479   2.511
  101DPPC   C18 5018   4.866   0.429   2.634
  101DPPC   C19 5019   4.846   0.541   2.736
  101DPPC   C20 5020   4.888   0.515   2.881
  101DPPC   C21 5021   4.867   0.631   2.979
  101DPPC   C22 5022   4.721   0.663   3.011
  101DPPC   C23 5023   4.662   0.526   3.044
  101DPPC   C24 5024   4.512   0.535   3.075
  101DPPC   C25 5025   4.449   0.410   3.135
  101DPPC   C26 5026   4.306   0.441   3.182
  101DPPC   C27 5027   4.286   0.343   3.298
  101DPPC   C28 5028   4.327   0.204   3.248
  101DPPC   C29 5029   4.365   0.119   3.370
  101DPPC   C30 5030   4.428  -0.012   3.322
  101DPPC   C31 5031   4.566  -0.002   3.258
  101DPPC   C32 5032   5.130   0.196   2.365
  101DPPC   O33 5033   5.255   0.265   2.376
  101DPPC   C34 5034   5.355   0.189   2.429
  101DPPC   O35 5035   5.357   0.069   2.401
  101DPPC   C36 5036   5.482   0.261   2.474
  101DPPC   C37 5037   5.466   0.286   2.624
  101DPPC   C38 5038   5.587   0.342   2.700
  101DPPC   C39 5039   5.562   0.350   2.851
  101DPPC   C40 5040   5.670   0.448   2.899
  101DPPC   C41 5041   5.652   0.475   3.048
  101DPPC   C42 5042   5.762   0.554   3.119
  101DPPC   C43 5043   5.746   0.539   3.271
  101DPPC   C44 5044   5.858   0.601   3.354
  101DPPC   C45 5045   5.840   0.586   3.505
  101DPPC   C46 5046   5.959   0.645   3.582
  101DPPC   C47 5047   5.925   0.632   3.730
  101DPPC   C48 5048   6.030   0.699   3.818
  101DPPC   C49 5049   6.002   0.692   3.969
  101DPPC   C50 5050   6.122   0.703   4.063
  102DPPC    C1 5051   2.395   1.299   1.903
  102DPPC    C2 5052   2.501   1.202   2.086
  102DPPC    C3 5053   2.285   1.151   2.063
  102DPPC    N4 5054   2.403   1.174   1.980
  102DPPC    C5 5055   2.451   1.062   1.899
  102DPPC    C6 5056   2.414   1.055   1.750
  102DPPC    O7 5057   2.272   1.059   1.731
  102DPPC    P8 5058   2.229   0.950   1.621
  102DPPC    O9 5059   2.355   0.906   1.558
  102DPPC   O10 5060   2.098   0.982   1.560
  102DPPC   O11 5061   2.199   0.830   1.724
  102DPPC   C12 5062   2.083   0.873   1.797
  102DPPC   C13 5063   2.012   0.775   1.890
  102DPPC   O14 5064   1.887   0.823   1.944
  102DPPC   C15 5065   1.802   0.733   2.001
  102DPPC   O16 5066   1.818   0.613   1.979
  102DPPC   C17 5067   1.687   0.789   2.084
  102DPPC   C18 5068   1.727   0.758   2.228
  102DPPC   C19 5069   1.641   0.813   2.342
  102DPPC   C20 5070   1.696   0.770   2.478
  102DPPC   C21 5071   1.600   0.822   2.586
  102DPPC   C22 5072   1.666   0.818   2.724
  102DPPC   C23 5073   1.583   0.848   2.849
  102DPPC   C24 5074   1.543   0.995   2.849
  102DPPC   C25 5075   1.427   1.034   2.940
  102DPPC   C26 5076   1.430   1.185   2.962
  102DPPC   C27 5077   1.543   1.216   3.060
  102DPPC   C28 5078   1.588   1.358   3.025
  102DPPC   C29 5079   1.474   1.458   3.046
  102DPPC   C30 5080   1.515   1.599   3.005
  102DPPC   C31 5081   1.546   1.601   2.855
  102DPPC   C32 5082   2.116   0.742   1.997
  102DPPC   O33 5083   2.183   0.836   2.082
  102DPPC   C34 5084   2.247   0.771   2.183
  102DPPC   O35 5085   2.266   0.650   2.195
  102DPPC   C36 5086   2.304   0.852   2.299
  102DPPC   C37 5087   2.209   0.858   2.419
  102DPPC   C38 5088   2.204   0.725   2.494
  102DPPC   C39 5089   2.092   0.715   2.598
  102DPPC   C40 5090   2.124   0.829   2.695
  102DPPC   C41 5091   2.041   0.803   2.821
  102DPPC   C42 5092   2.082   0.668   2.882
  102DPPC   C43 5093   2.012   0.637   3.014
  102DPPC   C44 5094   2.082   0.518   3.079
  102DPPC   C45 5095   1.979   0.457   3.174
  102DPPC   C46 5096   2.025   0.337   3.257
  102DPPC   C47 5097   1.926   0.301   3.368
  102DPPC   C48 5098   1.941   0.150   3.391
  102DPPC   C49 5099   1.870   0.110   3.521
  102DPPC   C50 5100   1.720   0.095   3.493
  103DPPC    C1 5101   2.552   7.363   1.315
  103DPPC    C2 5102   2.503   7.159   1.426
  103DPPC    C3 5103   2.719   7.244   1.429
  103DPPC    N4 5104   2.578   7.285   1.437
  103DPPC    C5 5105   2.543   7.351   1.564
  103DPPC    C6 5106   2.618   7.480   1.595
  103DPPC    O7 5107   2.750   7.455   1.644
  103DPPC    P8 5108   2.839   7.588   1.663
  103DPPC    O9 5109   2.836   7.633   1.523
  103DPPC   O10 5110   2.967   7.552   1.727
  103DPPC   O11 5111   2.749   7.657   1.778
  103DPPC   C12 5112   2.796   7.625   1.910
  103DPPC   C13 5113   2.671   7.639   1.997
  103DPPC   O14 5114   2.576   7.534   1.976
  103DPPC   C15 5115   2.619   7.415   2.026
  103DPPC   O16 5116   2.729   7.398   2.079
  103DPPC   C17 5117   2.524   7.299   1.992
  103DPPC   C18 5118   2.533   7.203   2.111
  103DPPC   C19 5119   2.473   7.258   2.241
  103DPPC   C20 5120   2.497   7.153   2.349
  103DPPC   C21 5121   2.447   7.198   2.487
  103DPPC   C22 5122   2.459   7.092   2.597
  103DPPC   C23 5123   2.391   7.154   2.719
  103DPPC   C24 5124   2.355   7.062   2.836
  103DPPC   C25 5125   2.330   7.121   2.975
  103DPPC   C26 5126   2.287   7.029   3.090
  103DPPC   C27 5127   2.260   7.110   3.216
  103DPPC   C28 5128   2.249   6.999   3.321
  103DPPC   C29 5129   2.372   6.908   3.320
  103DPPC   C30 5130   2.367   6.791   3.418
  103DPPC   C31 5131   2.491   6.705   3.443
  103DPPC   C32 5132   2.622   7.783   1.982
  103DPPC   O33 5133   2.722   7.874   2.027
  103DPPC   C34 5134   2.693   8.006   2.015
  103DPPC   O35 5135   2.581   8.040   1.977
  103DPPC   C36 5136   2.795   8.107   2.069
  103DPPC   C37 5137   2.792   8.108   2.222
  103DPPC   C38 5138   2.868   8.221   2.290
  103DPPC   C39 5139   2.845   8.231   2.441
  103DPPC   C40 5140   2.955   8.324   2.491
  103DPPC   C41 5141   2.966   8.317   2.643
  103DPPC   C42 5142   2.834   8.372   2.698
  103DPPC   C43 5143   2.855   8.402   2.846
  103DPPC   C44 5144   2.734   8.443   2.931
  103DPPC   C45 5145   2.764   8.490   3.073
  103DPPC   C46 5146   2.627   8.537   3.122
  103DPPC   C47 5147   2.648   8.623   3.247
  103DPPC   C48 5148   2.508   8.666   3.292
  103DPPC   C49 5149   2.520   8.775   3.399
  103DPPC   C50 5150   2.579   8.715   3.527
  104DPPC    C1 5151   3.890   3.955   1.618
  104DPPC    C2 5152   3.956   3.728   1.618
  104DPPC    C3 5153   4.091   3.884   1.510
  104DPPC    N4 5154   4.006   3.866   1.629
  104DPPC    C5 5155   4.072   3.898   1.756
  104DPPC    C6 5156   4.177   3.808   1.822
  104DPPC    O7 5157   4.283   3.759   1.739
  104DPPC    P8 5158   4.318   3.611   1.793
  104DPPC    O9 5159   4.438   3.564   1.720
  104DPPC   O10 5160   4.190   3.538   1.783
  104DPPC   O11 5161   4.353   3.654   1.944
  104DPPC   C12 5162   4.491   3.676   1.974
  104DPPC   C13 5163   4.508   3.764   2.098
  104DPPC   O14 5164   4.646   3.780   2.134
  104DPPC   C15 5165   4.677   3.888   2.212
  104DPPC   O16 5166   4.624   3.998   2.201
  104DPPC   C17 5167   4.796   3.862   2.305
  104DPPC   C18 5168   4.816   3.723   2.367
  104DPPC   C19 5169   4.925   3.704   2.473
  104DPPC   C20 5170   4.896   3.594   2.575
  104DPPC   C21 5171   5.020   3.579   2.662
  104DPPC   C22 5172   4.972   3.533   2.800
  104DPPC   C23 5173   5.083   3.495   2.898
  104DPPC   C24 5174   5.025   3.453   3.033
  104DPPC   C25 5175   5.125   3.398   3.135
  104DPPC   C26 5176   5.081   3.404   3.282
  104DPPC   C27 5177   5.037   3.544   3.323
  104DPPC   C28 5178   4.982   3.537   3.466
  104DPPC   C29 5179   4.937   3.657   3.550
  104DPPC   C30 5180   4.844   3.616   3.664
  104DPPC   C31 5181   4.832   3.752   3.733
  104DPPC   C32 5182   4.440   3.677   2.204
  104DPPC   O33 5183   4.410   3.741   2.329
  104DPPC   C34 5184   4.317   3.685   2.411
  104DPPC   O35 5185   4.241   3.597   2.370
  104DPPC   C36 5186   4.301   3.763   2.542
  104DPPC   C37 5187   4.432   3.725   2.612
  104DPPC   C38 5188   4.459   3.838   2.713
  104DPPC   C39 5189   4.583   3.812   2.798
  104DPPC   C40 5190   4.571   3.676   2.868
  104DPPC   C41 5191   4.660   3.674   2.992
  104DPPC   C42 5192   4.642   3.792   3.088
  104DPPC   C43 5193   4.721   3.772   3.217
  104DPPC   C44 5194   4.750   3.903   3.291
  104DPPC   C45 5195   4.620   3.969   3.337
  104DPPC   C46 5196   4.627   4.073   3.450
  104DPPC   C47 5197   4.490   4.084   3.518
  104DPPC   C48 5198   4.483   4.170   3.644
  104DPPC   C49 5199   4.474   4.315   3.597
  104DPPC   C50 5200   4.492   4.407   3.718
  105DPPC    C1 5201   4.465   5.142   1.825
  105DPPC    C2 5202   4.474   4.993   1.645
  105DPPC    C3 5203   4.522   5.235   1.611
  105DPPC    N4 5204   4.534   5.117   1.698
  105DPPC    C5 5205   4.679   5.091   1.697
  105DPPC    C6 5206   4.736   5.011   1.814
  105DPPC    O7 5207   4.785   5.091   1.922
  105DPPC    P8 5208   4.865   4.994   2.023
  105DPPC    O9 5209   4.942   5.096   2.097
  105DPPC   O10 5210   4.937   4.899   1.935
  105DPPC   O11 5211   4.746   4.921   2.103
  105DPPC   C12 5212   4.735   4.975   2.235
  105DPPC   C13 5213   4.612   4.936   2.317
  105DPPC   O14 5214   4.564   5.035   2.409
  105DPPC   C15 5215   4.481   5.124   2.349
  105DPPC   O16 5216   4.408   5.081   2.260
  105DPPC   C17 5217   4.453   5.251   2.431
  105DPPC   C18 5218   4.303   5.269   2.453
  105DPPC   C19 5219   4.290   5.384   2.553
  105DPPC   C20 5220   4.335   5.512   2.481
  105DPPC   C21 5221   4.331   5.632   2.576
  105DPPC   C22 5222   4.388   5.751   2.498
  105DPPC   C23 5223   4.367   5.885   2.570
  105DPPC   C24 5224   4.460   5.890   2.691
  105DPPC   C25 5225   4.428   6.013   2.776
  105DPPC   C26 5226   4.294   5.985   2.844
  105DPPC   C27 5227   4.254   6.116   2.914
  105DPPC   C28 5228   4.108   6.096   2.954
  105DPPC   C29 5229   4.039   6.211   3.029
  105DPPC   C30 5230   4.072   6.346   2.965
  105DPPC   C31 5231   3.963   6.439   3.017
  105DPPC   C32 5232   4.635   4.794   2.368
  105DPPC   O33 5233   4.753   4.789   2.449
  105DPPC   C34 5234   4.782   4.670   2.508
  105DPPC   O35 5235   4.715   4.567   2.492
  105DPPC   C36 5236   4.929   4.662   2.549
  105DPPC   C37 5237   4.933   4.632   2.699
  105DPPC   C38 5238   4.888   4.757   2.777
  105DPPC   C39 5239   4.901   4.737   2.928
  105DPPC   C40 5240   4.827   4.845   3.007
  105DPPC   C41 5241   4.850   4.832   3.158
  105DPPC   C42 5242   4.810   4.965   3.221
  105DPPC   C43 5243   4.817   4.968   3.374
  105DPPC   C44 5244   4.752   5.093   3.434
  105DPPC   C45 5245   4.797   5.095   3.580
  105DPPC   C46 5246   4.747   4.975   3.661
  105DPPC   C47 5247   4.814   4.985   3.798
  105DPPC   C48 5248   4.785   4.866   3.889
  105DPPC   C49 5249   4.857   4.881   4.023
  105DPPC   C50 5250   5.009   4.893   4.014
  106DPPC    C1 5251   9.117   0.567   1.237
  106DPPC    C2 5252   8.963   0.459   1.374
  106DPPC    C3 5253   9.113   0.324   1.260
  106DPPC    N4 5254   9.103   0.453   1.330
  106DPPC    C5 5255   9.205   0.463   1.434
  106DPPC    C6 5256   9.356   0.451   1.411
  106DPPC    O7 5257   9.424   0.524   1.514
  106DPPC    P8 5258   9.583   0.501   1.501
  106DPPC    O9 5259   9.616   0.538   1.362
  106DPPC   O10 5260   9.650   0.385   1.564
  106DPPC   O11 5261   9.619   0.631   1.589
  106DPPC   C12 5262   9.607   0.611   1.730
  106DPPC   C13 5263   9.518   0.716   1.796
  106DPPC   O14 5264   9.577   0.772   1.914
  106DPPC   C15 5265   9.609   0.904   1.910
  106DPPC   O16 5266   9.581   0.966   1.808
  106DPPC   C17 5267   9.673   0.971   2.031
  106DPPC   C18 5268   9.603   0.925   2.159
  106DPPC   C19 5269   9.697   0.930   2.280
  106DPPC   C20 5270   9.639   0.881   2.413
  106DPPC   C21 5271   9.748   0.922   2.512
  106DPPC   C22 5272   9.845   0.806   2.532
  106DPPC   C23 5273   9.959   0.861   2.618
  106DPPC   C24 5274  10.052   0.946   2.531
  106DPPC   C25 5275  10.193   0.933   2.590
  106DPPC   C26 5276  10.307   0.986   2.503
  106DPPC   C27 5277  10.446   0.970   2.565
  106DPPC   C28 5278  10.433   1.020   2.709
  106DPPC   C29 5279  10.566   1.013   2.785
  106DPPC   C30 5280  10.539   1.067   2.926
  106DPPC   C31 5281  10.513   1.218   2.921
  106DPPC   C32 5282   9.380   0.650   1.807
  106DPPC   O33 5283   9.382   0.519   1.864
  106DPPC   C34 5284   9.265   0.452   1.842
  106DPPC   O35 5285   9.169   0.515   1.799
  106DPPC   C36 5286   9.258   0.306   1.889
  106DPPC   C37 5287   9.314   0.281   2.029
  106DPPC   C38 5288   9.234   0.355   2.136
  106DPPC   C39 5289   9.308   0.469   2.206
  106DPPC   C40 5290   9.215   0.526   2.314
  106DPPC   C41 5291   9.154   0.420   2.405
  106DPPC   C42 5292   9.054   0.502   2.487
  106DPPC   C43 5293   9.042   0.436   2.624
  106DPPC   C44 5294   8.963   0.519   2.726
  106DPPC   C45 5295   8.953   0.437   2.854
  106DPPC   C46 5296   8.902   0.530   2.964
  106DPPC   C47 5297   8.869   0.469   3.101
  106DPPC   C48 5298   8.754   0.368   3.101
  106DPPC   C49 5299   8.741   0.318   3.245
  106DPPC   C50 5300   8.735   0.439   3.339
  107DPPC    C1 5301   6.157   7.916   2.092
  107DPPC    C2 5302   6.116   8.012   1.888
  107DPPC    C3 5303   6.033   8.126   2.093
  107DPPC    N4 5304   6.140   8.047   2.028
  107DPPC    C5 5305   6.275   8.103   2.017
  107DPPC    C6 5306   6.318   8.192   2.135
  107DPPC    O7 5307   6.247   8.316   2.137
  107DPPC    P8 5308   6.345   8.425   2.070
  107DPPC    O9 5309   6.271   8.462   1.947
  107DPPC   O10 5310   6.481   8.365   2.072
  107DPPC   O11 5311   6.336   8.543   2.178
  107DPPC   C12 5312   6.195   8.557   2.198
  107DPPC   C13 5313   6.140   8.594   2.336
  107DPPC   O14 5314   6.178   8.728   2.372
  107DPPC   C15 5315   6.085   8.823   2.399
  107DPPC   O16 5316   5.980   8.815   2.336
  107DPPC   C17 5317   6.140   8.956   2.452
  107DPPC   C18 5318   6.217   8.941   2.583
  107DPPC   C19 5319   6.135   8.890   2.702
  107DPPC   C20 5320   6.024   8.987   2.744
  107DPPC   C21 5321   6.088   9.074   2.852
  107DPPC   C22 5322   6.007   9.200   2.888
  107DPPC   C23 5323   6.058   9.310   2.981
  107DPPC   C24 5324   6.171   9.385   2.911
  107DPPC   C25 5325   6.235   9.497   2.993
  107DPPC   C26 5326   6.135   9.609   3.023
  107DPPC   C27 5327   6.106   9.685   2.893
  107DPPC   C28 5328   5.999   9.790   2.923
  107DPPC   C29 5329   5.994   9.912   2.832
  107DPPC   C30 5330   5.944   9.867   2.694
  107DPPC   C31 5331   5.930   9.976   2.588
  107DPPC   C32 5332   6.191   8.480   2.425
  107DPPC   O33 5333   6.123   8.473   2.551
  107DPPC   C34 5334   5.989   8.449   2.558
  107DPPC   O35 5335   5.930   8.418   2.455
  107DPPC   C36 5336   5.923   8.476   2.694
  107DPPC   C37 5337   6.026   8.532   2.793
  107DPPC   C38 5338   5.965   8.577   2.926
  107DPPC   C39 5339   6.072   8.650   3.007
  107DPPC   C40 5340   6.018   8.778   3.070
  107DPPC   C41 5341   6.124   8.854   3.150
  107DPPC   C42 5342   6.163   8.766   3.269
  107DPPC   C43 5343   6.056   8.750   3.378
  107DPPC   C44 5344   6.128   8.712   3.507
  107DPPC   C45 5345   6.029   8.684   3.620
  107DPPC   C46 5346   6.114   8.651   3.744
  107DPPC   C47 5347   6.018   8.661   3.862
  107DPPC   C48 5348   5.942   8.794   3.859
  107DPPC   C49 5349   5.794   8.769   3.885
  107DPPC   C50 5350   5.704   8.890   3.863
  108DPPC    C1 5351   7.138   0.593   1.246
  108DPPC    C2 5352   6.986   0.780   1.271
  108DPPC    C3 5353   6.994   0.655   1.071
  108DPPC    N4 5354   7.003   0.644   1.217
  108DPPC    C5 5355   6.887   0.562   1.252
  108DPPC    C6 5356   6.905   0.454   1.359
  108DPPC    O7 5357   6.890   0.504   1.492
  108DPPC    P8 5358   6.907   0.374   1.585
  108DPPC    O9 5359   7.051   0.342   1.583
  108DPPC   O10 5360   6.802   0.282   1.537
  108DPPC   O11 5361   6.855   0.444   1.720
  108DPPC   C12 5362   6.957   0.526   1.777
  108DPPC   C13 5363   6.912   0.617   1.891
  108DPPC   O14 5364   6.991   0.735   1.912
  108DPPC   C15 5365   6.910   0.844   1.914
  108DPPC   O16 5366   6.797   0.837   1.865
  108DPPC   C17 5367   6.960   0.975   1.974
  108DPPC   C18 5368   6.930   0.993   2.123
  108DPPC   C19 5369   6.947   1.142   2.157
  108DPPC   C20 5370   6.881   1.179   2.289
  108DPPC   C21 5371   6.987   1.130   2.388
  108DPPC   C22 5372   6.947   1.155   2.534
  108DPPC   C23 5373   6.820   1.087   2.587
  108DPPC   C24 5374   6.846   1.002   2.712
  108DPPC   C25 5375   6.912   1.106   2.804
  108DPPC   C26 5376   6.974   1.038   2.925
  108DPPC   C27 5377   6.879   0.955   3.012
  108DPPC   C28 5378   6.933   0.913   3.149
  108DPPC   C29 5379   6.839   0.812   3.215
  108DPPC   C30 5380   6.899   0.802   3.356
  108DPPC   C31 5381   6.820   0.723   3.460
  108DPPC   C32 5382   6.925   0.513   2.002
  108DPPC   O33 5383   6.892   0.543   2.138
  108DPPC   C34 5384   6.905   0.434   2.218
  108DPPC   O35 5385   6.964   0.332   2.184
  108DPPC   C36 5386   6.902   0.459   2.369
  108DPPC   C37 5387   6.862   0.335   2.449
  108DPPC   C38 5388   6.884   0.367   2.597
  108DPPC   C39 5389   6.846   0.245   2.681
  108DPPC   C40 5390   6.934   0.122   2.655
  108DPPC   C41 5391   6.883  -0.004   2.725
  108DPPC   C42 5392   6.886   0.021   2.876
  108DPPC   C43 5393   6.828  -0.096   2.957
  108DPPC   C44 5394   6.863  -0.094   3.106
  108DPPC   C45 5395   6.816  -0.223   3.174
  108DPPC   C46 5396   6.859  -0.224   3.321
  108DPPC   C47 5397   6.777  -0.126   3.405
  108DPPC   C48 5398   6.818  -0.128   3.553
  108DPPC   C49 5399   6.964  -0.104   3.593
  108DPPC   C50 5400   6.976  -0.025   3.724
  109DPPC    C1 5401   9.325   6.064   0.504
  109DPPC    C2 5402   9.372   6.052   0.732
  109DPPC    C3 5403   9.445   6.236   0.599
  109DPPC    N4 5404   9.332   6.146   0.626
  109DPPC    C5 5405   9.202   6.213   0.641
  109DPPC    C6 5406   9.159   6.240   0.785
  109DPPC    O7 5407   9.087   6.128   0.836
  109DPPC    P8 5408   8.978   6.165   0.948
  109DPPC    O9 5409   8.881   6.056   0.926
  109DPPC   O10 5410   8.942   6.309   0.939
  109DPPC   O11 5411   9.070   6.154   1.079
  109DPPC   C12 5412   9.053   6.023   1.133
  109DPPC   C13 5413   9.166   5.969   1.221
  109DPPC   O14 5414   9.142   5.839   1.277
  109DPPC   C15 5415   9.245   5.767   1.330
  109DPPC   O16 5416   9.362   5.795   1.302
  109DPPC   C17 5417   9.205   5.632   1.389
  109DPPC   C18 5418   9.131   5.654   1.521
  109DPPC   C19 5419   9.217   5.736   1.617
  109DPPC   C20 5420   9.158   5.705   1.755
  109DPPC   C21 5421   9.229   5.765   1.876
  109DPPC   C22 5422   9.155   5.746   2.008
  109DPPC   C23 5423   9.222   5.829   2.118
  109DPPC   C24 5424   9.160   5.804   2.256
  109DPPC   C25 5425   9.232   5.867   2.375
  109DPPC   C26 5426   9.141   5.877   2.498
  109DPPC   C27 5427   9.207   5.901   2.634
  109DPPC   C28 5428   9.090   5.876   2.728
  109DPPC   C29 5429   9.131   5.880   2.876
  109DPPC   C30 5430   9.007   5.868   2.964
  109DPPC   C31 5431   9.049   5.886   3.110
  109DPPC   C32 5432   9.196   6.081   1.321
  109DPPC   O33 5433   9.102   6.098   1.428
  109DPPC   C34 5434   9.096   6.224   1.481
  109DPPC   O35 5435   9.182   6.306   1.449
  109DPPC   C36 5436   9.014   6.228   1.610
  109DPPC   C37 5437   9.104   6.208   1.732
  109DPPC   C38 5438   9.046   6.258   1.864
  109DPPC   C39 5439   9.153   6.260   1.974
  109DPPC   C40 5440   9.093   6.302   2.109
  109DPPC   C41 5441   9.208   6.300   2.210
  109DPPC   C42 5442   9.136   6.331   2.341
  109DPPC   C43 5443   9.232   6.348   2.459
  109DPPC   C44 5444   9.328   6.229   2.470
  109DPPC   C45 5445   9.412   6.258   2.594
  109DPPC   C46 5446   9.514   6.148   2.622
  109DPPC   C47 5447   9.605   6.189   2.738
  109DPPC   C48 5448   9.716   6.085   2.754
  109DPPC   C49 5449   9.788   6.104   2.887
  109DPPC   C50 5450   9.883   5.985   2.872
  110DPPC    C1 5451   1.342   3.470   0.991
  110DPPC    C2 5452   1.555   3.388   1.101
  110DPPC    C3 5453   1.558   3.561   0.941
  110DPPC    N4 5454   1.475   3.498   1.045
  110DPPC    C5 5455   1.460   3.604   1.146
  110DPPC    C6 5456   1.369   3.574   1.265
  110DPPC    O7 5457   1.330   3.685   1.346
  110DPPC    P8 5458   1.193   3.758   1.303
  110DPPC    O9 5459   1.133   3.669   1.201
  110DPPC   O10 5460   1.210   3.903   1.280
  110DPPC   O11 5461   1.132   3.745   1.452
  110DPPC   C12 5462   1.067   3.618   1.461
  110DPPC   C13 5463   1.128   3.515   1.557
  110DPPC   O14 5464   1.053   3.393   1.568
  110DPPC   C15 5465   1.122   3.279   1.594
  110DPPC   O16 5466   1.232   3.251   1.546
  110DPPC   C17 5467   1.028   3.172   1.650
  110DPPC   C18 5468   1.040   3.193   1.801
  110DPPC   C19 5469   0.955   3.090   1.875
  110DPPC   C20 5470   0.971   3.114   2.025
  110DPPC   C21 5471   0.868   3.031   2.103
  110DPPC   C22 5472   0.866   3.076   2.249
  110DPPC   C23 5473   0.767   2.990   2.327
  110DPPC   C24 5474   0.629   2.993   2.261
  110DPPC   C25 5475   0.534   2.936   2.367
  110DPPC   C26 5476   0.561   3.022   2.490
  110DPPC   C27 5477   0.470   2.989   2.609
  110DPPC   C28 5478   0.487   3.095   2.718
  110DPPC   C29 5479   0.626   3.075   2.778
  110DPPC   C30 5480   0.670   3.168   2.892
  110DPPC   C31 5481   0.595   3.152   3.024
  110DPPC   C32 5482   1.163   3.587   1.687
  110DPPC   O33 5483   1.241   3.510   1.779
  110DPPC   C34 5484   1.255   3.573   1.899
  110DPPC   O35 5485   1.248   3.695   1.912
  110DPPC   C36 5486   1.324   3.495   2.011
  110DPPC   C37 5487   1.217   3.433   2.101
  110DPPC   C38 5488   1.282   3.349   2.212
  110DPPC   C39 5489   1.185   3.282   2.309
  110DPPC   C40 5490   1.243   3.219   2.435
  110DPPC   C41 5491   1.134   3.136   2.501
  110DPPC   C42 5492   1.202   3.055   2.612
  110DPPC   C43 5493   1.101   2.990   2.707
  110DPPC   C44 5494   1.188   2.929   2.818
  110DPPC   C45 5495   1.115   2.886   2.945
  110DPPC   C46 5496   1.068   3.009   3.022
  110DPPC   C47 5497   0.986   2.996   3.150
  110DPPC   C48 5498   0.957   3.137   3.202
  110DPPC   C49 5499   0.872   3.103   3.325
  110DPPC   C50 5500   0.793   3.231   3.353
  111DPPC    C1 5501   1.688   1.092   1.716
  111DPPC    C2 5502   1.714   1.154   1.484
  111DPPC    C3 5503   1.702   0.933   1.536
  111DPPC    N4 5504   1.647   1.062   1.578
  111DPPC    C5 5505   1.501   1.062   1.557
  111DPPC    C6 5506   1.410   0.946   1.598
  111DPPC    O7 5507   1.436   0.904   1.732
  111DPPC    P8 5508   1.338   0.779   1.758
  111DPPC    O9 5509   1.425   0.677   1.819
  111DPPC   O10 5510   1.273   0.734   1.632
  111DPPC   O11 5511   1.245   0.856   1.865
  111DPPC   C12 5512   1.331   0.870   1.978
  111DPPC   C13 5513   1.249   0.880   2.107
  111DPPC   O14 5514   1.317   0.947   2.214
  111DPPC   C15 5515   1.245   1.007   2.312
  111DPPC   O16 5516   1.123   0.997   2.304
  111DPPC   C17 5517   1.318   1.056   2.437
  111DPPC   C18 5518   1.375   1.191   2.394
  111DPPC   C19 5519   1.443   1.247   2.519
  111DPPC   C20 5520   1.489   1.391   2.496
  111DPPC   C21 5521   1.386   1.489   2.440
  111DPPC   C22 5522   1.452   1.626   2.428
  111DPPC   C23 5523   1.345   1.728   2.467
  111DPPC   C24 5524   1.270   1.708   2.599
  111DPPC   C25 5525   1.144   1.794   2.592
  111DPPC   C26 5526   1.055   1.783   2.716
  111DPPC   C27 5527   0.956   1.900   2.714
  111DPPC   C28 5528   0.908   1.913   2.859
  111DPPC   C29 5529   0.825   2.041   2.871
  111DPPC   C30 5530   0.770   2.066   3.012
  111DPPC   C31 5531   0.700   1.943   3.069
  111DPPC   C32 5532   1.180   0.744   2.115
  111DPPC   O33 5533   1.267   0.642   2.165
  111DPPC   C34 5534   1.246   0.509   2.144
  111DPPC   O35 5535   1.175   0.480   2.048
  111DPPC   C36 5536   1.313   0.400   2.228
  111DPPC   C37 5537   1.372   0.452   2.360
  111DPPC   C38 5538   1.264   0.518   2.445
  111DPPC   C39 5539   1.311   0.559   2.585
  111DPPC   C40 5540   1.198   0.635   2.656
  111DPPC   C41 5541   1.237   0.684   2.795
  111DPPC   C42 5542   1.261   0.567   2.891
  111DPPC   C43 5543   1.285   0.627   3.030
  111DPPC   C44 5544   1.167   0.692   3.102
  111DPPC   C45 5545   1.212   0.729   3.244
  111DPPC   C46 5546   1.252   0.876   3.253
  111DPPC   C47 5547   1.274   0.922   3.397
  111DPPC   C48 5548   1.296   1.073   3.389
  111DPPC   C49 5549   1.176   1.121   3.306
  111DPPC   C50 5550   1.157   1.271   3.325
  112DPPC    C1 5551   4.890   8.075   1.831
  112DPPC    C2 5552   5.063   8.088   1.986
  112DPPC    C3 5553   4.850   8.095   2.073
  112DPPC    N4 5554   4.929   8.031   1.966
  112DPPC    C5 5555   4.943   7.885   1.973
  112DPPC    C6 5556   4.826   7.786   1.966
  112DPPC    O7 5557   4.720   7.802   2.060
  112DPPC    P8 5558   4.616   7.680   2.053
  112DPPC    O9 5559   4.606   7.626   1.916
  112DPPC   O10 5560   4.495   7.717   2.131
  112DPPC   O11 5561   4.701   7.567   2.130
  112DPPC   C12 5562   4.637   7.545   2.255
  112DPPC   C13 5563   4.709   7.452   2.353
  112DPPC   O14 5564   4.628   7.381   2.448
  112DPPC   C15 5565   4.591   7.260   2.400
  112DPPC   O16 5566   4.613   7.222   2.284
  112DPPC   C17 5567   4.544   7.162   2.507
  112DPPC   C18 5568   4.624   7.171   2.637
  112DPPC   C19 5569   4.575   7.084   2.753
  112DPPC   C20 5570   4.568   6.938   2.709
  112DPPC   C21 5571   4.536   6.860   2.837
  112DPPC   C22 5572   4.396   6.879   2.897
  112DPPC   C23 5573   4.366   6.764   2.994
  112DPPC   C24 5574   4.239   6.800   3.072
  112DPPC   C25 5575   4.119   6.835   2.983
  112DPPC   C26 5576   3.992   6.846   3.068
  112DPPC   C27 5577   3.888   6.917   2.980
  112DPPC   C28 5578   3.779   6.957   3.080
  112DPPC   C29 5579   3.684   7.061   3.021
  112DPPC   C30 5580   3.575   7.109   3.117
  112DPPC   C31 5581   3.462   7.202   3.072
  112DPPC   C32 5582   4.819   7.543   2.408
  112DPPC   O33 5583   4.931   7.479   2.471
  112DPPC   C34 5584   5.044   7.537   2.519
  112DPPC   O35 5585   5.079   7.651   2.492
  112DPPC   C36 5586   5.134   7.444   2.601
  112DPPC   C37 5587   5.179   7.514   2.730
  112DPPC   C38 5588   5.269   7.427   2.818
  112DPPC   C39 5589   5.291   7.503   2.949
  112DPPC   C40 5590   5.374   7.423   3.049
  112DPPC   C41 5591   5.502   7.357   2.998
  112DPPC   C42 5592   5.613   7.462   2.987
  112DPPC   C43 5593   5.710   7.439   3.103
  112DPPC   C44 5594   5.813   7.552   3.095
  112DPPC   C45 5595   5.883   7.551   3.231
  112DPPC   C46 5596   5.944   7.690   3.255
  112DPPC   C47 5597   5.992   7.699   3.400
  112DPPC   C48 5598   5.867   7.688   3.487
  112DPPC   C49 5599   5.916   7.676   3.631
  112DPPC   C50 5600   5.806   7.718   3.728
  113DPPC    C1 5601   0.932   1.572   1.578
  113DPPC    C2 5602   0.994   1.613   1.799
  113DPPC    C3 5603   0.790   1.526   1.753
  113DPPC    N4 5604   0.931   1.513   1.713
  113DPPC    C5 5605   0.980   1.375   1.726
  113DPPC    C6 5606   1.111   1.343   1.653
  113DPPC    O7 5607   1.220   1.424   1.698
  113DPPC    P8 5608   1.361   1.376   1.638
  113DPPC    O9 5609   1.474   1.472   1.640
  113DPPC   O10 5610   1.336   1.300   1.513
  113DPPC   O11 5611   1.381   1.277   1.764
  113DPPC   C12 5612   1.422   1.369   1.865
  113DPPC   C13 5613   1.427   1.309   2.005
  113DPPC   O14 5614   1.533   1.217   2.036
  113DPPC   C15 5615   1.658   1.264   2.061
  113DPPC   O16 5616   1.678   1.379   2.022
  113DPPC   C17 5617   1.757   1.154   2.099
  113DPPC   C18 5618   1.869   1.196   2.195
  113DPPC   C19 5619   1.808   1.202   2.335
  113DPPC   C20 5620   1.920   1.240   2.432
  113DPPC   C21 5621   1.868   1.238   2.575
  113DPPC   C22 5622   1.983   1.245   2.675
  113DPPC   C23 5623   1.927   1.244   2.817
  113DPPC   C24 5624   2.040   1.240   2.921
  113DPPC   C25 5625   1.987   1.227   3.064
  113DPPC   C26 5626   2.079   1.144   3.154
  113DPPC   C27 5627   2.009   1.128   3.289
  113DPPC   C28 5628   1.867   1.075   3.269
  113DPPC   C29 5629   1.851   0.928   3.227
  113DPPC   C30 5630   1.705   0.890   3.254
  113DPPC   C31 5631   1.690   0.740   3.228
  113DPPC   C32 5632   1.293   1.243   2.042
  113DPPC   O33 5633   1.194   1.338   2.081
  113DPPC   C34 5634   1.079   1.270   2.109
  113DPPC   O35 5635   1.047   1.172   2.041
  113DPPC   C36 5636   0.975   1.362   2.172
  113DPPC   C37 5637   0.911   1.299   2.295
  113DPPC   C38 5638   0.798   1.391   2.343
  113DPPC   C39 5639   0.758   1.348   2.484
  113DPPC   C40 5640   0.667   1.455   2.544
  113DPPC   C41 5641   0.598   1.416   2.675
  113DPPC   C42 5642   0.708   1.364   2.769
  113DPPC   C43 5643   0.657   1.365   2.914
  113DPPC   C44 5644   0.529   1.285   2.936
  113DPPC   C45 5645   0.556   1.140   2.977
  113DPPC   C46 5646   0.429   1.062   3.009
  113DPPC   C47 5647   0.469   0.917   3.041
  113DPPC   C48 5648   0.343   0.832   3.058
  113DPPC   C49 5649   0.381   0.689   3.098
  113DPPC   C50 5650   0.245   0.618   3.094
  114DPPC    C1 5651   1.114   3.976   1.802
  114DPPC    C2 5652   1.209   4.041   1.587
  114DPPC    C3 5653   1.155   4.201   1.751
  114DPPC    N4 5654   1.208   4.065   1.732
  114DPPC    C5 5655   1.333   4.042   1.806
  114DPPC    C6 5656   1.465   4.107   1.763
  114DPPC    O7 5657   1.574   4.056   1.840
  114DPPC    P8 5658   1.707   4.124   1.778
  114DPPC    O9 5659   1.671   4.171   1.643
  114DPPC   O10 5660   1.821   4.029   1.786
  114DPPC   O11 5661   1.713   4.242   1.887
  114DPPC   C12 5662   1.752   4.173   2.006
  114DPPC   C13 5663   1.693   4.241   2.129
  114DPPC   O14 5664   1.742   4.181   2.250
  114DPPC   C15 5665   1.856   4.229   2.307
  114DPPC   O16 5666   1.938   4.283   2.233
  114DPPC   C17 5667   1.905   4.166   2.437
  114DPPC   C18 5668   1.990   4.041   2.412
  114DPPC   C19 5669   2.115   4.047   2.500
  114DPPC   C20 5670   2.203   3.923   2.496
  114DPPC   C21 5671   2.302   3.909   2.612
  114DPPC   C22 5672   2.225   3.927   2.743
  114DPPC   C23 5673   2.325   3.962   2.853
  114DPPC   C24 5674   2.247   4.049   2.952
  114DPPC   C25 5675   2.347   4.125   3.039
  114DPPC   C26 5676   2.297   4.202   3.161
  114DPPC   C27 5677   2.407   4.285   3.227
  114DPPC   C28 5678   2.356   4.360   3.350
  114DPPC   C29 5679   2.470   4.434   3.420
  114DPPC   C30 5680   2.547   4.529   3.328
  114DPPC   C31 5681   2.657   4.581   3.420
  114DPPC   C32 5682   1.545   4.213   2.105
  114DPPC   O33 5683   1.453   4.312   2.154
  114DPPC   C34 5684   1.325   4.267   2.159
  114DPPC   O35 5685   1.286   4.198   2.064
  114DPPC   C36 5686   1.223   4.337   2.249
  114DPPC   C37 5687   1.165   4.240   2.353
  114DPPC   C38 5688   1.074   4.313   2.452
  114DPPC   C39 5689   1.016   4.201   2.538
  114DPPC   C40 5690   1.118   4.144   2.637
  114DPPC   C41 5691   1.056   4.041   2.732
  114DPPC   C42 5692   0.943   4.093   2.821
  114DPPC   C43 5693   1.002   4.190   2.924
  114DPPC   C44 5694   0.894   4.267   3.001
  114DPPC   C45 5695   0.959   4.394   3.057
  114DPPC   C46 5696   0.869   4.481   3.144
  114DPPC   C47 5697   0.793   4.576   3.052
  114DPPC   C48 5698   0.640   4.563   3.049
  114DPPC   C49 5699   0.567   4.662   2.958
  114DPPC   C50 5700   0.419   4.623   2.957
  115DPPC    C1 5701   3.999   3.202   2.146
  115DPPC    C2 5702   3.900   3.342   1.985
  115DPPC    C3 5703   3.792   3.314   2.193
  115DPPC    N4 5704   3.924   3.327   2.129
  115DPPC    C5 5705   4.008   3.432   2.188
  115DPPC    C6 5706   3.995   3.573   2.130
  115DPPC    O7 5707   3.875   3.640   2.169
  115DPPC    P8 5708   3.866   3.787   2.105
  115DPPC    O9 5709   3.761   3.752   2.007
  115DPPC   O10 5710   4.011   3.806   2.082
  115DPPC   O11 5711   3.807   3.864   2.233
  115DPPC   C12 5712   3.927   3.885   2.307
  115DPPC   C13 5713   3.922   3.980   2.427
  115DPPC   O14 5714   4.047   3.993   2.497
  115DPPC   C15 5715   4.099   4.118   2.508
  115DPPC   O16 5716   4.051   4.209   2.440
  115DPPC   C17 5717   4.220   4.134   2.600
  115DPPC   C18 5718   4.259   4.282   2.611
  115DPPC   C19 5719   4.402   4.289   2.663
  115DPPC   C20 5720   4.440   4.431   2.703
  115DPPC   C21 5721   4.577   4.443   2.770
  115DPPC   C22 5722   4.577   4.359   2.898
  115DPPC   C23 5723   4.722   4.326   2.935
  115DPPC   C24 5724   4.742   4.313   3.086
  115DPPC   C25 5725   4.882   4.262   3.120
  115DPPC   C26 5726   4.897   4.258   3.272
  115DPPC   C27 5727   5.043   4.238   3.313
  115DPPC   C28 5728   5.066   4.231   3.464
  115DPPC   C29 5729   5.007   4.104   3.525
  115DPPC   C30 5730   5.006   4.110   3.678
  115DPPC   C31 5731   4.882   4.190   3.718
  115DPPC   C32 5732   3.796   3.928   2.496
  115DPPC   O33 5733   3.753   4.005   2.608
  115DPPC   C34 5734   3.697   4.127   2.590
  115DPPC   O35 5735   3.676   4.186   2.484
  115DPPC   C36 5736   3.672   4.198   2.724
  115DPPC   C37 5737   3.780   4.183   2.832
  115DPPC   C38 5738   3.783   4.050   2.907
  115DPPC   C39 5739   3.876   4.071   3.026
  115DPPC   C40 5740   4.011   4.118   2.970
  115DPPC   C41 5741   4.111   4.139   3.084
  115DPPC   C42 5742   4.077   4.262   3.168
  115DPPC   C43 5743   4.161   4.240   3.294
  115DPPC   C44 5744   4.132   4.354   3.392
  115DPPC   C45 5745   3.981   4.368   3.410
  115DPPC   C46 5746   3.949   4.486   3.502
  115DPPC   C47 5747   3.799   4.500   3.525
  115DPPC   C48 5748   3.737   4.621   3.596
  115DPPC   C49 5749   3.586   4.596   3.611
  115DPPC   C50 5750   3.511   4.701   3.692
  116DPPC    C1 5751   6.743   8.506   2.195
  116DPPC    C2 5752   6.965   8.483   2.256
  116DPPC    C3 5753   6.797   8.338   2.338
  116DPPC    N4 5754   6.847   8.404   2.216
  116DPPC    C5 5755   6.875   8.320   2.099
  116DPPC    C6 5756   6.768   8.214   2.073
  116DPPC    O7 5757   6.783   8.094   2.149
  116DPPC    P8 5758   6.663   7.991   2.118
  116DPPC    O9 5759   6.705   7.849   2.122
  116DPPC   O10 5760   6.591   8.045   2.001
  116DPPC   O11 5761   6.578   8.025   2.250
  116DPPC   C12 5762   6.573   7.915   2.342
  116DPPC   C13 5763   6.479   7.938   2.460
  116DPPC   O14 5764   6.343   7.947   2.415
  116DPPC   C15 5765   6.227   7.967   2.482
  116DPPC   O16 5766   6.118   7.962   2.426
  116DPPC   C17 5767   6.242   7.942   2.632
  116DPPC   C18 5768   6.203   8.056   2.727
  116DPPC   C19 5769   6.252   8.013   2.865
  116DPPC   C20 5770   6.220   8.129   2.960
  116DPPC   C21 5771   6.323   8.238   2.931
  116DPPC   C22 5772   6.291   8.358   3.021
  116DPPC   C23 5773   6.282   8.311   3.166
  116DPPC   C24 5774   6.298   8.427   3.265
  116DPPC   C25 5775   6.326   8.391   3.411
  116DPPC   C26 5776   6.217   8.307   3.478
  116DPPC   C27 5777   6.262   8.257   3.615
  116DPPC   C28 5778   6.177   8.137   3.660
  116DPPC   C29 5779   6.210   8.076   3.796
  116DPPC   C30 5780   6.111   7.969   3.841
  116DPPC   C31 5781   5.971   8.024   3.872
  116DPPC   C32 5782   6.533   8.062   2.532
  116DPPC   O33 5783   6.650   8.018   2.601
  116DPPC   C34 5784   6.699   8.119   2.678
  116DPPC   O35 5785   6.629   8.217   2.700
  116DPPC   C36 5786   6.823   8.084   2.761
  116DPPC   C37 5787   6.947   8.057   2.675
  116DPPC   C38 5788   7.066   8.031   2.768
  116DPPC   C39 5789   7.090   8.132   2.880
  116DPPC   C40 5790   7.193   8.093   2.985
  116DPPC   C41 5791   7.322   8.044   2.917
  116DPPC   C42 5792   7.411   8.161   2.873
  116DPPC   C43 5793   7.488   8.237   2.980
  116DPPC   C44 5794   7.625   8.173   3.005
  116DPPC   C45 5795   7.694   8.233   3.128
  116DPPC   C46 5796   7.720   8.382   3.104
  116DPPC   C47 5797   7.822   8.432   3.207
  116DPPC   C48 5798   7.756   8.476   3.338
  116DPPC   C49 5799   7.842   8.578   3.413
  116DPPC   C50 5800   7.976   8.519   3.458
  117DPPC    C1 5801   5.677   4.569   1.925
  117DPPC    C2 5802   5.816   4.608   1.755
  117DPPC    C3 5803   5.863   4.664   1.988
  117DPPC    N4 5804   5.820   4.560   1.894
  117DPPC    C5 5805   5.856   4.419   1.916
  117DPPC    C6 5806   5.983   4.369   1.846
  117DPPC    O7 5807   6.000   4.228   1.858
  117DPPC    P8 5808   6.128   4.190   1.768
  117DPPC    O9 5809   6.115   4.263   1.639
  117DPPC   O10 5810   6.189   4.056   1.776
  117DPPC   O11 5811   6.237   4.277   1.847
  117DPPC   C12 5812   6.290   4.212   1.963
  117DPPC   C13 5813   6.397   4.297   2.033
  117DPPC   O14 5814   6.493   4.224   2.110
  117DPPC   C15 5815   6.591   4.149   2.052
  117DPPC   O16 5816   6.601   4.147   1.930
  117DPPC   C17 5817   6.686   4.066   2.139
  117DPPC   C18 5818   6.645   4.070   2.286
  117DPPC   C19 5819   6.764   4.024   2.370
  117DPPC   C20 5820   6.766   4.058   2.520
  117DPPC   C21 5821   6.831   3.950   2.607
  117DPPC   C22 5822   6.777   3.813   2.569
  117DPPC   C23 5823   6.843   3.700   2.648
  117DPPC   C24 5824   6.824   3.726   2.798
  117DPPC   C25 5825   6.870   3.601   2.872
  117DPPC   C26 5826   6.786   3.480   2.829
  117DPPC   C27 5827   6.699   3.424   2.942
  117DPPC   C28 5828   6.620   3.301   2.897
  117DPPC   C29 5829   6.547   3.247   3.020
  117DPPC   C30 5830   6.426   3.158   2.993
  117DPPC   C31 5831   6.352   3.111   3.118
  117DPPC   C32 5832   6.325   4.413   2.103
  117DPPC   O33 5833   6.229   4.371   2.201
  117DPPC   C34 5834   6.153   4.478   2.239
  117DPPC   O35 5835   6.146   4.571   2.158
  117DPPC   C36 5836   6.054   4.445   2.350
  117DPPC   C37 5837   5.924   4.393   2.289
  117DPPC   C38 5838   5.821   4.376   2.401
  117DPPC   C39 5839   5.817   4.506   2.482
  117DPPC   C40 5840   5.692   4.589   2.456
  117DPPC   C41 5841   5.695   4.701   2.560
  117DPPC   C42 5842   5.700   4.635   2.698
  117DPPC   C43 5843   5.658   4.741   2.801
  117DPPC   C44 5844   5.690   4.693   2.943
  117DPPC   C45 5845   5.681   4.799   3.053
  117DPPC   C46 5846   5.708   4.727   3.185
  117DPPC   C47 5847   5.655   4.824   3.292
  117DPPC   C48 5848   5.703   4.781   3.430
  117DPPC   C49 5849   5.671   4.632   3.430
  117DPPC   C50 5850   5.716   4.578   3.566
  118DPPC    C1 5851   4.637   0.160   1.600
  118DPPC    C2 5852   4.864   0.110   1.627
  118DPPC    C3 5853   4.764   0.340   1.685
  118DPPC    N4 5854   4.755   0.193   1.681
  118DPPC    C5 5855   4.743   0.162   1.824
  118DPPC    C6 5856   4.719   0.017   1.867
  118DPPC    O7 5857   4.577  -0.002   1.867
  118DPPC    P8 5858   4.547  -0.154   1.911
  118DPPC    O9 5859   4.616  -0.232   1.806
  118DPPC   O10 5860   4.402  -0.170   1.938
  118DPPC   O11 5861   4.628  -0.143   2.049
  118DPPC   C12 5862   4.528  -0.134   2.151
  118DPPC   C13 5863   4.575  -0.119   2.296
  118DPPC   O14 5864   4.591  -0.244   2.364
  118DPPC   C15 5865   4.715  -0.256   2.419
  118DPPC   O16 5866   4.788  -0.157   2.423
  118DPPC   C17 5867   4.747  -0.382   2.500
  118DPPC   C18 5868   4.758  -0.515   2.425
  118DPPC   C19 5869   4.848  -0.605   2.510
  118DPPC   C20 5870   4.781  -0.637   2.644
  118DPPC   C21 5871   4.733  -0.780   2.669
  118DPPC   C22 5872   4.645  -0.801   2.792
  118DPPC   C23 5873   4.568  -0.932   2.810
  118DPPC   C24 5874   4.487  -0.940   2.940
  118DPPC   C25 5875   4.401  -1.065   2.928
  118DPPC   C26 5876   4.295  -1.094   3.034
  118DPPC   C27 5877   4.213  -1.220   3.008
  118DPPC   C28 5878   4.126  -1.255   3.128
  118DPPC   C29 5879   4.202  -1.255   3.261
  118DPPC   C30 5880   4.108  -1.260   3.382
  118DPPC   C31 5881   4.012  -1.377   3.359
  118DPPC   C32 5882   4.478  -0.019   2.359
  118DPPC   O33 5883   4.347  -0.074   2.379
  118DPPC   C34 5884   4.259   0.024   2.413
  118DPPC   O35 5885   4.289   0.139   2.445
  118DPPC   C36 5886   4.117  -0.026   2.440
  118DPPC   C37 5887   4.133  -0.135   2.546
  118DPPC   C38 5888   3.995  -0.187   2.587
  118DPPC   C39 5889   4.011  -0.294   2.695
  118DPPC   C40 5890   3.868  -0.330   2.735
  118DPPC   C41 5891   3.850  -0.443   2.837
  118DPPC   C42 5892   3.704  -0.440   2.881
  118DPPC   C43 5893   3.667  -0.562   2.965
  118DPPC   C44 5894   3.515  -0.563   2.976
  118DPPC   C45 5895   3.477  -0.679   3.068
  118DPPC   C46 5896   3.324  -0.689   3.068
  118DPPC   C47 5897   3.291  -0.809   3.158
  118DPPC   C48 5898   3.273  -0.760   3.301
  118DPPC   C49 5899   3.163  -0.654   3.315
  118DPPC   C50 5900   3.038  -0.715   3.251
  119DPPC    C1 5901   0.390   6.285   0.624
  119DPPC    C2 5902   0.504   6.190   0.823
  119DPPC    C3 5903   0.567   6.400   0.731
  119DPPC    N4 5904   0.454   6.309   0.754
  119DPPC    C5 5905   0.361   6.375   0.847
  119DPPC    C6 5906   0.218   6.323   0.860
  119DPPC    O7 5907   0.157   6.371   0.980
  119DPPC    P8 5908   0.031   6.274   1.007
  119DPPC    O9 5909   0.077   6.135   0.987
  119DPPC   O10 5910  -0.075   6.341   0.929
  119DPPC   O11 5911   0.011   6.287   1.166
  119DPPC   C12 5912   0.111   6.197   1.214
  119DPPC   C13 5913   0.157   6.230   1.356
  119DPPC   O14 5914   0.071   6.201   1.468
  119DPPC   C15 5915   0.097   6.078   1.519
  119DPPC   O16 5916   0.196   6.018   1.478
  119DPPC   C17 5917   0.000   6.013   1.618
  119DPPC   C18 5918   0.028   6.051   1.764
  119DPPC   C19 5919  -0.022   6.186   1.815
  119DPPC   C20 5920   0.062   6.201   1.942
  119DPPC   C21 5921   0.032   6.339   2.001
  119DPPC   C22 5922   0.115   6.345   2.129
  119DPPC   C23 5923   0.073   6.458   2.223
  119DPPC   C24 5924   0.131   6.438   2.363
  119DPPC   C25 5925   0.283   6.451   2.363
  119DPPC   C26 5926   0.326   6.445   2.509
  119DPPC   C27 5927   0.475   6.439   2.543
  119DPPC   C28 5928   0.568   6.532   2.464
  119DPPC   C29 5929   0.700   6.535   2.540
  119DPPC   C30 5930   0.676   6.576   2.686
  119DPPC   C31 5931   0.802   6.555   2.770
  119DPPC   C32 5932   0.204   6.375   1.342
  119DPPC   O33 5933   0.231   6.435   1.469
  119DPPC   C34 5934   0.242   6.570   1.469
  119DPPC   O35 5935   0.232   6.621   1.358
  119DPPC   C36 5936   0.226   6.654   1.596
  119DPPC   C37 5937   0.249   6.580   1.728
  119DPPC   C38 5938   0.221   6.662   1.854
  119DPPC   C39 5939   0.309   6.787   1.863
  119DPPC   C40 5940   0.307   6.865   1.995
  119DPPC   C41 5941   0.357   6.755   2.089
  119DPPC   C42 5942   0.307   6.803   2.225
  119DPPC   C43 5943   0.387   6.929   2.260
  119DPPC   C44 5944   0.333   6.983   2.392
  119DPPC   C45 5945   0.381   7.122   2.433
  119DPPC   C46 5946   0.321   7.162   2.568
  119DPPC   C47 5947   0.191   7.240   2.551
  119DPPC   C48 5948   0.130   7.280   2.686
  119DPPC   C49 5949   0.230   7.351   2.777
  119DPPC   C50 5950   0.191   7.351   2.925
  120DPPC    C1 5951   4.085   6.547   2.100
  120DPPC    C2 5952   3.887   6.638   1.994
  120DPPC    C3 5953   3.858   6.474   2.158
  120DPPC    N4 5954   3.944   6.586   2.119
  120DPPC    C5 5955   3.943   6.689   2.224
  120DPPC    C6 5956   4.036   6.810   2.227
  120DPPC    O7 5957   4.020   6.896   2.340
  120DPPC    P8 5958   4.157   6.978   2.364
  120DPPC    O9 5959   4.139   7.081   2.469
  120DPPC   O10 5960   4.200   7.013   2.227
  120DPPC   O11 5961   4.245   6.859   2.427
  120DPPC   C12 5962   4.202   6.840   2.562
  120DPPC   C13 5963   4.121   6.712   2.578
  120DPPC   O14 5964   4.007   6.728   2.665
  120DPPC   C15 5965   3.885   6.699   2.612
  120DPPC   O16 5966   3.867   6.633   2.510
  120DPPC   C17 5967   3.760   6.710   2.700
  120DPPC   C18 5968   3.737   6.574   2.765
  120DPPC   C19 5969   3.602   6.555   2.836
  120DPPC   C20 5970   3.580   6.661   2.944
  120DPPC   C21 5971   3.435   6.661   2.994
  120DPPC   C22 5972   3.432   6.767   3.105
  120DPPC   C23 5973   3.292   6.764   3.168
  120DPPC   C24 5974   3.279   6.885   3.261
  120DPPC   C25 5975   3.154   6.862   3.346
  120DPPC   C26 5976   3.157   6.726   3.417
  120DPPC   C27 5977   3.018   6.686   3.466
  120DPPC   C28 5978   3.019   6.697   3.618
  120DPPC   C29 5979   2.897   6.639   3.691
  120DPPC   C30 5980   2.795   6.749   3.720
  120DPPC   C31 5981   2.674   6.704   3.803
  120DPPC   C32 5982   4.199   6.581   2.596
  120DPPC   O33 5983   4.316   6.590   2.678
  120DPPC   C34 5984   4.377   6.470   2.693
  120DPPC   O35 5985   4.337   6.372   2.629
  120DPPC   C36 5986   4.497   6.441   2.785
  120DPPC   C37 5987   4.458   6.430   2.932
  120DPPC   C38 5988   4.574   6.402   3.027
  120DPPC   C39 5989   4.666   6.525   3.020
  120DPPC   C40 5990   4.790   6.521   3.109
  120DPPC   C41 5991   4.851   6.661   3.125
  120DPPC   C42 5992   4.881   6.727   2.991
  120DPPC   C43 5993   4.915   6.875   3.007
  120DPPC   C44 5994   4.923   6.941   2.869
  120DPPC   C45 5995   4.960   7.089   2.873
  120DPPC   C46 5996   4.883   7.174   2.975
  120DPPC   C47 5997   4.965   7.300   3.004
  120DPPC   C48 5998   4.888   7.396   3.095
  120DPPC   C49 5999   4.985   7.507   3.134
  120DPPC   C50 6000   4.919   7.609   3.227
  121DPPC    C1 6001   7.191   3.257   2.234
  121DPPC    C2 6002   7.241   3.072   2.365
  121DPPC    C3 6003   7.083   3.047   2.179
  121DPPC    N4 6004   7.206   3.111   2.228
  121DPPC    C5 6005   7.315   3.063   2.142
  121DPPC    C6 6006   7.348   3.135   2.011
  121DPPC    O7 6007   7.476   3.086   1.970
  121DPPC    P8 6008   7.518   3.132   1.822
  121DPPC    O9 6009   7.405   3.183   1.742
  121DPPC   O10 6010   7.613   3.035   1.762
  121DPPC   O11 6011   7.614   3.255   1.866
  121DPPC   C12 6012   7.728   3.209   1.939
  121DPPC   C13 6013   7.767   3.289   2.064
  121DPPC   O14 6014   7.890   3.248   2.126
  121DPPC   C15 6015   7.991   3.339   2.128
  121DPPC   O16 6016   7.996   3.428   2.042
  121DPPC   C17 6017   8.111   3.316   2.219
  121DPPC   C18 6018   8.107   3.410   2.341
  121DPPC   C19 6019   8.002   3.360   2.440
  121DPPC   C20 6020   8.021   3.436   2.572
  121DPPC   C21 6021   7.973   3.359   2.696
  121DPPC   C22 6022   8.006   3.448   2.817
  121DPPC   C23 6023   7.927   3.408   2.942
  121DPPC   C24 6024   7.779   3.438   2.919
  121DPPC   C25 6025   7.697   3.389   3.038
  121DPPC   C26 6026   7.749   3.442   3.172
  121DPPC   C27 6027   7.702   3.584   3.202
  121DPPC   C28 6028   7.779   3.636   3.324
  121DPPC   C29 6029   7.921   3.655   3.271
  121DPPC   C30 6030   8.014   3.699   3.384
  121DPPC   C31 6031   8.019   3.599   3.500
  121DPPC   C32 6032   7.657   3.275   2.170
  121DPPC   O33 6033   7.654   3.387   2.258
  121DPPC   C34 6034   7.571   3.365   2.363
  121DPPC   O35 6035   7.464   3.304   2.350
  121DPPC   C36 6036   7.608   3.430   2.497
  121DPPC   C37 6037   7.622   3.580   2.475
  121DPPC   C38 6038   7.699   3.649   2.588
  121DPPC   C39 6039   7.729   3.798   2.572
  121DPPC   C40 6040   7.812   3.832   2.696
  121DPPC   C41 6041   7.857   3.978   2.684
  121DPPC   C42 6042   7.926   4.015   2.816
  121DPPC   C43 6043   7.830   4.000   2.935
  121DPPC   C44 6044   7.893   4.067   3.057
  121DPPC   C45 6045   7.798   4.081   3.177
  121DPPC   C46 6046   7.883   4.142   3.289
  121DPPC   C47 6047   7.809   4.159   3.422
  121DPPC   C48 6048   7.909   4.188   3.534
  121DPPC   C49 6049   7.842   4.197   3.671
  121DPPC   C50 6050   7.952   4.251   3.763
  122DPPC    C1 6051   6.857   6.598   1.623
  122DPPC    C2 6052   7.090   6.612   1.576
  122DPPC    C3 6053   6.936   6.758   1.479
  122DPPC    N4 6054   6.969   6.691   1.605
  122DPPC    C5 6055   6.973   6.777   1.725
  122DPPC    C6 6056   7.094   6.866   1.752
  122DPPC    O7 6057   7.107   6.980   1.667
  122DPPC    P8 6058   7.267   6.999   1.673
  122DPPC    O9 6059   7.288   7.125   1.598
  122DPPC   O10 6060   7.318   6.865   1.640
  122DPPC   O11 6061   7.286   7.044   1.827
  122DPPC   C12 6062   7.227   7.167   1.871
  122DPPC   C13 6063   7.278   7.208   2.010
  122DPPC   O14 6064   7.416   7.236   2.033
  122DPPC   C15 6065   7.468   7.356   1.996
  122DPPC   O16 6066   7.403   7.438   1.930
  122DPPC   C17 6067   7.595   7.397   2.070
  122DPPC   C18 6068   7.580   7.388   2.222
  122DPPC   C19 6069   7.716   7.437   2.273
  122DPPC   C20 6070   7.709   7.443   2.425
  122DPPC   C21 6071   7.851   7.443   2.484
  122DPPC   C22 6072   7.918   7.306   2.489
  122DPPC   C23 6073   8.055   7.320   2.556
  122DPPC   C24 6074   8.078   7.179   2.611
  122DPPC   C25 6075   8.196   7.166   2.707
  122DPPC   C26 6076   8.197   7.018   2.748
  122DPPC   C27 6077   8.292   7.003   2.867
  122DPPC   C28 6078   8.258   7.109   2.971
  122DPPC   C29 6079   8.331   7.086   3.104
  122DPPC   C30 6080   8.320   7.212   3.189
  122DPPC   C31 6081   8.366   7.193   3.334
  122DPPC   C32 6082   7.238   7.084   2.090
  122DPPC   O33 6083   7.095   7.083   2.097
  122DPPC   C34 6084   7.037   6.985   2.171
  122DPPC   O35 6085   7.091   6.875   2.173
  122DPPC   C36 6086   6.887   7.002   2.198
  122DPPC   C37 6087   6.859   6.976   2.346
  122DPPC   C38 6088   6.842   6.826   2.367
  122DPPC   C39 6089   6.812   6.805   2.516
  122DPPC   C40 6090   6.933   6.838   2.604
  122DPPC   C41 6091   6.894   6.813   2.749
  122DPPC   C42 6092   7.005   6.833   2.853
  122DPPC   C43 6093   7.059   6.975   2.863
  122DPPC   C44 6094   7.195   6.987   2.933
  122DPPC   C45 6095   7.180   6.925   3.073
  122DPPC   C46 6096   7.310   6.937   3.152
  122DPPC   C47 6097   7.336   6.817   3.244
  122DPPC   C48 6098   7.461   6.829   3.333
  122DPPC   C49 6099   7.581   6.779   3.253
  122DPPC   C50 6100   7.705   6.823   3.332
  123DPPC    C1 6101   8.081   8.134   1.861
  123DPPC    C2 6102   7.897   8.239   1.777
  123DPPC    C3 6103   8.012   8.130   1.631
  123DPPC    N4 6104   7.968   8.110   1.770
  123DPPC    C5 6105   7.888   7.989   1.793
  123DPPC    C6 6106   7.958   7.855   1.771
  123DPPC    O7 6107   7.868   7.746   1.750
  123DPPC    P8 6108   7.956   7.630   1.680
  123DPPC    O9 6109   8.018   7.717   1.577
  123DPPC   O10 6110   7.857   7.523   1.655
  123DPPC   O11 6111   8.045   7.602   1.812
  123DPPC   C12 6112   7.994   7.476   1.859
  123DPPC   C13 6113   8.076   7.436   1.982
  123DPPC   O14 6114   8.016   7.316   2.032
  123DPPC   C15 6115   8.079   7.200   1.999
  123DPPC   O16 6116   8.150   7.193   1.900
  123DPPC   C17 6117   8.008   7.072   2.045
  123DPPC   C18 6118   8.106   6.975   2.110
  123DPPC   C19 6119   8.036   6.852   2.169
  123DPPC   C20 6120   8.139   6.779   2.255
  123DPPC   C21 6121   8.132   6.814   2.404
  123DPPC   C22 6122   8.040   6.732   2.495
  123DPPC   C23 6123   8.054   6.581   2.474
  123DPPC   C24 6124   7.937   6.526   2.557
  123DPPC   C25 6125   7.916   6.375   2.546
  123DPPC   C26 6126   7.799   6.328   2.634
  123DPPC   C27 6127   7.755   6.185   2.603
  123DPPC   C28 6128   7.661   6.123   2.706
  123DPPC   C29 6129   7.747   6.120   2.832
  123DPPC   C30 6130   7.694   6.036   2.949
  123DPPC   C31 6131   7.771   6.054   3.080
  123DPPC   C32 6132   8.059   7.555   2.076
  123DPPC   O33 6133   8.182   7.599   2.135
  123DPPC   C34 6134   8.158   7.699   2.224
  123DPPC   O35 6135   8.066   7.700   2.305
  123DPPC   C36 6136   8.290   7.777   2.236
  123DPPC   C37 6137   8.328   7.809   2.380
  123DPPC   C38 6138   8.363   7.685   2.463
  123DPPC   C39 6139   8.373   7.710   2.613
  123DPPC   C40 6140   8.409   7.585   2.693
  123DPPC   C41 6141   8.383   7.603   2.843
  123DPPC   C42 6142   8.247   7.549   2.886
  123DPPC   C43 6143   8.248   7.589   3.033
  123DPPC   C44 6144   8.108   7.569   3.091
  123DPPC   C45 6145   8.109   7.601   3.241
  123DPPC   C46 6146   8.165   7.743   3.247
  123DPPC   C47 6147   8.184   7.763   3.397
  123DPPC   C48 6148   8.250   7.638   3.457
  123DPPC   C49 6149   8.299   7.663   3.600
  123DPPC   C50 6150   8.189   7.679   3.706
  124DPPC    C1 6151   6.318   3.413   2.137
  124DPPC    C2 6152   6.294   3.253   2.301
  124DPPC    C3 6153   6.115   3.291   2.142
  124DPPC    N4 6154   6.260   3.280   2.161
  124DPPC    C5 6155   6.309   3.179   2.066
  124DPPC    C6 6156   6.458   3.179   2.032
  124DPPC    O7 6157   6.553   3.183   2.139
  124DPPC    P8 6158   6.701   3.181   2.076
  124DPPC    O9 6159   6.688   3.247   1.944
  124DPPC   O10 6160   6.785   3.059   2.086
  124DPPC   O11 6161   6.761   3.278   2.189
  124DPPC   C12 6162   6.775   3.216   2.317
  124DPPC   C13 6163   6.811   3.313   2.429
  124DPPC   O14 6164   6.806   3.249   2.558
  124DPPC   C15 6165   6.912   3.170   2.589
  124DPPC   O16 6166   7.001   3.157   2.506
  124DPPC   C17 6167   6.926   3.104   2.727
  124DPPC   C18 6168   7.068   3.109   2.784
  124DPPC   C19 6169   7.069   3.074   2.933
  124DPPC   C20 6170   6.979   3.160   3.022
  124DPPC   C21 6171   6.989   3.115   3.168
  124DPPC   C22 6172   6.909   3.198   3.268
  124DPPC   C23 6173   6.907   3.147   3.412
  124DPPC   C24 6174   6.781   3.209   3.472
  124DPPC   C25 6175   6.660   3.185   3.382
  124DPPC   C26 6176   6.530   3.222   3.453
  124DPPC   C27 6177   6.522   3.374   3.453
  124DPPC   C28 6178   6.405   3.407   3.545
  124DPPC   C29 6179   6.405   3.540   3.622
  124DPPC   C30 6180   6.293   3.538   3.726
  124DPPC   C31 6181   6.338   3.497   3.867
  124DPPC   C32 6182   6.724   3.438   2.420
  124DPPC   O33 6183   6.581   3.442   2.430
  124DPPC   C34 6184   6.542   3.572   2.419
  124DPPC   O35 6185   6.591   3.639   2.329
  124DPPC   C36 6186   6.436   3.621   2.518
  124DPPC   C37 6187   6.427   3.536   2.645
  124DPPC   C38 6188   6.312   3.584   2.734
  124DPPC   C39 6189   6.294   3.489   2.852
  124DPPC   C40 6190   6.156   3.503   2.917
  124DPPC   C41 6191   6.144   3.450   3.060
  124DPPC   C42 6192   5.996   3.434   3.097
  124DPPC   C43 6193   5.969   3.410   3.246
  124DPPC   C44 6194   5.935   3.262   3.263
  124DPPC   C45 6195   5.918   3.244   3.414
  124DPPC   C46 6196   5.931   3.094   3.439
  124DPPC   C47 6197   5.899   3.064   3.585
  124DPPC   C48 6198   5.907   2.913   3.612
  124DPPC   C49 6199   5.814   2.870   3.725
  124DPPC   C50 6200   5.838   2.721   3.750
  125DPPC    C1 6201   2.375   0.089   1.530
  125DPPC    C2 6202   2.247   0.204   1.698
  125DPPC    C3 6203   2.148   0.116   1.510
  125DPPC    N4 6204   2.252   0.087   1.609
  125DPPC    C5 6205   2.235  -0.033   1.694
  125DPPC    C6 6206   2.239  -0.168   1.622
  125DPPC    O7 6207   2.114  -0.203   1.561
  125DPPC    P8 6208   2.135  -0.327   1.462
  125DPPC    O9 6209   2.266  -0.303   1.397
  125DPPC   O10 6210   2.009  -0.340   1.385
  125DPPC   O11 6211   2.137  -0.429   1.587
  125DPPC   C12 6212   2.001  -0.470   1.606
  125DPPC   C13 6213   1.974  -0.532   1.743
  125DPPC   O14 6214   1.897  -0.451   1.832
  125DPPC   C15 6215   1.765  -0.442   1.799
  125DPPC   O16 6216   1.701  -0.525   1.734
  125DPPC   C17 6217   1.699  -0.335   1.886
  125DPPC   C18 6218   1.634  -0.404   2.006
  125DPPC   C19 6219   1.555  -0.298   2.082
  125DPPC   C20 6220   1.634  -0.210   2.179
  125DPPC   C21 6221   1.544  -0.100   2.236
  125DPPC   C22 6222   1.621  -0.031   2.349
  125DPPC   C23 6223   1.518   0.054   2.425
  125DPPC   C24 6224   1.400  -0.040   2.447
  125DPPC   C25 6225   1.286   0.026   2.526
  125DPPC   C26 6226   1.327   0.080   2.663
  125DPPC   C27 6227   1.219   0.167   2.726
  125DPPC   C28 6228   1.108   0.072   2.772
  125DPPC   C29 6229   0.981   0.153   2.796
  125DPPC   C30 6230   0.864   0.072   2.853
  125DPPC   C31 6231   0.744   0.166   2.867
  125DPPC   C32 6232   2.111  -0.562   1.805
  125DPPC   O33 6233   2.115  -0.636   1.927
  125DPPC   C34 6234   2.239  -0.657   1.981
  125DPPC   O35 6235   2.337  -0.662   1.907
  125DPPC   C36 6236   2.235  -0.710   2.124
  125DPPC   C37 6237   2.146  -0.624   2.214
  125DPPC   C38 6238   2.215  -0.494   2.256
  125DPPC   C39 6239   2.355  -0.529   2.308
  125DPPC   C40 6240   2.433  -0.399   2.332
  125DPPC   C41 6241   2.361  -0.296   2.418
  125DPPC   C42 6242   2.460  -0.194   2.475
  125DPPC   C43 6243   2.370  -0.099   2.555
  125DPPC   C44 6244   2.456   0.017   2.605
  125DPPC   C45 6245   2.523   0.096   2.493
  125DPPC   C46 6246   2.580   0.226   2.549
  125DPPC   C47 6247   2.460   0.286   2.623
  125DPPC   C48 6248   2.492   0.423   2.682
  125DPPC   C49 6249   2.380   0.457   2.780
  125DPPC   C50 6250   2.432   0.567   2.873
  126DPPC    C1 6251   6.532   3.827   1.774
  126DPPC    C2 6252   6.498   3.986   1.614
  126DPPC    C3 6253   6.555   3.771   1.531
  126DPPC    N4 6254   6.481   3.841   1.637
  126DPPC    C5 6255   6.338   3.813   1.621
  126DPPC    C6 6256   6.282   3.681   1.676
  126DPPC    O7 6257   6.144   3.651   1.658
  126DPPC    P8 6258   6.075   3.517   1.714
  126DPPC    O9 6259   6.182   3.445   1.787
  126DPPC   O10 6260   6.008   3.475   1.589
  126DPPC   O11 6261   5.979   3.590   1.820
  126DPPC   C12 6262   6.031   3.640   1.944
  126DPPC   C13 6263   6.083   3.783   1.936
  126DPPC   O14 6264   6.140   3.829   2.060
  126DPPC   C15 6265   6.268   3.797   2.092
  126DPPC   O16 6266   6.335   3.714   2.030
  126DPPC   C17 6267   6.317   3.874   2.214
  126DPPC   C18 6268   6.196   3.922   2.295
  126DPPC   C19 6269   6.237   3.948   2.440
  126DPPC   C20 6270   6.133   4.019   2.527
  126DPPC   C21 6271   6.172   4.031   2.674
  126DPPC   C22 6272   6.066   4.107   2.754
  126DPPC   C23 6273   6.061   4.255   2.716
  126DPPC   C24 6274   5.970   4.323   2.818
  126DPPC   C25 6275   6.033   4.317   2.958
  126DPPC   C26 6276   5.962   4.410   3.057
  126DPPC   C27 6277   6.036   4.428   3.189
  126DPPC   C28 6278   6.169   4.505   3.188
  126DPPC   C29 6279   6.242   4.479   3.320
  126DPPC   C30 6280   6.255   4.328   3.340
  126DPPC   C31 6281   6.295   4.290   3.483
  126DPPC   C32 6282   5.963   3.862   1.883
  126DPPC   O33 6283   5.853   3.861   1.973
  126DPPC   C34 6284   5.754   3.947   1.936
  126DPPC   O35 6285   5.742   3.986   1.820
  126DPPC   C36 6286   5.643   3.951   2.041
  126DPPC   C37 6287   5.677   4.031   2.167
  126DPPC   C38 6288   5.573   4.040   2.278
  126DPPC   C39 6289   5.643   4.072   2.410
  126DPPC   C40 6290   5.538   4.124   2.508
  126DPPC   C41 6291   5.613   4.147   2.639
  126DPPC   C42 6292   5.524   4.195   2.753
  126DPPC   C43 6293   5.607   4.203   2.882
  126DPPC   C44 6294   5.512   4.257   2.988
  126DPPC   C45 6295   5.572   4.230   3.126
  126DPPC   C46 6296   5.472   4.262   3.238
  126DPPC   C47 6297   5.535   4.244   3.376
  126DPPC   C48 6298   5.429   4.241   3.486
  126DPPC   C49 6299   5.495   4.227   3.623
  126DPPC   C50 6300   5.394   4.198   3.734
  127DPPC    C1 6301   2.187   6.247   1.320
  127DPPC    C2 6302   2.364   6.330   1.452
  127DPPC    C3 6303   2.365   6.316   1.204
  127DPPC    N4 6304   2.291   6.351   1.326
  127DPPC    C5 6305   2.209   6.472   1.320
  127DPPC    C6 6306   2.286   6.602   1.346
  127DPPC    O7 6307   2.189   6.699   1.384
  127DPPC    P8 6308   2.260   6.836   1.431
  127DPPC    O9 6309   2.240   6.926   1.315
  127DPPC   O10 6310   2.396   6.812   1.485
  127DPPC   O11 6311   2.162   6.894   1.545
  127DPPC   C12 6312   2.176   6.822   1.668
  127DPPC   C13 6313   2.129   6.892   1.796
  127DPPC   O14 6314   2.153   6.819   1.917
  127DPPC   C15 6315   2.274   6.802   1.976
  127DPPC   O16 6316   2.372   6.835   1.910
  127DPPC   C17 6317   2.286   6.775   2.127
  127DPPC   C18 6318   2.425   6.720   2.161
  127DPPC   C19 6319   2.438   6.694   2.311
  127DPPC   C20 6320   2.580   6.646   2.342
  127DPPC   C21 6321   2.589   6.630   2.494
  127DPPC   C22 6322   2.584   6.764   2.566
  127DPPC   C23 6323   2.591   6.745   2.718
  127DPPC   C24 6324   2.717   6.681   2.776
  127DPPC   C25 6325   2.711   6.693   2.928
  127DPPC   C26 6326   2.843   6.628   2.970
  127DPPC   C27 6327   2.841   6.602   3.120
  127DPPC   C28 6328   2.735   6.497   3.155
  127DPPC   C29 6329   2.759   6.447   3.297
  127DPPC   C30 6330   2.646   6.346   3.319
  127DPPC   C31 6331   2.654   6.287   3.460
  127DPPC   C32 6332   1.981   6.915   1.764
  127DPPC   O33 6333   1.901   7.014   1.828
  127DPPC   C34 6334   1.810   7.073   1.746
  127DPPC   O35 6335   1.812   7.047   1.625
  127DPPC   C36 6336   1.713   7.173   1.808
  127DPPC   C37 6337   1.666   7.115   1.942
  127DPPC   C38 6338   1.534   7.184   1.979
  127DPPC   C39 6339   1.487   7.149   2.120
  127DPPC   C40 6340   1.356   7.219   2.157
  127DPPC   C41 6341   1.280   7.159   2.275
  127DPPC   C42 6342   1.371   7.176   2.397
  127DPPC   C43 6343   1.307   7.116   2.523
  127DPPC   C44 6344   1.396   7.165   2.638
  127DPPC   C45 6345   1.544   7.130   2.625
  127DPPC   C46 6346   1.603   7.180   2.757
  127DPPC   C47 6347   1.746   7.125   2.759
  127DPPC   C48 6348   1.794   7.132   2.904
  127DPPC   C49 6349   1.787   7.277   2.952
  127DPPC   C50 6350   1.863   7.295   3.083
  128DPPC    C1 6351   2.009   4.063   1.480
  128DPPC    C2 6352   1.804   3.946   1.464
  128DPPC    C3 6353   1.994   3.860   1.349
  128DPPC    N4 6354   1.950   3.929   1.471
  128DPPC    C5 6355   1.983   3.853   1.592
  128DPPC    C6 6356   2.126   3.801   1.607
  128DPPC    O7 6357   2.185   3.841   1.731
  128DPPC    P8 6358   2.343   3.866   1.710
  128DPPC    O9 6359   2.353   4.014   1.717
  128DPPC   O10 6360   2.404   3.784   1.602
  128DPPC   O11 6361   2.393   3.793   1.844
  128DPPC   C12 6362   2.427   3.656   1.825
  128DPPC   C13 6363   2.435   3.573   1.953
  128DPPC   O14 6364   2.341   3.465   1.959
  128DPPC   C15 6365   2.396   3.351   2.007
  128DPPC   O16 6366   2.507   3.320   1.962
  128DPPC   C17 6367   2.301   3.243   2.060
  128DPPC   C18 6368   2.350   3.200   2.198
  128DPPC   C19 6369   2.343   3.312   2.302
  128DPPC   C20 6370   2.337   3.266   2.448
  128DPPC   C21 6371   2.297   3.376   2.547
  128DPPC   C22 6372   2.325   3.334   2.692
  128DPPC   C23 6373   2.311   3.456   2.783
  128DPPC   C24 6374   2.309   3.414   2.930
  128DPPC   C25 6375   2.270   3.539   3.010
  128DPPC   C26 6376   2.385   3.634   3.044
  128DPPC   C27 6377   2.334   3.705   3.169
  128DPPC   C28 6378   2.454   3.768   3.240
  128DPPC   C29 6379   2.554   3.658   3.273
  128DPPC   C30 6380   2.658   3.716   3.369
  128DPPC   C31 6381   2.594   3.761   3.501
  128DPPC   C32 6382   2.420   3.665   2.074
  128DPPC   O33 6383   2.488   3.616   2.190
  128DPPC   C34 6384   2.524   3.718   2.273
  128DPPC   O35 6385   2.510   3.838   2.249
  128DPPC   C36 6386   2.560   3.673   2.415
  128DPPC   C37 6387   2.616   3.783   2.505
  128DPPC   C38 6388   2.633   3.718   2.642
  128DPPC   C39 6389   2.678   3.823   2.743
  128DPPC   C40 6390   2.753   3.753   2.856
  128DPPC   C41 6391   2.819   3.846   2.958
  128DPPC   C42 6392   2.924   3.766   3.035
  128DPPC   C43 6393   2.999   3.870   3.119
  128DPPC   C44 6394   3.022   3.793   3.249
  128DPPC   C45 6395   3.096   3.882   3.350
  128DPPC   C46 6396   3.225   3.936   3.289
  128DPPC   C47 6397   3.305   4.004   3.401
  128DPPC   C48 6398   3.431   4.054   3.330
  128DPPC   C49 6399   3.524   4.124   3.429
  128DPPC   C50 6400   3.645   4.182   3.355
  129DPPC    C1 6401   2.737   2.233   5.670
  129DPPC    C2 6402   2.649   2.207   5.897
  129DPPC    C3 6403   2.688   2.418   5.797
  129DPPC    N4 6404   2.642   2.281   5.770
  129DPPC    C5 6405   2.501   2.278   5.727
  129DPPC    C6 6406   2.444   2.157   5.653
  129DPPC    O7 6407   2.341   2.188   5.559
  129DPPC    P8 6408   2.249   2.059   5.531
  129DPPC    O9 6409   2.155   2.128   5.440
  129DPPC   O10 6410   2.202   2.017   5.664
  129DPPC   O11 6411   2.351   1.953   5.466
  129DPPC   C12 6412   2.387   2.013   5.341
  129DPPC   C13 6413   2.534   1.982   5.313
  129DPPC   O14 6414   2.587   2.064   5.208
  129DPPC   C15 6415   2.643   2.184   5.238
  129DPPC   O16 6416   2.600   2.239   5.339
  129DPPC   C17 6417   2.714   2.270   5.133
  129DPPC   C18 6418   2.641   2.400   5.102
  129DPPC   C19 6419   2.669   2.453   4.961
  129DPPC   C20 6420   2.625   2.340   4.867
  129DPPC   C21 6421   2.653   2.380   4.722
  129DPPC   C22 6422   2.583   2.277   4.633
  129DPPC   C23 6423   2.539   2.345   4.503
  129DPPC   C24 6424   2.500   2.241   4.399
  129DPPC   C25 6425   2.474   2.300   4.260
  129DPPC   C26 6426   2.483   2.193   4.151
  129DPPC   C27 6427   2.486   2.258   4.013
  129DPPC   C28 6428   2.508   2.145   3.912
  129DPPC   C29 6429   2.527   2.205   3.772
  129DPPC   C30 6430   2.506   2.096   3.668
  129DPPC   C31 6431   2.548   2.155   3.533
  129DPPC   C32 6432   2.546   1.832   5.288
  129DPPC   O33 6433   2.435   1.786   5.211
  129DPPC   C34 6434   2.444   1.652   5.186
  129DPPC   O35 6435   2.541   1.593   5.233
  129DPPC   C36 6436   2.338   1.584   5.101
  129DPPC   C37 6437   2.381   1.446   5.050
  129DPPC   C38 6438   2.504   1.469   4.961
  129DPPC   C39 6439   2.543   1.329   4.912
  129DPPC   C40 6440   2.444   1.268   4.813
  129DPPC   C41 6441   2.526   1.158   4.745
  129DPPC   C42 6442   2.456   1.105   4.619
  129DPPC   C43 6443   2.530   0.978   4.576
  129DPPC   C44 6444   2.445   0.900   4.476
  129DPPC   C45 6445   2.533   0.798   4.403
  129DPPC   C46 6446   2.457   0.732   4.287
  129DPPC   C47 6447   2.551   0.636   4.214
  129DPPC   C48 6448   2.492   0.609   4.075
  129DPPC   C49 6449   2.587   0.526   3.989
  129DPPC   C50 6450   2.530   0.460   3.863
  130DPPC    C1 6451   0.627   7.741   1.288
  130DPPC    C2 6452   0.804   7.904   1.286
  130DPPC    C3 6453   0.575   7.968   1.305
  130DPPC    N4 6454   0.675   7.868   1.345
  130DPPC    C5 6455   0.659   7.864   1.491
  130DPPC    C6 6456   0.733   7.755   1.568
  130DPPC    O7 6457   0.643   7.663   1.630
  130DPPC    P8 6458   0.714   7.599   1.759
  130DPPC    O9 6459   0.845   7.664   1.776
  130DPPC   O10 6460   0.695   7.452   1.758
  130DPPC   O11 6461   0.608   7.663   1.862
  130DPPC   C12 6462   0.675   7.768   1.934
  130DPPC   C13 6463   0.589   7.832   2.043
  130DPPC   O14 6464   0.678   7.869   2.149
  130DPPC   C15 6465   0.767   7.972   2.146
  130DPPC   O16 6466   0.753   8.054   2.055
  130DPPC   C17 6467   0.853   7.986   2.272
  130DPPC   C18 6468   0.800   8.085   2.376
  130DPPC   C19 6469   0.812   8.019   2.513
  130DPPC   C20 6470   0.953   7.962   2.533
  130DPPC   C21 6471   1.043   8.084   2.558
  130DPPC   C22 6472   1.191   8.043   2.558
  130DPPC   C23 6473   1.257   8.148   2.647
  130DPPC   C24 6474   1.271   8.105   2.793
  130DPPC   C25 6475   1.388   8.007   2.807
  130DPPC   C26 6476   1.401   7.960   2.952
  130DPPC   C27 6477   1.444   8.064   3.056
  130DPPC   C28 6478   1.452   8.026   3.204
  130DPPC   C29 6479   1.558   7.915   3.203
  130DPPC   C30 6480   1.571   7.855   3.343
  130DPPC   C31 6481   1.440   7.848   3.421
  130DPPC   C32 6482   0.487   7.725   2.083
  130DPPC   O33 6483   0.371   7.780   2.146
  130DPPC   C34 6484   0.298   7.680   2.203
  130DPPC   O35 6485   0.318   7.561   2.180
  130DPPC   C36 6486   0.168   7.726   2.269
  130DPPC   C37 6487   0.114   7.621   2.367
  130DPPC   C38 6488  -0.031   7.637   2.412
  130DPPC   C39 6489  -0.064   7.774   2.472
  130DPPC   C40 6490  -0.195   7.791   2.549
  130DPPC   C41 6491  -0.206   7.941   2.572
  130DPPC   C42 6492  -0.351   7.975   2.608
  130DPPC   C43 6493  -0.375   8.122   2.643
  130DPPC   C44 6494  -0.491   8.153   2.737
  130DPPC   C45 6495  -0.512   8.303   2.759
  130DPPC   C46 6496  -0.625   8.344   2.853
  130DPPC   C47 6497  -0.586   8.293   2.992
  130DPPC   C48 6498  -0.709   8.293   3.084
  130DPPC   C49 6499  -0.762   8.437   3.092
  130DPPC   C50 6500  -0.908   8.438   3.139
  131DPPC    C1 6501   1.370   4.060   5.598
  131DPPC    C2 6502   1.395   3.885   5.428
  131DPPC    C3 6503   1.256   4.074   5.397
  131DPPC    N4 6504   1.384   4.029   5.455
  131DPPC    C5 6505   1.484   4.109   5.383
  131DPPC    C6 6506   1.497   4.259   5.412
  131DPPC    O7 6507   1.418   4.339   5.323
  131DPPC    P8 6508   1.437   4.491   5.372
  131DPPC    O9 6509   1.496   4.497   5.508
  131DPPC   O10 6510   1.315   4.568   5.340
  131DPPC   O11 6511   1.550   4.528   5.264
  131DPPC   C12 6512   1.491   4.514   5.135
  131DPPC   C13 6513   1.595   4.510   5.023
  131DPPC   O14 6514   1.530   4.525   4.897
  131DPPC   C15 6515   1.587   4.622   4.819
  131DPPC   O16 6516   1.686   4.686   4.853
  131DPPC   C17 6517   1.539   4.614   4.674
  131DPPC   C18 6518   1.643   4.529   4.600
  131DPPC   C19 6519   1.587   4.498   4.461
  131DPPC   C20 6520   1.705   4.483   4.365
  131DPPC   C21 6521   1.665   4.436   4.225
  131DPPC   C22 6522   1.788   4.459   4.137
  131DPPC   C23 6523   1.766   4.403   3.996
  131DPPC   C24 6524   1.882   4.433   3.901
  131DPPC   C25 6525   2.018   4.386   3.952
  131DPPC   C26 6526   2.125   4.410   3.844
  131DPPC   C27 6527   2.265   4.377   3.897
  131DPPC   C28 6528   2.368   4.381   3.784
  131DPPC   C29 6529   2.511   4.386   3.839
  131DPPC   C30 6530   2.583   4.515   3.799
  131DPPC   C31 6531   2.731   4.516   3.837
  131DPPC   C32 6532   1.677   4.383   5.045
  131DPPC   O33 6533   1.751   4.322   4.939
  131DPPC   C34 6534   1.816   4.203   4.937
  131DPPC   O35 6535   1.785   4.126   5.028
  131DPPC   C36 6536   1.898   4.149   4.820
  131DPPC   C37 6537   1.814   4.155   4.692
  131DPPC   C38 6538   1.887   4.092   4.574
  131DPPC   C39 6539   1.794   4.100   4.452
  131DPPC   C40 6540   1.651   4.045   4.455
  131DPPC   C41 6541   1.610   4.047   4.307
  131DPPC   C42 6542   1.457   4.040   4.304
  131DPPC   C43 6543   1.413   4.034   4.157
  131DPPC   C44 6544   1.469   3.912   4.084
  131DPPC   C45 6545   1.403   3.899   3.947
  131DPPC   C46 6546   1.455   3.995   3.839
  131DPPC   C47 6547   1.454   3.931   3.700
  131DPPC   C48 6548   1.476   4.033   3.588
  131DPPC   C49 6549   1.475   3.967   3.450
  131DPPC   C50 6550   1.579   3.860   3.418
  132DPPC    C1 6551   9.180   6.455   1.172
  132DPPC    C2 6552   9.381   6.565   1.275
  132DPPC    C3 6553   9.238   6.678   1.133
  132DPPC    N4 6554   9.239   6.573   1.236
  132DPPC    C5 6555   9.158   6.609   1.354
  132DPPC    C6 6556   9.006   6.621   1.352
  132DPPC    O7 6557   8.957   6.653   1.483
  132DPPC    P8 6558   8.800   6.627   1.503
  132DPPC    O9 6559   8.781   6.483   1.473
  132DPPC   O10 6560   8.744   6.732   1.416
  132DPPC   O11 6561   8.789   6.643   1.663
  132DPPC   C12 6562   8.902   6.595   1.735
  132DPPC   C13 6563   8.895   6.624   1.885
  132DPPC   O14 6564   9.011   6.581   1.959
  132DPPC   C15 6565   9.124   6.656   1.958
  132DPPC   O16 6566   9.147   6.727   1.860
  132DPPC   C17 6567   9.225   6.644   2.072
  132DPPC   C18 6568   9.197   6.727   2.198
  132DPPC   C19 6569   9.306   6.713   2.305
  132DPPC   C20 6570   9.249   6.767   2.436
  132DPPC   C21 6571   9.318   6.734   2.569
  132DPPC   C22 6572   9.466   6.771   2.575
  132DPPC   C23 6573   9.490   6.803   2.723
  132DPPC   C24 6574   9.627   6.750   2.765
  132DPPC   C25 6575   9.664   6.789   2.909
  132DPPC   C26 6576   9.814   6.759   2.906
  132DPPC   C27 6577   9.855   6.764   3.054
  132DPPC   C28 6578  10.007   6.761   3.074
  132DPPC   C29 6579  10.029   6.713   3.218
  132DPPC   C30 6580  10.018   6.560   3.216
  132DPPC   C31 6581  10.034   6.501   3.356
  132DPPC   C32 6582   8.765   6.561   1.937
  132DPPC   O33 6583   8.746   6.558   2.078
  132DPPC   C34 6584   8.630   6.507   2.130
  132DPPC   O35 6585   8.539   6.481   2.051
  132DPPC   C36 6586   8.618   6.503   2.282
  132DPPC   C37 6587   8.543   6.620   2.347
  132DPPC   C38 6588   8.486   6.582   2.484
  132DPPC   C39 6589   8.442   6.704   2.564
  132DPPC   C40 6590   8.441   6.675   2.714
  132DPPC   C41 6591   8.343   6.561   2.746
  132DPPC   C42 6592   8.352   6.527   2.895
  132DPPC   C43 6593   8.330   6.656   2.975
  132DPPC   C44 6594   8.300   6.612   3.118
  132DPPC   C45 6595   8.242   6.731   3.194
  132DPPC   C46 6596   8.230   6.692   3.342
  132DPPC   C47 6597   8.158   6.809   3.410
  132DPPC   C48 6598   8.150   6.801   3.562
  132DPPC   C49 6599   8.050   6.692   3.600
  132DPPC   C50 6600   8.061   6.669   3.751
  133DPPC    C1 6601   7.243   0.346   5.490
  133DPPC    C2 6602   7.221   0.548   5.581
  133DPPC    C3 6603   7.343   0.361   5.701
  133DPPC    N4 6604   7.318   0.438   5.578
  133DPPC    C5 6605   7.447   0.473   5.516
  133DPPC    C6 6606   7.548   0.573   5.571
  133DPPC    O7 6607   7.668   0.576   5.493
  133DPPC    P8 6608   7.779   0.676   5.552
  133DPPC    O9 6609   7.904   0.677   5.474
  133DPPC   O10 6610   7.761   0.668   5.699
  133DPPC   O11 6611   7.703   0.810   5.504
  133DPPC   C12 6612   7.728   0.832   5.365
  133DPPC   C13 6613   7.639   0.934   5.294
  133DPPC   O14 6614   7.693   1.067   5.280
  133DPPC   C15 6615   7.783   1.083   5.180
  133DPPC   O16 6616   7.818   0.979   5.123
  133DPPC   C17 6617   7.867   1.210   5.169
  133DPPC   C18 6618   7.804   1.334   5.105
  133DPPC   C19 6619   7.812   1.331   4.952
  133DPPC   C20 6620   7.760   1.464   4.897
  133DPPC   C21 6621   7.835   1.587   4.949
  133DPPC   C22 6622   7.754   1.713   4.916
  133DPPC   C23 6623   7.843   1.837   4.930
  133DPPC   C24 6624   7.745   1.956   4.935
  133DPPC   C25 6625   7.667   1.961   4.804
  133DPPC   C26 6626   7.552   2.061   4.797
  133DPPC   C27 6627   7.479   2.045   4.663
  133DPPC   C28 6628   7.368   2.151   4.665
  133DPPC   C29 6629   7.283   2.133   4.539
  133DPPC   C30 6630   7.151   2.210   4.542
  133DPPC   C31 6631   7.063   2.177   4.421
  133DPPC   C32 6632   7.514   0.944   5.382
  133DPPC   O33 6633   7.386   0.937   5.320
  133DPPC   C34 6634   7.339   0.812   5.293
  133DPPC   O35 6635   7.381   0.707   5.343
  133DPPC   C36 6636   7.201   0.810   5.227
  133DPPC   C37 6637   7.218   0.791   5.076
  133DPPC   C38 6638   7.079   0.821   5.020
  133DPPC   C39 6639   7.098   0.843   4.870
  133DPPC   C40 6640   7.154   0.718   4.801
  133DPPC   C41 6641   7.147   0.740   4.650
  133DPPC   C42 6642   7.158   0.608   4.573
  133DPPC   C43 6643   7.134   0.638   4.426
  133DPPC   C44 6644   7.232   0.729   4.351
  133DPPC   C45 6645   7.210   0.725   4.200
  133DPPC   C46 6646   7.223   0.582   4.149
  133DPPC   C47 6647   7.196   0.576   3.998
  133DPPC   C48 6648   7.217   0.436   3.939
  133DPPC   C49 6649   7.211   0.437   3.787
  133DPPC   C50 6650   7.065   0.452   3.741
  134DPPC    C1 6651   0.217   7.807   5.331
  134DPPC    C2 6652   0.157   7.855   5.538
  134DPPC    C3 6653   0.393   7.839   5.488
  134DPPC    N4 6654   0.263   7.891   5.443
  134DPPC    C5 6655   0.263   8.036   5.423
  134DPPC    C6 6656   0.348   8.099   5.313
  134DPPC    O7 6657   0.320   8.066   5.177
  134DPPC    P8 6658   0.426   8.153   5.093
  134DPPC    O9 6659   0.548   8.070   5.106
  134DPPC   O10 6660   0.416   8.288   5.153
  134DPPC   O11 6661   0.375   8.145   4.941
  134DPPC   C12 6662   0.392   8.267   4.867
  134DPPC   C13 6663   0.425   8.247   4.719
  134DPPC   O14 6664   0.424   8.369   4.644
  134DPPC   C15 6665   0.520   8.465   4.646
  134DPPC   O16 6666   0.628   8.433   4.695
  134DPPC   C17 6667   0.503   8.595   4.569
  134DPPC   C18 6668   0.412   8.582   4.446
  134DPPC   C19 6669   0.439   8.698   4.350
  134DPPC   C20 6670   0.367   8.686   4.216
  134DPPC   C21 6671   0.440   8.764   4.107
  134DPPC   C22 6672   0.345   8.871   4.053
  134DPPC   C23 6673   0.399   8.966   3.946
  134DPPC   C24 6674   0.384   9.112   3.989
  134DPPC   C25 6675   0.452   9.204   3.888
  134DPPC   C26 6676   0.433   9.352   3.921
  134DPPC   C27 6677   0.503   9.435   3.813
  134DPPC   C28 6678   0.455   9.580   3.812
  134DPPC   C29 6679   0.563   9.666   3.747
  134DPPC   C30 6680   0.568   9.617   3.603
  134DPPC   C31 6681   0.671   9.705   3.531
  134DPPC   C32 6682   0.316   8.150   4.672
  134DPPC   O33 6683   0.184   8.197   4.698
  134DPPC   C34 6684   0.082   8.106   4.696
  134DPPC   O35 6685   0.103   7.990   4.660
  134DPPC   C36 6686  -0.051   8.164   4.742
  134DPPC   C37 6687  -0.134   8.208   4.621
  134DPPC   C38 6688  -0.187   8.098   4.529
  134DPPC   C39 6689  -0.260   8.157   4.408
  134DPPC   C40 6690  -0.311   8.062   4.299
  134DPPC   C41 6691  -0.352   8.128   4.168
  134DPPC   C42 6692  -0.441   8.249   4.198
  134DPPC   C43 6693  -0.497   8.289   4.061
  134DPPC   C44 6694  -0.557   8.164   3.998
  134DPPC   C45 6695  -0.668   8.224   3.911
  134DPPC   C46 6696  -0.746   8.115   3.836
  134DPPC   C47 6697  -0.869   8.168   3.761
  134DPPC   C48 6698  -0.958   8.047   3.731
  134DPPC   C49 6699  -1.075   8.108   3.654
  134DPPC   C50 6700  -1.016   8.187   3.538
  135DPPC    C1 6701   7.829   7.821   5.616
  135DPPC    C2 6702   7.890   7.997   5.750
  135DPPC    C3 6703   8.023   7.972   5.556
  135DPPC    N4 6704   7.887   7.956   5.609
  135DPPC    C5 6705   7.787   8.038   5.537
  135DPPC    C6 6706   7.737   7.992   5.400
  135DPPC    O7 6707   7.613   8.035   5.343
  135DPPC    P8 6708   7.607   7.991   5.189
  135DPPC    O9 6709   7.476   8.034   5.134
  135DPPC   O10 6710   7.662   7.854   5.182
  135DPPC   O11 6711   7.719   8.099   5.147
  135DPPC   C12 6712   7.670   8.217   5.082
  135DPPC   C13 6713   7.777   8.325   5.070
  135DPPC   O14 6714   7.726   8.459   5.057
  135DPPC   C15 6715   7.813   8.564   5.054
  135DPPC   O16 6716   7.918   8.553   5.116
  135DPPC   C17 6717   7.751   8.704   5.045
  135DPPC   C18 6718   7.841   8.804   4.972
  135DPPC   C19 6719   7.883   8.750   4.836
  135DPPC   C20 6720   7.768   8.710   4.744
  135DPPC   C21 6721   7.793   8.581   4.666
  135DPPC   C22 6722   7.651   8.538   4.626
  135DPPC   C23 6723   7.581   8.639   4.536
  135DPPC   C24 6724   7.651   8.642   4.399
  135DPPC   C25 6725   7.579   8.715   4.285
  135DPPC   C26 6726   7.662   8.715   4.156
  135DPPC   C27 6727   7.594   8.805   4.053
  135DPPC   C28 6728   7.701   8.853   3.955
  135DPPC   C29 6729   7.617   8.947   3.868
  135DPPC   C30 6730   7.690   9.002   3.745
  135DPPC   C31 6731   7.654   8.920   3.621
  135DPPC   C32 6732   7.888   8.275   4.976
  135DPPC   O33 6733   7.835   8.217   4.857
  135DPPC   C34 6734   7.932   8.175   4.772
  135DPPC   O35 6735   8.049   8.207   4.795
  135DPPC   C36 6736   7.885   8.148   4.629
  135DPPC   C37 6737   7.756   8.067   4.647
  135DPPC   C38 6738   7.673   8.068   4.519
  135DPPC   C39 6739   7.550   7.978   4.511
  135DPPC   C40 6740   7.475   7.967   4.377
  135DPPC   C41 6741   7.460   8.112   4.330
  135DPPC   C42 6742   7.387   8.102   4.195
  135DPPC   C43 6743   7.479   8.020   4.104
  135DPPC   C44 6744   7.429   8.033   3.960
  135DPPC   C45 6745   7.537   7.988   3.860
  135DPPC   C46 6746   7.503   7.974   3.712
  135DPPC   C47 6747   7.411   7.855   3.682
  135DPPC   C48 6748   7.379   7.854   3.532
  135DPPC   C49 6749   7.288   7.742   3.481
  135DPPC   C50 6750   7.271   7.758   3.330
  136DPPC    C1 6751   7.052   3.255   6.028
  136DPPC    C2 6752   7.263   3.254   5.944
  136DPPC    C3 6753   7.145   3.440   5.915
  136DPPC    N4 6754   7.172   3.340   6.019
  136DPPC    C5 6755   7.228   3.392   6.145
  136DPPC    C6 6756   7.374   3.436   6.141
  136DPPC    O7 6757   7.402   3.555   6.067
  136DPPC    P8 6758   7.555   3.553   6.017
  136DPPC    O9 6759   7.619   3.453   6.106
  136DPPC   O10 6760   7.592   3.696   6.013
  136DPPC   O11 6761   7.522   3.499   5.869
  136DPPC   C12 6762   7.502   3.620   5.795
  136DPPC   C13 6763   7.577   3.613   5.661
  136DPPC   O14 6764   7.541   3.725   5.578
  136DPPC   C15 6765   7.606   3.844   5.591
  136DPPC   O16 6766   7.704   3.856   5.665
  136DPPC   C17 6767   7.545   3.966   5.523
  136DPPC   C18 6768   7.605   4.013   5.390
  136DPPC   C19 6769   7.538   4.132   5.321
  136DPPC   C20 6770   7.610   4.157   5.189
  136DPPC   C21 6771   7.627   4.042   5.090
  136DPPC   C22 6772   7.707   4.091   4.969
  136DPPC   C23 6773   7.637   4.213   4.908
  136DPPC   C24 6774   7.744   4.297   4.839
  136DPPC   C25 6775   7.800   4.251   4.704
  136DPPC   C26 6776   7.918   4.334   4.655
  136DPPC   C27 6777   7.991   4.257   4.545
  136DPPC   C28 6778   8.101   4.336   4.474
  136DPPC   C29 6779   8.049   4.471   4.424
  136DPPC   C30 6780   8.112   4.505   4.288
  136DPPC   C31 6781   8.074   4.644   4.239
  136DPPC   C32 6782   7.510   3.486   5.609
  136DPPC   O33 6783   7.589   3.400   5.526
  136DPPC   C34 6784   7.542   3.287   5.466
  136DPPC   O35 6785   7.425   3.254   5.481
  136DPPC   C36 6786   7.622   3.236   5.346
  136DPPC   C37 6787   7.587   3.334   5.234
  136DPPC   C38 6788   7.535   3.267   5.107
  136DPPC   C39 6789   7.467   3.362   5.008
  136DPPC   C40 6790   7.415   3.292   4.882
  136DPPC   C41 6791   7.332   3.392   4.802
  136DPPC   C42 6792   7.268   3.328   4.678
  136DPPC   C43 6793   7.207   3.439   4.592
  136DPPC   C44 6794   7.167   3.377   4.458
  136DPPC   C45 6795   7.093   3.473   4.365
  136DPPC   C46 6796   7.059   3.393   4.239
  136DPPC   C47 6797   7.005   3.491   4.134
  136DPPC   C48 6798   7.024   3.425   3.997
  136DPPC   C49 6799   6.927   3.307   3.986
  136DPPC   C50 6800   6.954   3.260   3.843
  137DPPC    C1 6801   3.041   6.203   5.012
  137DPPC    C2 6802   3.153   6.030   5.134
  137DPPC    C3 6803   3.258   6.243   5.071
  137DPPC    N4 6804   3.137   6.176   5.120
  137DPPC    C5 6805   3.104   6.248   5.244
  137DPPC    C6 6806   2.969   6.216   5.308
  137DPPC    O7 6807   2.854   6.285   5.259
  137DPPC    P8 6808   2.719   6.200   5.284
  137DPPC    O9 6809   2.606   6.275   5.226
  137DPPC   O10 6810   2.735   6.157   5.425
  137DPPC   O11 6811   2.749   6.073   5.191
  137DPPC   C12 6812   2.649   6.044   5.093
  137DPPC   C13 6813   2.684   5.912   5.025
  137DPPC   O14 6814   2.806   5.918   4.950
  137DPPC   C15 6815   2.876   5.803   4.934
  137DPPC   O16 6816   2.846   5.712   5.011
  137DPPC   C17 6817   3.002   5.796   4.848
  137DPPC   C18 6818   2.978   5.858   4.710
  137DPPC   C19 6819   3.103   5.832   4.626
  137DPPC   C20 6820   3.144   5.685   4.611
  137DPPC   C21 6821   3.250   5.677   4.501
  137DPPC   C22 6822   3.306   5.536   4.481
  137DPPC   C23 6823   3.428   5.519   4.390
  137DPPC   C24 6824   3.472   5.373   4.371
  137DPPC   C25 6825   3.586   5.358   4.270
  137DPPC   C26 6826   3.612   5.209   4.252
  137DPPC   C27 6827   3.733   5.175   4.165
  137DPPC   C28 6828   3.715   5.239   4.027
  137DPPC   C29 6829   3.805   5.175   3.921
  137DPPC   C30 6830   3.719   5.171   3.795
  137DPPC   C31 6831   3.780   5.082   3.686
  137DPPC   C32 6832   2.556   5.873   4.950
  137DPPC   O33 6833   2.492   5.976   4.874
  137DPPC   C34 6834   2.394   5.936   4.788
  137DPPC   O35 6835   2.365   5.817   4.776
  137DPPC   C36 6836   2.337   6.042   4.694
  137DPPC   C37 6837   2.302   5.996   4.552
  137DPPC   C38 6838   2.283   6.101   4.443
  137DPPC   C39 6839   2.252   6.031   4.311
  137DPPC   C40 6840   2.312   6.113   4.197
  137DPPC   C41 6841   2.221   6.230   4.160
  137DPPC   C42 6842   2.248   6.278   4.017
  137DPPC   C43 6843   2.222   6.159   3.925
  137DPPC   C44 6844   2.267   6.170   3.779
  137DPPC   C45 6845   2.214   6.051   3.698
  137DPPC   C46 6846   2.244   5.919   3.769
  137DPPC   C47 6847   2.183   5.804   3.690
  137DPPC   C48 6848   2.031   5.797   3.704
  137DPPC   C49 6849   1.960   5.688   3.624
  137DPPC   C50 6850   1.819   5.660   3.677
  138DPPC    C1 6851   2.022   2.748   5.667
  138DPPC    C2 6852   1.982   2.971   5.739
  138DPPC    C3 6853   2.152   2.838   5.829
  138DPPC    N4 6854   2.087   2.875   5.702
  138DPPC    C5 6855   2.173   2.911   5.589
  138DPPC    C6 6856   2.106   2.965   5.461
  138DPPC    O7 6857   2.027   2.879   5.380
  138DPPC    P8 6858   1.994   2.966   5.249
  138DPPC    O9 6859   1.937   3.086   5.315
  138DPPC   O10 6860   1.918   2.879   5.157
  138DPPC   O11 6861   2.149   2.986   5.209
  138DPPC   C12 6862   2.159   3.073   5.096
  138DPPC   C13 6863   2.297   3.135   5.075
  138DPPC   O14 6864   2.310   3.248   4.988
  138DPPC   C15 6865   2.288   3.374   5.034
  138DPPC   O16 6866   2.265   3.389   5.154
  138DPPC   C17 6867   2.289   3.486   4.929
  138DPPC   C18 6868   2.401   3.587   4.951
  138DPPC   C19 6869   2.400   3.695   4.842
  138DPPC   C20 6870   2.263   3.762   4.826
  138DPPC   C21 6871   2.253   3.852   4.702
  138DPPC   C22 6872   2.212   3.777   4.575
  138DPPC   C23 6873   2.209   3.877   4.459
  138DPPC   C24 6874   2.228   3.789   4.335
  138DPPC   C25 6875   2.249   3.858   4.200
  138DPPC   C26 6876   2.262   3.737   4.107
  138DPPC   C27 6877   2.281   3.780   3.961
  138DPPC   C28 6878   2.163   3.873   3.930
  138DPPC   C29 6879   2.200   3.958   3.808
  138DPPC   C30 6880   2.090   4.052   3.760
  138DPPC   C31 6881   1.981   3.964   3.699
  138DPPC   C32 6882   2.383   3.018   5.027
  138DPPC   O33 6883   2.317   2.951   4.919
  138DPPC   C34 6884   2.358   2.822   4.909
  138DPPC   O35 6885   2.422   2.773   5.002
  138DPPC   C36 6886   2.333   2.734   4.786
  138DPPC   C37 6887   2.395   2.802   4.663
  138DPPC   C38 6888   2.378   2.698   4.552
  138DPPC   C39 6889   2.236   2.664   4.508
  138DPPC   C40 6890   2.229   2.550   4.406
  138DPPC   C41 6891   2.084   2.535   4.358
  138DPPC   C42 6892   2.064   2.403   4.283
  138DPPC   C43 6893   1.919   2.403   4.236
  138DPPC   C44 6894   1.872   2.279   4.158
  138DPPC   C45 6895   1.720   2.281   4.178
  138DPPC   C46 6896   1.662   2.176   4.084
  138DPPC   C47 6897   1.509   2.172   4.095
  138DPPC   C48 6898   1.449   2.046   4.033
  138DPPC   C49 6899   1.302   2.021   4.066
  138DPPC   C50 6900   1.312   2.029   4.218
  139DPPC    C1 6901   9.023   3.869   5.344
  139DPPC    C2 6902   8.848   4.027   5.297
  139DPPC    C3 6903   8.847   3.894   5.493
  139DPPC    N4 6904   8.933   3.970   5.402
  139DPPC    C5 6905   9.002   4.068   5.487
  139DPPC    C6 6906   9.083   4.173   5.410
  139DPPC    O7 6907   9.153   4.257   5.504
  139DPPC    P8 6908   9.190   4.397   5.435
  139DPPC    O9 6909   9.222   4.501   5.536
  139DPPC   O10 6910   9.092   4.425   5.328
  139DPPC   O11 6911   9.319   4.353   5.350
  139DPPC   C12 6912   9.336   4.432   5.233
  139DPPC   C13 6913   9.402   4.357   5.117
  139DPPC   O14 6914   9.449   4.440   5.010
  139DPPC   C15 6915   9.562   4.516   5.020
  139DPPC   O16 6916   9.627   4.514   5.124
  139DPPC   C17 6917   9.575   4.626   4.915
  139DPPC   C18 6918   9.664   4.584   4.798
  139DPPC   C19 6919   9.663   4.679   4.678
  139DPPC   C20 6920   9.700   4.608   4.548
  139DPPC   C21 6921   9.681   4.692   4.421
  139DPPC   C22 6922   9.661   4.590   4.309
  139DPPC   C23 6923   9.670   4.664   4.175
  139DPPC   C24 6924   9.676   4.563   4.061
  139DPPC   C25 6925   9.684   4.632   3.925
  139DPPC   C26 6926   9.688   4.521   3.820
  139DPPC   C27 6927   9.744   4.571   3.687
  139DPPC   C28 6928   9.663   4.679   3.615
  139DPPC   C29 6929   9.742   4.703   3.486
  139DPPC   C30 6930   9.669   4.803   3.396
  139DPPC   C31 6931   9.730   4.818   3.257
  139DPPC   C32 6932   9.303   4.245   5.087
  139DPPC   O33 6933   9.364   4.119   5.059
  139DPPC   C34 6934   9.281   4.011   5.062
  139DPPC   O35 6935   9.168   4.032   5.106
  139DPPC   C36 6936   9.322   3.875   5.007
  139DPPC   C37 6937   9.286   3.877   4.858
  139DPPC   C38 6938   9.334   3.754   4.779
  139DPPC   C39 6939   9.288   3.783   4.636
  139DPPC   C40 6940   9.291   3.672   4.531
  139DPPC   C41 6941   9.234   3.723   4.398
  139DPPC   C42 6942   9.201   3.597   4.318
  139DPPC   C43 6943   9.179   3.630   4.170
  139DPPC   C44 6944   9.062   3.724   4.143
  139DPPC   C45 6945   9.034   3.729   3.993
  139DPPC   C46 6946   9.117   3.822   3.904
  139DPPC   C47 6947   9.097   3.791   3.755
  139DPPC   C48 6948   9.167   3.888   3.660
  139DPPC   C49 6949   9.145   3.830   3.520
  139DPPC   C50 6950   9.218   3.912   3.413
  140DPPC    C1 6951   0.117   2.511   5.357
  140DPPC    C2 6952   0.250   2.637   5.526
  140DPPC    C3 6953   0.093   2.732   5.400
  140DPPC    N4 6954   0.118   2.605   5.470
  140DPPC    C5 6955   0.029   2.583   5.585
  140DPPC    C6 6956  -0.114   2.530   5.567
  140DPPC    O7 6957  -0.188   2.623   5.487
  140DPPC    P8 6958  -0.343   2.591   5.462
  140DPPC    O9 6959  -0.389   2.719   5.403
  140DPPC   O10 6960  -0.405   2.535   5.585
  140DPPC   O11 6961  -0.329   2.483   5.344
  140DPPC   C12 6962  -0.288   2.534   5.217
  140DPPC   C13 6963  -0.295   2.420   5.114
  140DPPC   O14 6964  -0.196   2.415   5.010
  140DPPC   C15 6965  -0.071   2.365   5.024
  140DPPC   O16 6966  -0.017   2.322   5.127
  140DPPC   C17 6967  -0.008   2.326   4.890
  140DPPC   C18 6968   0.044   2.450   4.817
  140DPPC   C19 6969   0.078   2.412   4.672
  140DPPC   C20 6970   0.210   2.474   4.625
  140DPPC   C21 6971   0.237   2.461   4.475
  140DPPC   C22 6972   0.371   2.526   4.440
  140DPPC   C23 6973   0.449   2.456   4.328
  140DPPC   C24 6974   0.369   2.455   4.198
  140DPPC   C25 6975   0.453   2.424   4.074
  140DPPC   C26 6976   0.390   2.392   3.938
  140DPPC   C27 6977   0.496   2.372   3.829
  140DPPC   C28 6978   0.438   2.329   3.694
  140DPPC   C29 6979   0.328   2.223   3.705
  140DPPC   C30 6980   0.310   2.156   3.568
  140DPPC   C31 6981   0.211   2.040   3.581
  140DPPC   C32 6982  -0.436   2.439   5.057
  140DPPC   O33 6983  -0.461   2.575   5.023
  140DPPC   C34 6984  -0.547   2.610   4.923
  140DPPC   O35 6985  -0.564   2.544   4.820
  140DPPC   C36 6986  -0.611   2.749   4.931
  140DPPC   C37 6987  -0.756   2.700   4.938
  140DPPC   C38 6988  -0.836   2.781   4.837
  140DPPC   C39 6989  -0.987   2.763   4.861
  140DPPC   C40 6990  -1.045   2.880   4.781
  140DPPC   C41 6991  -1.013   2.867   4.632
  140DPPC   C42 6992  -1.056   2.989   4.549
  140DPPC   C43 6993  -1.033   2.967   4.400
  140DPPC   C44 6994  -1.097   3.075   4.313
  140DPPC   C45 6995  -1.072   3.034   4.168
  140DPPC   C46 6996  -1.136   2.897   4.141
  140DPPC   C47 6997  -1.079   2.850   4.008
  140DPPC   C48 6998  -1.178   2.867   3.892
  140DPPC   C49 6999  -1.156   2.760   3.785
  140DPPC   C50 7000  -1.022   2.798   3.720
  141DPPC    C1 7001   5.802   1.821   6.249
  141DPPC    C2 7002   5.648   1.688   6.139
  141DPPC    C3 7003   5.569   1.891   6.206
  141DPPC    N4 7004   5.690   1.828   6.154
  141DPPC    C5 7005   5.719   1.880   6.019
  141DPPC    C6 7006   5.763   2.027   6.015
  141DPPC    O7 7007   5.650   2.115   6.017
  141DPPC    P8 7008   5.695   2.253   5.948
  141DPPC    O9 7009   5.823   2.284   6.015
  141DPPC   O10 7010   5.574   2.339   5.951
  141DPPC   O11 7011   5.713   2.209   5.794
  141DPPC   C12 7012   5.596   2.171   5.722
  141DPPC   C13 7013   5.620   2.162   5.571
  141DPPC   O14 7014   5.702   2.060   5.511
  141DPPC   C15 7015   5.626   1.962   5.456
  141DPPC   O16 7016   5.505   1.949   5.467
  141DPPC   C17 7017   5.711   1.848   5.399
  141DPPC   C18 7018   5.719   1.862   5.247
  141DPPC   C19 7019   5.790   1.744   5.181
  141DPPC   C20 7020   5.724   1.715   5.046
  141DPPC   C21 7021   5.573   1.698   5.069
  141DPPC   C22 7022   5.494   1.644   4.949
  141DPPC   C23 7023   5.503   1.739   4.830
  141DPPC   C24 7024   5.452   1.675   4.701
  141DPPC   C25 7025   5.510   1.536   4.676
  141DPPC   C26 7026   5.469   1.481   4.539
  141DPPC   C27 7027   5.562   1.541   4.433
  141DPPC   C28 7028   5.528   1.487   4.294
  141DPPC   C29 7029   5.387   1.536   4.260
  141DPPC   C30 7030   5.379   1.671   4.189
  141DPPC   C31 7031   5.237   1.727   4.177
  141DPPC   C32 7032   5.677   2.299   5.534
  141DPPC   O33 7033   5.582   2.406   5.539
  141DPPC   C34 7034   5.630   2.532   5.524
  141DPPC   O35 7035   5.751   2.543   5.542
  141DPPC   C36 7036   5.534   2.650   5.504
  141DPPC   C37 7037   5.500   2.682   5.358
  141DPPC   C38 7038   5.441   2.565   5.281
  141DPPC   C39 7039   5.398   2.619   5.144
  141DPPC   C40 7040   5.517   2.652   5.054
  141DPPC   C41 7041   5.471   2.699   4.917
  141DPPC   C42 7042   5.583   2.689   4.813
  141DPPC   C43 7043   5.538   2.726   4.672
  141DPPC   C44 7044   5.418   2.638   4.639
  141DPPC   C45 7045   5.364   2.679   4.502
  141DPPC   C46 7046   5.306   2.820   4.503
  141DPPC   C47 7047   5.268   2.866   4.362
  141DPPC   C48 7048   5.377   2.879   4.256
  141DPPC   C49 7049   5.315   2.918   4.121
  141DPPC   C50 7050   5.210   2.821   4.067
  142DPPC    C1 7051   1.515   6.081   4.950
  142DPPC    C2 7052   1.523   6.312   4.978
  142DPPC    C3 7053   1.570   6.223   4.768
  142DPPC    N4 7054   1.481   6.208   4.883
  142DPPC    C5 7055   1.342   6.195   4.838
  142DPPC    C6 7056   1.259   6.322   4.818
  142DPPC    O7 7057   1.296   6.404   4.707
  142DPPC    P8 7058   1.245   6.556   4.728
  142DPPC    O9 7059   1.333   6.641   4.645
  142DPPC   O10 7060   1.224   6.579   4.873
  142DPPC   O11 7061   1.103   6.546   4.652
  142DPPC   C12 7062   1.120   6.507   4.515
  142DPPC   C13 7063   0.993   6.533   4.433
  142DPPC   O14 7064   0.988   6.448   4.318
  142DPPC   C15 7065   0.871   6.438   4.250
  142DPPC   O16 7066   0.760   6.467   4.294
  142DPPC   C17 7067   0.885   6.360   4.119
  142DPPC   C18 7068   0.779   6.392   4.012
  142DPPC   C19 7069   0.824   6.305   3.894
  142DPPC   C20 7070   0.726   6.281   3.780
  142DPPC   C21 7071   0.597   6.224   3.841
  142DPPC   C22 7072   0.615   6.077   3.878
  142DPPC   C23 7073   0.485   6.036   3.947
  142DPPC   C24 7074   0.489   5.900   4.017
  142DPPC   C25 7075   0.356   5.825   4.025
  142DPPC   C26 7076   0.259   5.923   4.092
  142DPPC   C27 7077   0.122   5.857   4.113
  142DPPC   C28 7078   0.016   5.944   4.179
  142DPPC   C29 7079  -0.117   5.869   4.196
  142DPPC   C30 7080  -0.122   5.734   4.267
  142DPPC   C31 7081  -0.249   5.652   4.245
  142DPPC   C32 7082   0.987   6.682   4.400
  142DPPC   O33 7083   1.097   6.747   4.335
  142DPPC   C34 7084   1.060   6.874   4.303
  142DPPC   O35 7085   0.974   6.938   4.362
  142DPPC   C36 7086   1.171   6.939   4.219
  142DPPC   C37 7087   1.149   7.089   4.205
  142DPPC   C38 7088   1.039   7.125   4.104
  142DPPC   C39 7089   1.034   7.269   4.054
  142DPPC   C40 7090   0.920   7.299   3.956
  142DPPC   C41 7091   0.924   7.206   3.835
  142DPPC   C42 7092   0.854   7.268   3.714
  142DPPC   C43 7093   0.710   7.283   3.764
  142DPPC   C44 7094   0.624   7.369   3.670
  142DPPC   C45 7095   0.690   7.507   3.672
  142DPPC   C46 7096   0.625   7.590   3.561
  142DPPC   C47 7097   0.685   7.730   3.554
  142DPPC   C48 7098   0.634   7.821   3.442
  142DPPC   C49 7099   0.697   7.772   3.312
  142DPPC   C50 7100   0.845   7.808   3.300
  143DPPC    C1 7101   0.265   0.075   5.238
  143DPPC    C2 7102   0.085   0.219   5.322
  143DPPC    C3 7103   0.303   0.236   5.410
  143DPPC    N4 7104   0.227   0.208   5.288
  143DPPC    C5 7105   0.258   0.305   5.182
  143DPPC    C6 7106   0.219   0.453   5.187
  143DPPC    O7 7107   0.331   0.527   5.236
  143DPPC    P8 7108   0.283   0.679   5.260
  143DPPC    O9 7109   0.406   0.754   5.292
  143DPPC   O10 7110   0.173   0.664   5.358
  143DPPC   O11 7111   0.253   0.705   5.104
  143DPPC   C12 7112   0.347   0.796   5.045
  143DPPC   C13 7113   0.330   0.843   4.901
  143DPPC   O14 7114   0.241   0.955   4.893
  143DPPC   C15 7115   0.295   1.079   4.899
  143DPPC   O16 7116   0.401   1.095   4.958
  143DPPC   C17 7117   0.220   1.195   4.831
  143DPPC   C18 7118   0.116   1.144   4.731
  143DPPC   C19 7119  -0.022   1.176   4.789
  143DPPC   C20 7120  -0.138   1.141   4.696
  143DPPC   C21 7121  -0.186   1.266   4.622
  143DPPC   C22 7122  -0.316   1.239   4.546
  143DPPC   C23 7123  -0.284   1.118   4.459
  143DPPC   C24 7124  -0.416   1.078   4.392
  143DPPC   C25 7125  -0.462   1.183   4.291
  143DPPC   C26 7126  -0.599   1.159   4.229
  143DPPC   C27 7127  -0.628   1.273   4.131
  143DPPC   C28 7128  -0.541   1.290   4.006
  143DPPC   C29 7129  -0.570   1.166   3.921
  143DPPC   C30 7130  -0.482   1.173   3.796
  143DPPC   C31 7131  -0.536   1.298   3.726
  143DPPC   C32 7132   0.309   0.718   4.815
  143DPPC   O33 7133   0.259   0.740   4.682
  143DPPC   C34 7134   0.225   0.627   4.616
  143DPPC   O35 7135   0.174   0.538   4.684
  143DPPC   C36 7136   0.181   0.648   4.471
  143DPPC   C37 7137   0.113   0.522   4.417
  143DPPC   C38 7138   0.043   0.534   4.281
  143DPPC   C39 7139  -0.073   0.633   4.298
  143DPPC   C40 7140  -0.154   0.655   4.170
  143DPPC   C41 7141  -0.062   0.720   4.066
  143DPPC   C42 7142  -0.089   0.644   3.936
  143DPPC   C43 7143  -0.008   0.698   3.818
  143DPPC   C44 7144  -0.020   0.847   3.789
  143DPPC   C45 7145   0.071   0.867   3.667
  143DPPC   C46 7146   0.106   1.011   3.630
  143DPPC   C47 7147   0.195   1.004   3.506
  143DPPC   C48 7148   0.241   1.138   3.449
  143DPPC   C49 7149   0.142   1.248   3.411
  143DPPC   C50 7150   0.211   1.370   3.348
  144DPPC    C1 7151   8.663   0.302   5.690
  144DPPC    C2 7152   8.866   0.418   5.741
  144DPPC    C3 7153   8.861   0.187   5.679
  144DPPC    N4 7154   8.803   0.319   5.651
  144DPPC    C5 7155   8.815   0.354   5.509
  144DPPC    C6 7156   8.819   0.503   5.472
  144DPPC    O7 7157   8.708   0.587   5.503
  144DPPC    P8 7158   8.753   0.738   5.470
  144DPPC    O9 7159   8.887   0.735   5.532
  144DPPC   O10 7160   8.642   0.813   5.533
  144DPPC   O11 7161   8.747   0.733   5.309
  144DPPC   C12 7162   8.612   0.750   5.267
  144DPPC   C13 7163   8.596   0.708   5.121
  144DPPC   O14 7164   8.463   0.728   5.069
  144DPPC   C15 7165   8.443   0.851   5.014
  144DPPC   O16 7166   8.489   0.958   5.053
  144DPPC   C17 7167   8.319   0.866   4.925
  144DPPC   C18 7168   8.340   0.912   4.780
  144DPPC   C19 7169   8.436   0.814   4.713
  144DPPC   C20 7170   8.471   0.853   4.569
  144DPPC   C21 7171   8.343   0.835   4.488
  144DPPC   C22 7172   8.380   0.844   4.339
  144DPPC   C23 7173   8.472   0.965   4.322
  144DPPC   C24 7174   8.496   1.008   4.177
  144DPPC   C25 7175   8.378   1.053   4.091
  144DPPC   C26 7176   8.433   1.115   3.963
  144DPPC   C27 7177   8.505   1.018   3.868
  144DPPC   C28 7178   8.576   1.108   3.767
  144DPPC   C29 7179   8.633   1.035   3.645
  144DPPC   C30 7180   8.513   0.960   3.585
  144DPPC   C31 7181   8.558   0.908   3.448
  144DPPC   C32 7182   8.659   0.569   5.110
  144DPPC   O33 7183   8.654   0.514   4.978
  144DPPC   C34 7184   8.768   0.548   4.913
  144DPPC   O35 7185   8.863   0.592   4.978
  144DPPC   C36 7186   8.791   0.486   4.775
  144DPPC   C37 7187   8.662   0.470   4.695
  144DPPC   C38 7188   8.677   0.348   4.605
  144DPPC   C39 7189   8.555   0.355   4.513
  144DPPC   C40 7190   8.556   0.232   4.422
  144DPPC   C41 7191   8.475   0.246   4.292
  144DPPC   C42 7192   8.484   0.115   4.213
  144DPPC   C43 7193   8.367   0.115   4.114
  144DPPC   C44 7194   8.399   0.022   3.997
  144DPPC   C45 7195   8.263  -0.007   3.932
  144DPPC   C46 7196   8.200   0.123   3.879
  144DPPC   C47 7197   8.063   0.118   3.811
  144DPPC   C48 7198   8.041   0.242   3.723
  144DPPC   C49 7199   8.073   0.369   3.802
  144DPPC   C50 7200   8.047   0.498   3.724
  145DPPC    C1 7201   7.995   5.639   5.579
  145DPPC    C2 7202   8.244   5.655   5.610
  145DPPC    C3 7203   8.162   5.456   5.545
  145DPPC    N4 7204   8.130   5.599   5.536
  145DPPC    C5 7205   8.134   5.627   5.392
  145DPPC    C6 7206   8.156   5.775   5.355
  145DPPC    O7 7207   8.172   5.794   5.215
  145DPPC    P8 7208   8.176   5.952   5.183
  145DPPC    O9 7209   8.239   5.957   5.050
  145DPPC   O10 7210   8.239   6.016   5.301
  145DPPC   O11 7211   8.017   5.936   5.171
  145DPPC   C12 7212   7.991   5.904   5.034
  145DPPC   C13 7213   7.848   5.858   5.002
  145DPPC   O14 7214   7.848   5.793   4.874
  145DPPC   C15 7215   7.751   5.702   4.845
  145DPPC   O16 7216   7.671   5.674   4.934
  145DPPC   C17 7217   7.725   5.675   4.697
  145DPPC   C18 7218   7.616   5.778   4.665
  145DPPC   C19 7219   7.575   5.746   4.521
  145DPPC   C20 7220   7.436   5.684   4.529
  145DPPC   C21 7221   7.398   5.625   4.393
  145DPPC   C22 7222   7.368   5.748   4.307
  145DPPC   C23 7223   7.257   5.839   4.360
  145DPPC   C24 7224   7.267   5.977   4.295
  145DPPC   C25 7225   7.134   6.051   4.280
  145DPPC   C26 7226   7.175   6.190   4.231
  145DPPC   C27 7227   7.222   6.199   4.086
  145DPPC   C28 7228   7.106   6.171   3.990
  145DPPC   C29 7229   7.155   6.145   3.847
  145DPPC   C30 7230   7.237   6.016   3.845
  145DPPC   C31 7231   7.284   5.990   3.702
  145DPPC   C32 7232   7.746   5.967   5.033
  145DPPC   O33 7233   7.752   6.081   4.947
  145DPPC   C34 7234   7.642   6.159   4.964
  145DPPC   O35 7235   7.568   6.148   5.062
  145DPPC   C36 7236   7.598   6.231   4.837
  145DPPC   C37 7237   7.503   6.146   4.751
  145DPPC   C38 7238   7.447   6.223   4.631
  145DPPC   C39 7239   7.542   6.264   4.519
  145DPPC   C40 7240   7.471   6.343   4.408
  145DPPC   C41 7241   7.555   6.398   4.292
  145DPPC   C42 7242   7.605   6.270   4.224
  145DPPC   C43 7243   7.664   6.294   4.085
  145DPPC   C44 7244   7.554   6.354   3.998
  145DPPC   C45 7245   7.605   6.377   3.856
  145DPPC   C46 7246   7.490   6.448   3.784
  145DPPC   C47 7247   7.546   6.484   3.646
  145DPPC   C48 7248   7.575   6.358   3.563
  145DPPC   C49 7249   7.632   6.376   3.422
  145DPPC   C50 7250   7.768   6.443   3.440
  146DPPC    C1 7251   6.862   4.182   5.856
  146DPPC    C2 7252   7.063   4.196   5.988
  146DPPC    C3 7253   6.873   4.137   6.094
  146DPPC    N4 7254   6.940   4.120   5.964
  146DPPC    C5 7255   6.983   3.981   5.941
  146DPPC    C6 7256   6.875   3.887   5.886
  146DPPC    O7 7257   6.918   3.752   5.864
  146DPPC    P8 7258   6.795   3.656   5.827
  146DPPC    O9 7259   6.670   3.703   5.892
  146DPPC   O10 7260   6.840   3.515   5.829
  146DPPC   O11 7261   6.777   3.694   5.671
  146DPPC   C12 7262   6.863   3.613   5.591
  146DPPC   C13 7263   6.885   3.642   5.442
  146DPPC   O14 7264   6.989   3.735   5.409
  146DPPC   C15 7265   7.121   3.707   5.430
  146DPPC   O16 7266   7.158   3.637   5.525
  146DPPC   C17 7267   7.212   3.814   5.371
  146DPPC   C18 7268   7.146   3.899   5.263
  146DPPC   C19 7269   7.170   3.833   5.127
  146DPPC   C20 7270   7.323   3.832   5.119
  146DPPC   C21 7271   7.361   3.783   4.980
  146DPPC   C22 7272   7.302   3.887   4.884
  146DPPC   C23 7273   7.357   3.860   4.744
  146DPPC   C24 7274   7.509   3.880   4.731
  146DPPC   C25 7275   7.537   3.881   4.581
  146DPPC   C26 7276   7.529   3.738   4.528
  146DPPC   C27 7277   7.569   3.753   4.381
  146DPPC   C28 7278   7.501   3.878   4.325
  146DPPC   C29 7279   7.549   3.917   4.185
  146DPPC   C30 7280   7.481   4.049   4.147
  146DPPC   C31 7281   7.465   4.053   3.995
  146DPPC   C32 7282   6.758   3.695   5.374
  146DPPC   O33 7283   6.662   3.596   5.335
  146DPPC   C34 7284   6.559   3.647   5.263
  146DPPC   O35 7285   6.561   3.757   5.210
  146DPPC   C36 7286   6.437   3.554   5.263
  146DPPC   C37 7287   6.370   3.553   5.125
  146DPPC   C38 7288   6.280   3.436   5.087
  146DPPC   C39 7289   6.188   3.493   4.978
  146DPPC   C40 7290   6.256   3.524   4.844
  146DPPC   C41 7291   6.164   3.587   4.739
  146DPPC   C42 7292   6.232   3.606   4.603
  146DPPC   C43 7293   6.134   3.683   4.514
  146DPPC   C44 7294   6.165   3.643   4.369
  146DPPC   C45 7295   6.052   3.701   4.284
  146DPPC   C46 7296   6.065   3.633   4.148
  146DPPC   C47 7297   5.962   3.701   4.056
  146DPPC   C48 7298   5.953   3.648   3.913
  146DPPC   C49 7299   5.835   3.708   3.837
  146DPPC   C50 7300   5.703   3.667   3.903
  147DPPC    C1 7301   8.218   3.129   6.172
  147DPPC    C2 7302   8.072   2.940   6.176
  147DPPC    C3 7303   7.982   3.162   6.209
  147DPPC    N4 7304   8.083   3.082   6.139
  147DPPC    C5 7305   8.061   3.078   5.993
  147DPPC    C6 7306   8.070   3.210   5.917
  147DPPC    O7 7307   7.972   3.313   5.932
  147DPPC    P8 7308   8.049   3.453   5.913
  147DPPC    O9 7309   8.168   3.426   5.997
  147DPPC   O10 7310   7.962   3.571   5.929
  147DPPC   O11 7311   8.083   3.425   5.758
  147DPPC   C12 7312   7.961   3.469   5.697
  147DPPC   C13 7313   8.004   3.459   5.550
  147DPPC   O14 7314   7.911   3.526   5.464
  147DPPC   C15 7315   7.956   3.647   5.420
  147DPPC   O16 7316   8.052   3.697   5.478
  147DPPC   C17 7317   7.858   3.712   5.322
  147DPPC   C18 7318   7.884   3.670   5.177
  147DPPC   C19 7319   7.748   3.682   5.108
  147DPPC   C20 7320   7.769   3.645   4.961
  147DPPC   C21 7321   7.867   3.748   4.902
  147DPPC   C22 7322   7.888   3.715   4.754
  147DPPC   C23 7323   7.970   3.825   4.687
  147DPPC   C24 7324   7.973   3.779   4.541
  147DPPC   C25 7325   7.999   3.902   4.454
  147DPPC   C26 7326   8.011   3.868   4.306
  147DPPC   C27 7327   8.011   3.995   4.221
  147DPPC   C28 7328   7.890   4.083   4.253
  147DPPC   C29 7329   7.898   4.218   4.182
  147DPPC   C30 7330   7.760   4.286   4.190
  147DPPC   C31 7331   7.758   4.407   4.098
  147DPPC   C32 7332   8.036   3.311   5.528
  147DPPC   O33 7333   7.930   3.226   5.572
  147DPPC   C34 7334   7.953   3.093   5.584
  147DPPC   O35 7335   8.057   3.034   5.614
  147DPPC   C36 7336   7.826   3.010   5.612
  147DPPC   C37 7337   7.832   2.870   5.551
  147DPPC   C38 7338   7.833   2.866   5.399
  147DPPC   C39 7339   7.808   2.724   5.348
  147DPPC   C40 7340   7.816   2.731   5.196
  147DPPC   C41 7341   7.713   2.818   5.123
  147DPPC   C42 7342   7.740   2.805   4.972
  147DPPC   C43 7343   7.626   2.884   4.908
  147DPPC   C44 7344   7.636   2.864   4.757
  147DPPC   C45 7345   7.519   2.941   4.696
  147DPPC   C46 7346   7.513   2.941   4.543
  147DPPC   C47 7347   7.382   3.012   4.509
  147DPPC   C48 7348   7.333   3.017   4.364
  147DPPC   C49 7349   7.184   3.045   4.342
  147DPPC   C50 7350   7.143   3.048   4.195
  148DPPC    C1 7351   2.598   6.556   5.458
  148DPPC    C2 7352   2.822   6.580   5.522
  148DPPC    C3 7353   2.754   6.608   5.291
  148DPPC    N4 7354   2.719   6.635   5.432
  148DPPC    C5 7355   2.711   6.778   5.462
  148DPPC    C6 7356   2.793   6.884   5.387
  148DPPC    O7 7357   2.933   6.858   5.379
  148DPPC    P8 7358   3.020   6.992   5.403
  148DPPC    O9 7359   3.161   6.951   5.391
  148DPPC   O10 7360   2.982   7.058   5.530
  148DPPC   O11 7361   2.959   7.068   5.275
  148DPPC   C12 7362   3.018   7.042   5.148
  148DPPC   C13 7363   2.926   7.086   5.034
  148DPPC   O14 7364   2.960   7.018   4.913
  148DPPC   C15 7365   2.938   6.886   4.888
  148DPPC   O16 7366   2.871   6.821   4.969
  148DPPC   C17 7367   2.995   6.822   4.762
  148DPPC   C18 7368   2.900   6.733   4.681
  148DPPC   C19 7369   2.963   6.658   4.563
  148DPPC   C20 7370   3.051   6.767   4.501
  148DPPC   C21 7371   3.147   6.687   4.412
  148DPPC   C22 7372   3.205   6.778   4.304
  148DPPC   C23 7373   3.110   6.861   4.218
  148DPPC   C24 7374   3.189   6.933   4.109
  148DPPC   C25 7375   3.248   6.840   4.003
  148DPPC   C26 7376   3.292   6.919   3.880
  148DPPC   C27 7377   3.404   6.837   3.815
  148DPPC   C28 7378   3.474   6.913   3.702
  148DPPC   C29 7379   3.563   6.819   3.621
  148DPPC   C30 7380   3.616   6.890   3.496
  148DPPC   C31 7381   3.740   6.806   3.461
  148DPPC   C32 7382   2.942   7.238   5.037
  148DPPC   O33 7383   3.074   7.290   5.057
  148DPPC   C34 7384   3.074   7.426   5.071
  148DPPC   O35 7385   2.966   7.484   5.069
  148DPPC   C36 7386   3.202   7.509   5.060
  148DPPC   C37 7387   3.242   7.569   4.925
  148DPPC   C38 7388   3.366   7.657   4.938
  148DPPC   C39 7389   3.439   7.679   4.805
  148DPPC   C40 7390   3.488   7.542   4.757
  148DPPC   C41 7391   3.547   7.559   4.617
  148DPPC   C42 7392   3.655   7.667   4.609
  148DPPC   C43 7393   3.703   7.680   4.465
  148DPPC   C44 7394   3.818   7.589   4.421
  148DPPC   C45 7395   3.864   7.619   4.278
  148DPPC   C46 7396   3.926   7.494   4.215
  148DPPC   C47 7397   3.952   7.531   4.068
  148DPPC   C48 7398   4.033   7.427   3.990
  148DPPC   C49 7399   4.045   7.467   3.843
  148DPPC   C50 7400   4.138   7.370   3.769
  149DPPC    C1 7401   5.161   0.562   5.286
  149DPPC    C2 7402   5.223   0.617   5.061
  149DPPC    C3 7403   5.060   0.735   5.187
  149DPPC    N4 7404   5.193   0.672   5.194
  149DPPC    C5 7405   5.288   0.772   5.243
  149DPPC    C6 7406   5.376   0.751   5.366
  149DPPC    O7 7407   5.470   0.853   5.404
  149DPPC    P8 7408   5.585   0.798   5.502
  149DPPC    O9 7409   5.544   0.666   5.554
  149DPPC   O10 7410   5.655   0.901   5.583
  149DPPC   O11 7411   5.675   0.736   5.384
  149DPPC   C12 7412   5.766   0.835   5.333
  149DPPC   C13 7413   5.791   0.820   5.183
  149DPPC   O14 7414   5.909   0.891   5.141
  149DPPC   C15 7415   6.018   0.840   5.079
  149DPPC   O16 7416   6.046   0.721   5.092
  149DPPC   C17 7417   6.116   0.946   5.029
  149DPPC   C18 7418   6.100   0.954   4.877
  149DPPC   C19 7419   6.211   1.033   4.808
  149DPPC   C20 7420   6.206   1.014   4.656
  149DPPC   C21 7421   6.291   1.108   4.571
  149DPPC   C22 7422   6.302   1.040   4.434
  149DPPC   C23 7423   6.381   1.137   4.347
  149DPPC   C24 7424   6.411   1.085   4.206
  149DPPC   C25 7425   6.515   1.189   4.163
  149DPPC   C26 7426   6.503   1.251   4.024
  149DPPC   C27 7427   6.624   1.344   4.016
  149DPPC   C28 7428   6.620   1.414   3.880
  149DPPC   C29 7429   6.719   1.532   3.878
  149DPPC   C30 7430   6.702   1.620   3.755
  149DPPC   C31 7431   6.573   1.703   3.750
  149DPPC   C32 7432   5.656   0.844   5.115
  149DPPC   O33 7433   5.655   0.833   4.973
  149DPPC   C34 7434   5.535   0.879   4.929
  149DPPC   O35 7435   5.431   0.882   4.994
  149DPPC   C36 7436   5.522   0.887   4.776
  149DPPC   C37 7437   5.535   1.030   4.724
  149DPPC   C38 7438   5.534   1.047   4.572
  149DPPC   C39 7439   5.654   1.009   4.484
  149DPPC   C40 7440   5.652   1.054   4.338
  149DPPC   C41 7441   5.771   1.000   4.259
  149DPPC   C42 7442   5.883   1.097   4.221
  149DPPC   C43 7443   5.807   1.211   4.154
  149DPPC   C44 7444   5.880   1.259   4.029
  149DPPC   C45 7445   5.804   1.379   3.972
  149DPPC   C46 7446   5.849   1.436   3.838
  149DPPC   C47 7447   5.766   1.556   3.791
  149DPPC   C48 7448   5.616   1.533   3.771
  149DPPC   C49 7449   5.542   1.666   3.755
  149DPPC   C50 7450   5.389   1.661   3.749
  150DPPC    C1 7451   4.648   0.967   5.893
  150DPPC    C2 7452   4.781   0.793   5.821
  150DPPC    C3 7453   4.690   0.953   5.662
  150DPPC    N4 7454   4.751   0.935   5.794
  150DPPC    C5 7455   4.860   1.032   5.810
  150DPPC    C6 7456   4.988   1.017   5.727
  150DPPC    O7 7457   4.980   1.048   5.588
  150DPPC    P8 7458   5.113   1.022   5.500
  150DPPC    O9 7459   5.140   0.883   5.544
  150DPPC   O10 7460   5.214   1.127   5.525
  150DPPC   O11 7461   5.047   1.019   5.354
  150DPPC   C12 7462   5.002   1.153   5.335
  150DPPC   C13 7463   4.873   1.186   5.259
  150DPPC   O14 7464   4.747   1.149   5.318
  150DPPC   C15 7465   4.662   1.251   5.345
  150DPPC   O16 7466   4.690   1.367   5.316
  150DPPC   C17 7467   4.520   1.216   5.390
  150DPPC   C18 7468   4.420   1.312   5.327
  150DPPC   C19 7469   4.340   1.228   5.227
  150DPPC   C20 7470   4.232   1.315   5.163
  150DPPC   C21 7471   4.136   1.244   5.068
  150DPPC   C22 7472   4.042   1.348   5.007
  150DPPC   C23 7473   3.910   1.271   4.990
  150DPPC   C24 7474   3.800   1.351   4.920
  150DPPC   C25 7475   3.687   1.260   4.871
  150DPPC   C26 7476   3.589   1.344   4.789
  150DPPC   C27 7477   3.471   1.250   4.760
  150DPPC   C28 7478   3.354   1.346   4.740
  150DPPC   C29 7479   3.233   1.281   4.673
  150DPPC   C30 7480   3.280   1.245   4.532
  150DPPC   C31 7481   3.167   1.163   4.468
  150DPPC   C32 7482   4.889   1.125   5.119
  150DPPC   O33 7483   5.007   1.162   5.047
  150DPPC   C34 7484   5.058   1.083   4.949
  150DPPC   O35 7485   5.020   0.966   4.945
  150DPPC   C36 7486   5.158   1.146   4.852
  150DPPC   C37 7487   5.090   1.181   4.719
  150DPPC   C38 7488   5.176   1.268   4.627
  150DPPC   C39 7489   5.107   1.300   4.494
  150DPPC   C40 7490   5.092   1.179   4.402
  150DPPC   C41 7491   5.011   1.228   4.282
  150DPPC   C42 7492   4.968   1.119   4.184
  150DPPC   C43 7493   4.836   1.151   4.112
  150DPPC   C44 7494   4.723   1.180   4.211
  150DPPC   C45 7495   4.589   1.188   4.138
  150DPPC   C46 7496   4.492   1.268   4.226
  150DPPC   C47 7497   4.351   1.237   4.177
  150DPPC   C48 7498   4.354   1.270   4.028
  150DPPC   C49 7499   4.212   1.274   3.971
  150DPPC   C50 7500   4.212   1.320   3.825
  151DPPC    C1 7501   0.944   0.973   5.171
  151DPPC    C2 7502   1.072   0.814   5.055
  151DPPC    C3 7503   0.964   0.756   5.262
  151DPPC    N4 7504   0.951   0.831   5.136
  151DPPC    C5 7505   0.840   0.800   5.044
  151DPPC    C6 7506   0.753   0.680   5.083
  151DPPC    O7 7507   0.660   0.638   4.983
  151DPPC    P8 7508   0.630   0.481   4.998
  151DPPC    O9 7509   0.494   0.435   4.961
  151DPPC   O10 7510   0.702   0.433   5.118
  151DPPC   O11 7511   0.712   0.458   4.861
  151DPPC   C12 7512   0.618   0.474   4.754
  151DPPC   C13 7513   0.671   0.502   4.613
  151DPPC   O14 7514   0.709   0.388   4.534
  151DPPC   C15 7515   0.825   0.321   4.554
  151DPPC   O16 7516   0.902   0.345   4.648
  151DPPC   C17 7517   0.846   0.206   4.456
  151DPPC   C18 7518   0.883   0.250   4.314
  151DPPC   C19 7519   0.910   0.128   4.224
  151DPPC   C20 7520   0.992   0.165   4.101
  151DPPC   C21 7521   0.915   0.255   4.004
  151DPPC   C22 7522   0.806   0.181   3.927
  151DPPC   C23 7523   0.866   0.084   3.825
  151DPPC   C24 7524   0.760   0.004   3.749
  151DPPC   C25 7525   0.667   0.096   3.670
  151DPPC   C26 7526   0.569   0.028   3.574
  151DPPC   C27 7527   0.506   0.129   3.478
  151DPPC   C28 7528   0.429   0.236   3.556
  151DPPC   C29 7529   0.338   0.335   3.483
  151DPPC   C30 7530   0.298   0.456   3.567
  151DPPC   C31 7531   0.226   0.570   3.494
  151DPPC   C32 7532   0.772   0.617   4.624
  151DPPC   O33 7533   0.703   0.731   4.678
  151DPPC   C34 7534   0.773   0.845   4.701
  151DPPC   O35 7535   0.895   0.839   4.690
  151DPPC   C36 7536   0.697   0.977   4.712
  151DPPC   C37 7537   0.626   1.002   4.579
  151DPPC   C38 7538   0.477   1.035   4.578
  151DPPC   C39 7539   0.416   1.015   4.439
  151DPPC   C40 7540   0.265   1.030   4.425
  151DPPC   C41 7541   0.226   1.017   4.277
  151DPPC   C42 7542   0.079   1.058   4.268
  151DPPC   C43 7543   0.028   1.066   4.124
  151DPPC   C44 7544   0.124   1.169   4.064
  151DPPC   C45 7545   0.098   1.320   4.076
  151DPPC   C46 7546   0.180   1.406   3.980
  151DPPC   C47 7547   0.130   1.398   3.836
  151DPPC   C48 7548  -0.002   1.474   3.817
  151DPPC   C49 7549  -0.040   1.489   3.669
  151DPPC   C50 7550  -0.186   1.531   3.652
  152DPPC    C1 7551   4.819   1.881   6.042
  152DPPC    C2 7552   5.031   1.894   5.920
  152DPPC    C3 7553   4.965   1.690   6.000
  152DPPC    N4 7554   4.910   1.815   5.947
  152DPPC    C5 7555   4.843   1.795   5.817
  152DPPC    C6 7556   4.733   1.694   5.786
  152DPPC    O7 7557   4.602   1.731   5.741
  152DPPC    P8 7558   4.498   1.608   5.731
  152DPPC    O9 7559   4.400   1.605   5.841
  152DPPC   O10 7560   4.569   1.489   5.679
  152DPPC   O11 7561   4.413   1.693   5.624
  152DPPC   C12 7562   4.487   1.704   5.502
  152DPPC   C13 7563   4.410   1.782   5.396
  152DPPC   O14 7564   4.415   1.719   5.267
  152DPPC   C15 7565   4.288   1.712   5.218
  152DPPC   O16 7566   4.194   1.689   5.293
  152DPPC   C17 7567   4.279   1.688   5.067
  152DPPC   C18 7568   4.314   1.816   4.991
  152DPPC   C19 7569   4.462   1.853   4.970
  152DPPC   C20 7570   4.462   1.984   4.892
  152DPPC   C21 7571   4.601   2.048   4.885
  152DPPC   C22 7572   4.642   2.080   4.741
  152DPPC   C23 7573   4.776   2.153   4.748
  152DPPC   C24 7574   4.823   2.181   4.605
  152DPPC   C25 7575   4.745   2.305   4.562
  152DPPC   C26 7576   4.775   2.330   4.414
  152DPPC   C27 7577   4.747   2.206   4.328
  152DPPC   C28 7578   4.867   2.172   4.239
  152DPPC   C29 7579   4.847   2.047   4.153
  152DPPC   C30 7580   4.936   2.035   4.029
  152DPPC   C31 7581   4.855   2.119   3.930
  152DPPC   C32 7582   4.431   1.934   5.401
  152DPPC   O33 7583   4.571   1.960   5.389
  152DPPC   C34 7584   4.613   2.084   5.351
  152DPPC   O35 7585   4.537   2.177   5.328
  152DPPC   C36 7586   4.756   2.089   5.297
  152DPPC   C37 7587   4.781   1.964   5.213
  152DPPC   C38 7588   4.919   1.966   5.145
  152DPPC   C39 7589   4.924   1.844   5.052
  152DPPC   C40 7590   5.049   1.873   4.970
  152DPPC   C41 7591   5.074   1.768   4.861
  152DPPC   C42 7592   4.961   1.785   4.758
  152DPPC   C43 7593   4.985   1.705   4.630
  152DPPC   C44 7594   4.894   1.750   4.516
  152DPPC   C45 7595   4.906   1.655   4.398
  152DPPC   C46 7596   4.835   1.710   4.273
  152DPPC   C47 7597   4.855   1.622   4.150
  152DPPC   C48 7598   4.750   1.655   4.044
  152DPPC   C49 7599   4.766   1.560   3.926
  152DPPC   C50 7600   4.647   1.562   3.831
  153DPPC    C1 7601   1.985   1.358   5.595
  153DPPC    C2 7602   2.146   1.226   5.705
  153DPPC    C3 7603   1.914   1.168   5.692
  153DPPC    N4 7604   2.029   1.219   5.616
  153DPPC    C5 7605   2.033   1.152   5.485
  153DPPC    C6 7606   2.073   1.004   5.489
  153DPPC    O7 7607   2.210   0.983   5.524
  153DPPC    P8 7608   2.217   0.835   5.588
  153DPPC    O9 7609   2.079   0.800   5.629
  153DPPC   O10 7610   2.337   0.827   5.673
  153DPPC   O11 7611   2.249   0.762   5.448
  153DPPC   C12 7612   2.376   0.802   5.396
  153DPPC   C13 7613   2.445   0.702   5.302
  153DPPC   O14 7614   2.565   0.750   5.241
  153DPPC   C15 7615   2.651   0.663   5.181
  153DPPC   O16 7616   2.648   0.544   5.211
  153DPPC   C17 7617   2.744   0.710   5.068
  153DPPC   C18 7618   2.694   0.657   4.934
  153DPPC   C19 7619   2.785   0.691   4.815
  153DPPC   C20 7620   2.723   0.637   4.686
  153DPPC   C21 7621   2.851   0.623   4.602
  153DPPC   C22 7622   2.836   0.537   4.476
  153DPPC   C23 7623   2.956   0.543   4.382
  153DPPC   C24 7624   2.917   0.461   4.259
  153DPPC   C25 7625   2.984   0.500   4.128
  153DPPC   C26 7626   2.942   0.430   3.998
  153DPPC   C27 7627   3.010   0.495   3.878
  153DPPC   C28 7628   2.972   0.433   3.743
  153DPPC   C29 7629   2.988   0.507   3.609
  153DPPC   C30 7630   2.904   0.440   3.500
  153DPPC   C31 7631   2.970   0.307   3.461
  153DPPC   C32 7632   2.335   0.670   5.201
  153DPPC   O33 7633   2.365   0.577   5.096
  153DPPC   C34 7634   2.262   0.523   5.025
  153DPPC   O35 7635   2.148   0.554   5.059
  153DPPC   C36 7636   2.287   0.454   4.891
  153DPPC   C37 7637   2.196   0.480   4.771
  153DPPC   C38 7638   2.254   0.418   4.644
  153DPPC   C39 7639   2.149   0.416   4.533
  153DPPC   C40 7640   2.160   0.532   4.434
  153DPPC   C41 7641   2.047   0.524   4.332
  153DPPC   C42 7642   2.050   0.644   4.238
  153DPPC   C43 7643   1.905   0.648   4.188
  153DPPC   C44 7644   1.802   0.680   4.296
  153DPPC   C45 7645   1.666   0.660   4.230
  153DPPC   C46 7646   1.563   0.737   4.313
  153DPPC   C47 7647   1.598   0.886   4.304
  153DPPC   C48 7648   1.510   0.981   4.385
  153DPPC   C49 7649   1.542   1.119   4.327
  153DPPC   C50 7650   1.447   1.217   4.396
  154DPPC    C1 7651   9.055   7.669   5.493
  154DPPC    C2 7652   9.143   7.882   5.459
  154DPPC    C3 7653   9.001   7.785   5.294
  154DPPC    N4 7654   9.022   7.802   5.439
  154DPPC    C5 7655   8.904   7.850   5.512
  154DPPC    C6 7656   8.848   7.992   5.500
  154DPPC    O7 7657   8.769   8.007   5.381
  154DPPC    P8 7658   8.745   8.162   5.346
  154DPPC    O9 7659   8.722   8.237   5.472
  154DPPC   O10 7660   8.656   8.185   5.229
  154DPPC   O11 7661   8.896   8.186   5.296
  154DPPC   C12 7662   8.901   8.239   5.163
  154DPPC   C13 7663   9.037   8.297   5.121
  154DPPC   O14 7664   9.032   8.376   5.001
  154DPPC   C15 7665   9.138   8.449   4.957
  154DPPC   O16 7666   9.240   8.474   5.022
  154DPPC   C17 7667   9.111   8.510   4.820
  154DPPC   C18 7668   9.199   8.627   4.776
  154DPPC   C19 7669   9.146   8.702   4.654
  154DPPC   C20 7670   9.248   8.800   4.596
  154DPPC   C21 7671   9.254   8.771   4.446
  154DPPC   C22 7672   9.111   8.808   4.404
  154DPPC   C23 7673   9.100   8.801   4.251
  154DPPC   C24 7674   8.959   8.816   4.193
  154DPPC   C25 7675   8.960   8.756   4.053
  154DPPC   C26 7676   8.823   8.788   3.992
  154DPPC   C27 7677   8.786   8.713   3.863
  154DPPC   C28 7678   8.875   8.760   3.748
  154DPPC   C29 7679   8.843   8.685   3.619
  154DPPC   C30 7680   8.860   8.537   3.653
  154DPPC   C31 7681   8.841   8.447   3.531
  154DPPC   C32 7682   9.114   8.167   5.097
  154DPPC   O33 7683   9.053   8.072   5.009
  154DPPC   C34 7684   9.116   7.962   4.961
  154DPPC   O35 7685   9.232   7.929   4.986
  154DPPC   C36 7686   9.035   7.877   4.862
  154DPPC   C37 7687   8.961   7.960   4.757
  154DPPC   C38 7688   8.892   7.873   4.652
  154DPPC   C39 7689   8.804   7.944   4.549
  154DPPC   C40 7690   8.733   7.844   4.458
  154DPPC   C41 7691   8.606   7.898   4.392
  154DPPC   C42 7692   8.553   7.833   4.264
  154DPPC   C43 7693   8.660   7.806   4.158
  154DPPC   C44 7694   8.616   7.733   4.031
  154DPPC   C45 7695   8.747   7.708   3.955
  154DPPC   C46 7696   8.748   7.568   3.894
  154DPPC   C47 7697   8.878   7.552   3.814
  154DPPC   C48 7698   8.881   7.645   3.692
  154DPPC   C49 7699   9.026   7.647   3.642
  154DPPC   C50 7700   9.054   7.731   3.517
  155DPPC    C1 7701   3.647   4.189   6.499
  155DPPC    C2 7702   3.607   3.950   6.492
  155DPPC    C3 7703   3.449   4.102   6.577
  155DPPC    N4 7704   3.548   4.083   6.471
  155DPPC    C5 7705   3.510   4.117   6.333
  155DPPC    C6 7706   3.397   4.041   6.265
  155DPPC    O7 7707   3.368   4.104   6.140
  155DPPC    P8 7708   3.232   4.053   6.071
  155DPPC    O9 7709   3.178   4.170   5.999
  155DPPC   O10 7710   3.163   3.966   6.170
  155DPPC   O11 7711   3.311   3.955   5.971
  155DPPC   C12 7712   3.404   4.017   5.882
  155DPPC   C13 7713   3.452   3.923   5.771
  155DPPC   O14 7714   3.537   3.998   5.683
  155DPPC   C15 7715   3.652   3.944   5.633
  155DPPC   O16 7716   3.727   3.887   5.711
  155DPPC   C17 7717   3.698   4.002   5.499
  155DPPC   C18 7718   3.611   3.969   5.378
  155DPPC   C19 7719   3.678   4.029   5.254
  155DPPC   C20 7720   3.609   3.991   5.123
  155DPPC   C21 7721   3.672   4.083   5.018
  155DPPC   C22 7722   3.566   4.092   4.908
  155DPPC   C23 7723   3.633   4.172   4.797
  155DPPC   C24 7724   3.558   4.173   4.664
  155DPPC   C25 7725   3.661   4.222   4.562
  155DPPC   C26 7726   3.628   4.209   4.413
  155DPPC   C27 7727   3.757   4.203   4.331
  155DPPC   C28 7728   3.731   4.179   4.182
  155DPPC   C29 7729   3.689   4.287   4.082
  155DPPC   C30 7730   3.677   4.225   3.942
  155DPPC   C31 7731   3.660   4.346   3.850
  155DPPC   C32 7732   3.331   3.863   5.700
  155DPPC   O33 7733   3.355   3.759   5.605
  155DPPC   C34 7734   3.246   3.705   5.543
  155DPPC   O35 7735   3.134   3.727   5.588
  155DPPC   C36 7736   3.277   3.602   5.434
  155DPPC   C37 7737   3.327   3.658   5.301
  155DPPC   C38 7738   3.334   3.543   5.200
  155DPPC   C39 7739   3.348   3.598   5.058
  155DPPC   C40 7740   3.357   3.483   4.957
  155DPPC   C41 7741   3.330   3.534   4.815
  155DPPC   C42 7742   3.352   3.408   4.730
  155DPPC   C43 7743   3.382   3.457   4.588
  155DPPC   C44 7744   3.402   3.352   4.479
  155DPPC   C45 7745   3.453   3.402   4.344
  155DPPC   C46 7746   3.478   3.286   4.248
  155DPPC   C47 7747   3.529   3.326   4.109
  155DPPC   C48 7748   3.574   3.198   4.039
  155DPPC   C49 7749   3.603   3.234   3.893
  155DPPC   C50 7750   3.486   3.264   3.800
  156DPPC    C1 7751   7.338   2.706   6.114
  156DPPC    C2 7752   7.117   2.697   6.211
  156DPPC    C3 7753   7.182   2.874   6.068
  156DPPC    N4 7754   7.195   2.730   6.091
  156DPPC    C5 7755   7.162   2.656   5.967
  156DPPC    C6 7756   7.181   2.505   5.964
  156DPPC    O7 7757   7.102   2.455   5.855
  156DPPC    P8 7758   7.155   2.307   5.822
  156DPPC    O9 7759   7.068   2.244   5.719
  156DPPC   O10 7760   7.201   2.244   5.948
  156DPPC   O11 7761   7.282   2.348   5.733
  156DPPC   C12 7762   7.241   2.443   5.634
  156DPPC   C13 7763   7.350   2.483   5.534
  156DPPC   O14 7764   7.305   2.569   5.428
  156DPPC   C15 7765   7.299   2.701   5.458
  156DPPC   O16 7766   7.317   2.725   5.578
  156DPPC   C17 7767   7.261   2.801   5.349
  156DPPC   C18 7768   7.358   2.815   5.231
  156DPPC   C19 7769   7.274   2.898   5.132
  156DPPC   C20 7770   7.148   2.821   5.092
  156DPPC   C21 7771   7.044   2.897   5.010
  156DPPC   C22 7772   6.949   2.793   4.950
  156DPPC   C23 7773   6.847   2.865   4.862
  156DPPC   C24 7774   6.931   2.940   4.759
  156DPPC   C25 7775   6.863   3.020   4.648
  156DPPC   C26 7776   6.766   3.125   4.701
  156DPPC   C27 7777   6.779   3.267   4.645
  156DPPC   C28 7778   6.666   3.291   4.544
  156DPPC   C29 7779   6.696   3.416   4.461
  156DPPC   C30 7780   6.585   3.438   4.358
  156DPPC   C31 7781   6.608   3.563   4.271
  156DPPC   C32 7782   7.440   2.362   5.507
  156DPPC   O33 7783   7.379   2.241   5.463
  156DPPC   C34 7784   7.465   2.138   5.443
  156DPPC   O35 7785   7.577   2.138   5.495
  156DPPC   C36 7786   7.419   2.018   5.360
  156DPPC   C37 7787   7.538   1.965   5.280
  156DPPC   C38 7788   7.500   1.843   5.195
  156DPPC   C39 7789   7.411   1.883   5.077
  156DPPC   C40 7790   7.360   1.765   4.994
  156DPPC   C41 7791   7.265   1.810   4.884
  156DPPC   C42 7792   7.130   1.854   4.942
  156DPPC   C43 7793   7.039   1.923   4.841
  156DPPC   C44 7794   6.889   1.938   4.869
  156DPPC   C45 7795   6.834   2.024   4.755
  156DPPC   C46 7796   6.682   2.009   4.757
  156DPPC   C47 7797   6.620   2.056   4.625
  156DPPC   C48 7798   6.645   1.944   4.524
  156DPPC   C49 7799   6.598   1.983   4.383
  156DPPC   C50 7800   6.635   2.124   4.338
  157DPPC    C1 7801   0.231   1.034   5.365
  157DPPC    C2 7802   0.146   1.208   5.481
  157DPPC    C3 7803   0.386   1.177   5.475
  157DPPC    N4 7804   0.261   1.174   5.397
  157DPPC    C5 7805   0.278   1.245   5.269
  157DPPC    C6 7806   0.314   1.393   5.276
  157DPPC    O7 7807   0.223   1.486   5.336
  157DPPC    P8 7808   0.310   1.596   5.415
  157DPPC    O9 7809   0.389   1.513   5.508
  157DPPC   O10 7810   0.206   1.698   5.447
  157DPPC   O11 7811   0.406   1.658   5.302
  157DPPC   C12 7812   0.338   1.767   5.241
  157DPPC   C13 7813   0.414   1.825   5.122
  157DPPC   O14 7814   0.359   1.942   5.059
  157DPPC   C15 7815   0.355   2.059   5.129
  157DPPC   O16 7816   0.387   2.070   5.247
  157DPPC   C17 7817   0.307   2.179   5.047
  157DPPC   C18 7818   0.329   2.170   4.896
  157DPPC   C19 7819   0.471   2.210   4.852
  157DPPC   C20 7820   0.476   2.196   4.700
  157DPPC   C21 7821   0.483   2.048   4.662
  157DPPC   C22 7822   0.508   2.036   4.511
  157DPPC   C23 7823   0.509   1.892   4.458
  157DPPC   C24 7824   0.509   1.903   4.305
  157DPPC   C25 7825   0.403   2.002   4.255
  157DPPC   C26 7826   0.391   1.993   4.103
  157DPPC   C27 7827   0.392   1.848   4.055
  157DPPC   C28 7828   0.391   1.854   3.902
  157DPPC   C29 7829   0.373   1.709   3.855
  157DPPC   C30 7830   0.358   1.694   3.703
  157DPPC   C31 7831   0.363   1.550   3.654
  157DPPC   C32 7832   0.422   1.707   5.025
  157DPPC   O33 7833   0.290   1.662   4.992
  157DPPC   C34 7834   0.277   1.556   4.907
  157DPPC   O35 7835   0.367   1.474   4.892
  157DPPC   C36 7836   0.136   1.534   4.852
  157DPPC   C37 7837   0.054   1.660   4.825
  157DPPC   C38 7838   0.125   1.762   4.735
  157DPPC   C39 7839   0.034   1.886   4.731
  157DPPC   C40 7840   0.087   1.999   4.643
  157DPPC   C41 7841  -0.025   2.088   4.588
  157DPPC   C42 7842  -0.124   2.008   4.504
  157DPPC   C43 7843  -0.230   2.090   4.430
  157DPPC   C44 7844  -0.329   2.011   4.344
  157DPPC   C45 7845  -0.411   2.111   4.263
  157DPPC   C46 7846  -0.501   2.037   4.164
  157DPPC   C47 7847  -0.586   2.144   4.095
  157DPPC   C48 7848  -0.511   2.239   4.000
  157DPPC   C49 7849  -0.607   2.342   3.940
  157DPPC   C50 7850  -0.701   2.265   3.847
  158DPPC    C1 7851   2.830   0.855   5.484
  158DPPC    C2 7852   2.919   0.630   5.537
  158DPPC    C3 7853   2.994   0.736   5.358
  158DPPC    N4 7854   2.947   0.767   5.494
  158DPPC    C5 7855   3.043   0.825   5.590
  158DPPC    C6 7856   3.142   0.937   5.556
  158DPPC    O7 7857   3.094   1.070   5.573
  158DPPC    P8 7858   3.214   1.154   5.641
  158DPPC    O9 7859   3.276   1.065   5.742
  158DPPC   O10 7860   3.185   1.297   5.666
  158DPPC   O11 7861   3.319   1.147   5.519
  158DPPC   C12 7862   3.276   1.238   5.418
  158DPPC   C13 7863   3.387   1.275   5.319
  158DPPC   O14 7864   3.373   1.404   5.259
  158DPPC   C15 7865   3.487   1.472   5.233
  158DPPC   O16 7866   3.601   1.428   5.249
  158DPPC   C17 7867   3.473   1.557   5.107
  158DPPC   C18 7868   3.413   1.695   5.138
  158DPPC   C19 7869   3.405   1.789   5.017
  158DPPC   C20 7870   3.334   1.725   4.898
  158DPPC   C21 7871   3.340   1.814   4.774
  158DPPC   C22 7872   3.238   1.752   4.677
  158DPPC   C23 7873   3.262   1.788   4.531
  158DPPC   C24 7874   3.163   1.720   4.436
  158DPPC   C25 7875   3.191   1.759   4.291
  158DPPC   C26 7876   3.099   1.682   4.196
  158DPPC   C27 7877   3.149   1.710   4.054
  158DPPC   C28 7878   3.064   1.644   3.946
  158DPPC   C29 7879   3.108   1.678   3.803
  158DPPC   C30 7880   3.253   1.643   3.769
  158DPPC   C31 7881   3.296   1.723   3.646
  158DPPC   C32 7882   3.410   1.157   5.224
  158DPPC   O33 7883   3.294   1.104   5.158
  158DPPC   C34 7884   3.328   1.006   5.069
  158DPPC   O35 7885   3.440   0.959   5.055
  158DPPC   C36 7886   3.204   0.978   4.983
  158DPPC   C37 7887   3.144   0.842   5.018
  158DPPC   C38 7888   3.211   0.720   4.955
  158DPPC   C39 7889   3.123   0.596   4.942
  158DPPC   C40 7890   3.194   0.511   4.836
  158DPPC   C41 7891   3.217   0.590   4.707
  158DPPC   C42 7892   3.291   0.494   4.614
  158DPPC   C43 7893   3.329   0.563   4.483
  158DPPC   C44 7894   3.434   0.670   4.514
  158DPPC   C45 7895   3.518   0.713   4.394
  158DPPC   C46 7896   3.600   0.833   4.443
  158DPPC   C47 7897   3.692   0.888   4.334
  158DPPC   C48 7898   3.776   1.007   4.380
  158DPPC   C49 7899   3.876   1.052   4.273
  158DPPC   C50 7900   3.971   0.936   4.243
  159DPPC    C1 7901   3.479   8.299   4.888
  159DPPC    C2 7902   3.397   8.073   4.874
  159DPPC    C3 7903   3.558   8.128   5.033
  159DPPC    N4 7904   3.438   8.181   4.966
  159DPPC    C5 7905   3.320   8.205   5.050
  159DPPC    C6 7906   3.288   8.335   5.124
  159DPPC    O7 7907   3.225   8.436   5.044
  159DPPC    P8 7908   3.231   8.577   5.121
  159DPPC    O9 7909   3.230   8.540   5.264
  159DPPC   O10 7910   3.126   8.659   5.057
  159DPPC   O11 7911   3.377   8.615   5.063
  159DPPC   C12 7912   3.384   8.728   4.975
  159DPPC   C13 7913   3.525   8.760   4.923
  159DPPC   O14 7914   3.552   8.897   4.892
  159DPPC   C15 7915   3.565   8.998   4.983
  159DPPC   O16 7916   3.545   8.973   5.102
  159DPPC   C17 7917   3.585   9.139   4.929
  159DPPC   C18 7918   3.708   9.158   4.840
  159DPPC   C19 7919   3.729   9.302   4.795
  159DPPC   C20 7920   3.875   9.332   4.762
  159DPPC   C21 7921   3.894   9.477   4.718
  159DPPC   C22 7922   4.045   9.505   4.722
  159DPPC   C23 7923   4.124   9.488   4.591
  159DPPC   C24 7924   4.272   9.513   4.617
  159DPPC   C25 7925   4.351   9.514   4.486
  159DPPC   C26 7926   4.348   9.374   4.424
  159DPPC   C27 7927   4.398   9.381   4.280
  159DPPC   C28 7928   4.364   9.244   4.221
  159DPPC   C29 7929   4.446   9.205   4.098
  159DPPC   C30 7930   4.433   9.306   3.983
  159DPPC   C31 7931   4.299   9.320   3.911
  159DPPC   C32 7932   3.551   8.663   4.807
  159DPPC   O33 7933   3.461   8.675   4.697
  159DPPC   C34 7934   3.496   8.595   4.593
  159DPPC   O35 7935   3.592   8.518   4.594
  159DPPC   C36 7936   3.403   8.616   4.473
  159DPPC   C37 7937   3.484   8.667   4.354
  159DPPC   C38 7938   3.386   8.748   4.269
  159DPPC   C39 7939   3.459   8.803   4.146
  159DPPC   C40 7940   3.368   8.810   4.023
  159DPPC   C41 7941   3.450   8.873   3.910
  159DPPC   C42 7942   3.552   8.779   3.847
  159DPPC   C43 7943   3.612   8.859   3.731
  159DPPC   C44 7944   3.714   8.774   3.656
  159DPPC   C45 7945   3.761   8.838   3.525
  159DPPC   C46 7946   3.645   8.888   3.440
  159DPPC   C47 7947   3.710   8.999   3.357
  159DPPC   C48 7948   3.843   8.944   3.304
  159DPPC   C49 7949   3.911   9.065   3.241
  159DPPC   C50 7950   3.831   9.125   3.125
  160DPPC    C1 7951   0.974   3.532   5.767
  160DPPC    C2 7952   0.879   3.434   5.574
  160DPPC    C3 7953   0.977   3.637   5.548
  160DPPC    N4 7954   0.994   3.511   5.623
  160DPPC    C5 7955   1.118   3.436   5.596
  160DPPC    C6 7956   1.253   3.493   5.640
  160DPPC    O7 7957   1.368   3.424   5.592
  160DPPC    P8 7958   1.507   3.501   5.619
  160DPPC    O9 7959   1.610   3.401   5.658
  160DPPC   O10 7960   1.464   3.615   5.703
  160DPPC   O11 7961   1.520   3.546   5.465
  160DPPC   C12 7962   1.562   3.431   5.391
  160DPPC   C13 7963   1.583   3.447   5.240
  160DPPC   O14 7964   1.715   3.410   5.199
  160DPPC   C15 7965   1.730   3.290   5.136
  160DPPC   O16 7966   1.667   3.197   5.186
  160DPPC   C17 7967   1.860   3.278   5.056
  160DPPC   C18 7968   1.832   3.214   4.920
  160DPPC   C19 7969   1.966   3.216   4.847
  160DPPC   C20 7970   1.972   3.123   4.726
  160DPPC   C21 7971   1.981   2.975   4.763
  160DPPC   C22 7972   1.972   2.890   4.635
  160DPPC   C23 7973   1.843   2.919   4.557
  160DPPC   C24 7974   1.805   2.797   4.473
  160DPPC   C25 7975   1.674   2.817   4.398
  160DPPC   C26 7976   1.638   2.715   4.289
  160DPPC   C27 7977   1.733   2.712   4.169
  160DPPC   C28 7978   1.673   2.623   4.060
  160DPPC   C29 7979   1.774   2.637   3.946
  160DPPC   C30 7980   1.714   2.556   3.831
  160DPPC   C31 7981   1.794   2.533   3.702
  160DPPC   C32 7982   1.538   3.592   5.216
  160DPPC   O33 7983   1.518   3.634   5.081
  160DPPC   C34 7984   1.535   3.769   5.080
  160DPPC   O35 7985   1.570   3.828   5.182
  160DPPC   C36 7986   1.502   3.840   4.948
  160DPPC   C37 7987   1.491   3.733   4.840
  160DPPC   C38 7988   1.469   3.789   4.699
  160DPPC   C39 7989   1.415   3.676   4.611
  160DPPC   C40 7990   1.405   3.708   4.462
  160DPPC   C41 7991   1.320   3.603   4.390
  160DPPC   C42 7992   1.276   3.650   4.251
  160DPPC   C43 7993   1.190   3.547   4.179
  160DPPC   C44 7994   1.112   3.607   4.061
  160DPPC   C45 7995   1.162   3.562   3.923
  160DPPC   C46 7996   1.084   3.611   3.801
  160DPPC   C47 7997   1.144   3.542   3.679
  160DPPC   C48 7998   1.078   3.599   3.554
  160DPPC   C49 7999   1.128   3.541   3.421
  160DPPC   C50 8000   1.280   3.555   3.408
  161DPPC    C1 8001   4.623   5.722   5.769
  161DPPC    C2 8002   4.400   5.663   5.796
  161DPPC    C3 8003   4.494   5.858   5.918
  161DPPC    N4 8004   4.490   5.779   5.794
  161DPPC    C5 8005   4.476   5.858   5.671
  161DPPC    C6 8006   4.370   5.969   5.673
  161DPPC    O7 8007   4.377   6.038   5.548
  161DPPC    P8 8008   4.235   6.108   5.518
  161DPPC    O9 8009   4.241   6.255   5.521
  161DPPC   O10 8010   4.130   6.024   5.580
  161DPPC   O11 8011   4.252   6.080   5.361
  161DPPC   C12 8012   4.345   6.167   5.295
  161DPPC   C13 8013   4.379   6.116   5.155
  161DPPC   O14 8014   4.292   6.146   5.045
  161DPPC   C15 8015   4.261   6.274   5.013
  161DPPC   O16 8016   4.283   6.372   5.085
  161DPPC   C17 8017   4.175   6.304   4.890
  161DPPC   C18 8018   4.152   6.454   4.866
  161DPPC   C19 8019   4.080   6.471   4.732
  161DPPC   C20 8020   3.951   6.390   4.739
  161DPPC   C21 8021   3.896   6.391   4.596
  161DPPC   C22 8022   4.007   6.337   4.506
  161DPPC   C23 8023   3.960   6.273   4.376
  161DPPC   C24 8024   4.064   6.183   4.309
  161DPPC   C25 8025   4.017   6.147   4.168
  161DPPC   C26 8026   4.123   6.066   4.092
  161DPPC   C27 8027   4.054   6.011   3.967
  161DPPC   C28 8028   4.044   6.102   3.844
  161DPPC   C29 8029   4.014   6.021   3.718
  161DPPC   C30 8030   3.887   5.941   3.747
  161DPPC   C31 8031   3.763   6.027   3.720
  161DPPC   C32 8032   4.413   5.969   5.182
  161DPPC   O33 8033   4.505   5.899   5.098
  161DPPC   C34 8034   4.512   5.765   5.121
  161DPPC   O35 8035   4.447   5.713   5.212
  161DPPC   C36 8036   4.585   5.679   5.017
  161DPPC   C37 8037   4.542   5.721   4.876
  161DPPC   C38 8038   4.650   5.675   4.778
  161DPPC   C39 8039   4.621   5.744   4.645
  161DPPC   C40 8040   4.706   5.691   4.530
  161DPPC   C41 8041   4.698   5.769   4.398
  161DPPC   C42 8042   4.808   5.711   4.308
  161DPPC   C43 8043   4.806   5.772   4.168
  161DPPC   C44 8044   4.921   5.718   4.082
  161DPPC   C45 8045   5.049   5.795   4.112
  161DPPC   C46 8046   5.153   5.751   4.010
  161DPPC   C47 8047   5.288   5.822   4.028
  161DPPC   C48 8048   5.389   5.756   3.935
  161DPPC   C49 8049   5.531   5.806   3.965
  161DPPC   C50 8050   5.527   5.958   3.962
  162DPPC    C1 8051   6.154   6.167   5.192
  162DPPC    C2 8052   6.387   6.129   5.221
  162DPPC    C3 8053   6.266   6.225   5.402
  162DPPC    N4 8054   6.258   6.131   5.290
  162DPPC    C5 8055   6.247   5.997   5.350
  162DPPC    C6 8056   6.196   5.883   5.262
  162DPPC    O7 8057   6.272   5.852   5.145
  162DPPC    P8 8058   6.200   5.734   5.061
  162DPPC    O9 8059   6.086   5.822   5.026
  162DPPC   O10 8060   6.198   5.620   5.155
  162DPPC   O11 8061   6.319   5.729   4.952
  162DPPC   C12 8062   6.292   5.841   4.867
  162DPPC   C13 8063   6.404   5.885   4.773
  162DPPC   O14 8064   6.381   5.838   4.640
  162DPPC   C15 8065   6.291   5.911   4.568
  162DPPC   O16 8066   6.210   5.985   4.622
  162DPPC   C17 8067   6.304   5.913   4.416
  162DPPC   C18 8068   6.422   5.826   4.371
  162DPPC   C19 8069   6.451   5.847   4.222
  162DPPC   C20 8070   6.332   5.822   4.129
  162DPPC   C21 8071   6.371   5.832   3.982
  162DPPC   C22 8072   6.398   5.978   3.944
  162DPPC   C23 8073   6.443   5.979   3.798
  162DPPC   C24 8074   6.448   6.120   3.739
  162DPPC   C25 8075   6.531   6.130   3.611
  162DPPC   C26 8076   6.666   6.060   3.633
  162DPPC   C27 8077   6.735   6.084   3.498
  162DPPC   C28 8078   6.662   6.009   3.387
  162DPPC   C29 8079   6.634   5.859   3.404
  162DPPC   C30 8080   6.495   5.831   3.347
  162DPPC   C31 8081   6.490   5.836   3.194
  162DPPC   C32 8082   6.531   5.831   4.839
  162DPPC   O33 8083   6.651   5.885   4.783
  162DPPC   C34 8084   6.767   5.815   4.803
  162DPPC   O35 8085   6.761   5.721   4.882
  162DPPC   C36 8086   6.890   5.869   4.731
  162DPPC   C37 8087   6.930   5.785   4.609
  162DPPC   C38 8088   6.844   5.815   4.486
  162DPPC   C39 8089   6.909   5.753   4.362
  162DPPC   C40 8090   6.828   5.768   4.233
  162DPPC   C41 8091   6.908   5.717   4.113
  162DPPC   C42 8092   6.819   5.722   3.988
  162DPPC   C43 8093   6.889   5.669   3.863
  162DPPC   C44 8094   6.823   5.685   3.726
  162DPPC   C45 8095   6.912   5.638   3.610
  162DPPC   C46 8096   7.023   5.737   3.572
  162DPPC   C47 8097   7.107   5.679   3.459
  162DPPC   C48 8098   7.223   5.774   3.430
  162DPPC   C49 8099   7.175   5.865   3.316
  162DPPC   C50 8100   7.290   5.964   3.296
  163DPPC    C1 8101   6.131   5.129   1.349
  163DPPC    C2 8102   6.114   5.199   1.577
  163DPPC    C3 8103   5.960   5.041   1.476
  163DPPC    N4 8104   6.100   5.084   1.486
  163DPPC    C5 8105   6.195   4.981   1.528
  163DPPC    C6 8106   6.177   4.896   1.654
  163DPPC    O7 8107   6.291   4.816   1.687
  163DPPC    P8 8108   6.242   4.699   1.787
  163DPPC    O9 8109   6.355   4.615   1.833
  163DPPC   O10 8110   6.124   4.629   1.732
  163DPPC   O11 8111   6.178   4.789   1.904
  163DPPC   C12 8112   6.278   4.815   2.003
  163DPPC   C13 8113   6.230   4.932   2.088
  163DPPC   O14 8114   6.336   4.987   2.168
  163DPPC   C15 8115   6.435   5.058   2.108
  163DPPC   O16 8116   6.446   5.056   1.986
  163DPPC   C17 8117   6.553   5.107   2.193
  163DPPC   C18 8118   6.514   5.239   2.259
  163DPPC   C19 8119   6.633   5.288   2.342
  163DPPC   C20 8120   6.603   5.418   2.418
  163DPPC   C21 8121   6.708   5.423   2.529
  163DPPC   C22 8122   6.704   5.562   2.593
  163DPPC   C23 8123   6.567   5.612   2.638
  163DPPC   C24 8124   6.594   5.743   2.711
  163DPPC   C25 8125   6.642   5.853   2.616
  163DPPC   C26 8126   6.659   5.982   2.698
  163DPPC   C27 8127   6.750   5.953   2.817
  163DPPC   C28 8128   6.753   6.072   2.913
  163DPPC   C29 8129   6.862   6.064   3.020
  163DPPC   C30 8130   6.902   6.201   3.076
  163DPPC   C31 8131   7.007   6.201   3.187
  163DPPC   C32 8132   6.111   4.877   2.166
  163DPPC   O33 8133   6.036   4.990   2.212
  163DPPC   C34 8134   5.926   4.948   2.280
  163DPPC   O35 8135   5.904   4.827   2.279
  163DPPC   C36 8136   5.844   5.046   2.364
  163DPPC   C37 8137   5.867   5.046   2.515
  163DPPC   C38 8138   5.775   5.150   2.578
  163DPPC   C39 8139   5.801   5.159   2.729
  163DPPC   C40 8140   5.693   5.246   2.793
  163DPPC   C41 8141   5.692   5.224   2.944
  163DPPC   C42 8142   5.592   5.323   3.004
  163DPPC   C43 8143   5.590   5.330   3.156
  163DPPC   C44 8144   5.545   5.465   3.215
  163DPPC   C45 8145   5.580   5.471   3.363
  163DPPC   C46 8146   5.554   5.616   3.404
  163DPPC   C47 8147   5.579   5.644   3.552
  163DPPC   C48 8148   5.585   5.795   3.574
  163DPPC   C49 8149   5.682   5.848   3.468
  163DPPC   C50 8150   5.698   5.998   3.443
  164DPPC    C1 8151   2.542   2.248   2.335
  164DPPC    C2 8152   2.735   2.244   2.477
  164DPPC    C3 8153   2.647   2.041   2.404
  164DPPC    N4 8154   2.670   2.180   2.362
  164DPPC    C5 8155   2.754   2.174   2.242
  164DPPC    C6 8156   2.794   2.288   2.148
  164DPPC    O7 8157   2.884   2.374   2.217
  164DPPC    P8 8158   2.915   2.492   2.111
  164DPPC    O9 8159   2.779   2.526   2.064
  164DPPC   O10 8160   3.019   2.423   2.032
  164DPPC   O11 8161   2.985   2.595   2.213
  164DPPC   C12 8162   2.898   2.615   2.325
  164DPPC   C13 8163   2.981   2.682   2.435
  164DPPC   O14 8164   2.916   2.707   2.560
  164DPPC   C15 8165   2.921   2.601   2.645
  164DPPC   O16 8166   2.959   2.487   2.617
  164DPPC   C17 8167   2.847   2.608   2.779
  164DPPC   C18 8168   2.904   2.518   2.889
  164DPPC   C19 8169   2.829   2.526   3.022
  164DPPC   C20 8170   2.707   2.434   3.020
  164DPPC   C21 8171   2.609   2.472   3.131
  164DPPC   C22 8172   2.563   2.618   3.129
  164DPPC   C23 8173   2.422   2.613   3.186
  164DPPC   C24 8174   2.456   2.604   3.334
  164DPPC   C25 8175   2.330   2.617   3.421
  164DPPC   C26 8176   2.350   2.608   3.573
  164DPPC   C27 8177   2.220   2.612   3.653
  164DPPC   C28 8178   2.229   2.591   3.804
  164DPPC   C29 8179   2.319   2.695   3.870
  164DPPC   C30 8180   2.251   2.831   3.858
  164DPPC   C31 8181   2.337   2.946   3.911
  164DPPC   C32 8182   3.045   2.802   2.365
  164DPPC   O33 8183   2.953   2.907   2.333
  164DPPC   C34 8184   3.002   3.010   2.259
  164DPPC   O35 8185   3.120   3.011   2.224
  164DPPC   C36 8186   2.919   3.138   2.252
  164DPPC   C37 8187   2.922   3.202   2.391
  164DPPC   C38 8188   2.787   3.272   2.405
  164DPPC   C39 8189   2.771   3.361   2.529
  164DPPC   C40 8190   2.751   3.256   2.639
  164DPPC   C41 8191   2.726   3.330   2.770
  164DPPC   C42 8192   2.748   3.233   2.886
  164DPPC   C43 8193   2.723   3.297   3.022
  164DPPC   C44 8194   2.745   3.190   3.130
  164DPPC   C45 8195   2.741   3.250   3.271
  164DPPC   C46 8196   2.787   3.140   3.366
  164DPPC   C47 8197   2.818   3.205   3.501
  164DPPC   C48 8198   2.849   3.105   3.612
  164DPPC   C49 8199   2.741   3.014   3.670
  164DPPC   C50 8200   2.794   2.978   3.809
  165DPPC    C1 8201   0.109   3.380   1.345
  165DPPC    C2 8202   0.290   3.502   1.470
  165DPPC    C3 8203   0.076   3.589   1.447
  165DPPC    N4 8204   0.149   3.462   1.460
  165DPPC    C5 8205   0.100   3.387   1.577
  165DPPC    C6 8206   0.163   3.250   1.603
  165DPPC    O7 8207   0.084   3.140   1.556
  165DPPC    P8 8208   0.168   3.005   1.532
  165DPPC    O9 8209   0.272   3.061   1.442
  165DPPC   O10 8210   0.065   2.903   1.500
  165DPPC   O11 8211   0.220   2.990   1.683
  165DPPC   C12 8212   0.108   2.947   1.762
  165DPPC   C13 8213   0.111   2.999   1.906
  165DPPC   O14 8214   0.107   3.141   1.927
  165DPPC   C15 8215  -0.014   3.196   1.957
  165DPPC   O16 8216  -0.121   3.141   1.932
  165DPPC   C17 8217  -0.007   3.346   1.985
  165DPPC   C18 8218   0.064   3.383   2.115
  165DPPC   C19 8219  -0.018   3.352   2.241
  165DPPC   C20 8220   0.040   3.400   2.374
  165DPPC   C21 8221  -0.061   3.391   2.488
  165DPPC   C22 8222  -0.007   3.396   2.631
  165DPPC   C23 8223  -0.123   3.378   2.729
  165DPPC   C24 8224  -0.046   3.379   2.861
  165DPPC   C25 8225  -0.135   3.317   2.968
  165DPPC   C26 8226  -0.085   3.385   3.096
  165DPPC   C27 8227  -0.147   3.305   3.211
  165DPPC   C28 8228  -0.300   3.296   3.201
  165DPPC   C29 8229  -0.363   3.240   3.329
  165DPPC   C30 8230  -0.427   3.348   3.416
  165DPPC   C31 8231  -0.485   3.277   3.539
  165DPPC   C32 8232   0.240   2.940   1.965
  165DPPC   O33 8233   0.236   2.887   2.098
  165DPPC   C34 8234   0.192   2.760   2.114
  165DPPC   O35 8235   0.210   2.680   2.022
  165DPPC   C36 8236   0.201   2.715   2.260
  165DPPC   C37 8237   0.148   2.574   2.285
  165DPPC   C38 8238   0.189   2.551   2.431
  165DPPC   C39 8239   0.061   2.512   2.506
  165DPPC   C40 8240   0.079   2.525   2.657
  165DPPC   C41 8241  -0.044   2.484   2.738
  165DPPC   C42 8242  -0.027   2.515   2.887
  165DPPC   C43 8243  -0.145   2.485   2.979
  165DPPC   C44 8244  -0.133   2.579   3.099
  165DPPC   C45 8245  -0.246   2.541   3.195
  165DPPC   C46 8246  -0.237   2.630   3.319
  165DPPC   C47 8247  -0.343   2.578   3.415
  165DPPC   C48 8248  -0.321   2.436   3.468
  165DPPC   C49 8249  -0.427   2.375   3.560
  165DPPC   C50 8250  -0.372   2.247   3.623
  166DPPC    C1 8251   2.272   3.434   1.349
  166DPPC    C2 8252   2.495   3.460   1.448
  166DPPC    C3 8253   2.317   3.362   1.571
  166DPPC    N4 8254   2.374   3.376   1.436
  166DPPC    C5 8255   2.430   3.248   1.388
  166DPPC    C6 8256   2.370   3.112   1.422
  166DPPC    O7 8257   2.242   3.106   1.358
  166DPPC    P8 8258   2.162   2.972   1.396
  166DPPC    O9 8259   2.254   2.857   1.378
  166DPPC   O10 8260   2.030   2.974   1.330
  166DPPC   O11 8261   2.132   3.015   1.549
  166DPPC   C12 8262   2.038   2.918   1.596
  166DPPC   C13 8263   1.978   2.950   1.733
  166DPPC   O14 8264   1.861   2.874   1.767
  166DPPC   C15 8265   1.870   2.744   1.804
  166DPPC   O16 8266   1.976   2.682   1.816
  166DPPC   C17 8267   1.742   2.693   1.871
  166DPPC   C18 8268   1.772   2.656   2.016
  166DPPC   C19 8269   1.655   2.582   2.080
  166DPPC   C20 8270   1.669   2.601   2.231
  166DPPC   C21 8271   1.598   2.498   2.319
  166DPPC   C22 8272   1.627   2.523   2.467
  166DPPC   C23 8273   1.601   2.666   2.517
  166DPPC   C24 8274   1.599   2.667   2.670
  166DPPC   C25 8275   1.645   2.806   2.714
  166DPPC   C26 8276   1.665   2.811   2.866
  166DPPC   C27 8277   1.534   2.766   2.931
  166DPPC   C28 8278   1.556   2.758   3.082
  166DPPC   C29 8279   1.440   2.673   3.132
  166DPPC   C30 8280   1.423   2.675   3.284
  166DPPC   C31 8281   1.311   2.574   3.312
  166DPPC   C32 8282   1.966   3.103   1.729
  166DPPC   O33 8283   1.932   3.172   1.849
  166DPPC   C34 8284   1.940   3.308   1.840
  166DPPC   O35 8285   2.010   3.367   1.758
  166DPPC   C36 8286   1.863   3.392   1.942
  166DPPC   C37 8287   1.956   3.426   2.059
  166DPPC   C38 8288   1.896   3.516   2.166
  166DPPC   C39 8289   2.004   3.522   2.275
  166DPPC   C40 8290   1.943   3.620   2.376
  166DPPC   C41 8291   2.027   3.618   2.504
  166DPPC   C42 8292   1.926   3.602   2.618
  166DPPC   C43 8293   1.983   3.607   2.760
  166DPPC   C44 8294   1.875   3.560   2.858
  166DPPC   C45 8295   1.843   3.670   2.960
  166DPPC   C46 8296   1.817   3.807   2.898
  166DPPC   C47 8297   1.797   3.908   3.011
  166DPPC   C48 8298   1.918   3.930   3.103
  166DPPC   C49 8299   1.885   4.030   3.215
  166DPPC   C50 8300   2.003   4.041   3.311
  167DPPC    C1 8301   2.241   2.330   1.484
  167DPPC    C2 8302   2.417   2.188   1.562
  167DPPC    C3 8303   2.393   2.412   1.636
  167DPPC    N4 8304   2.318   2.290   1.602
  167DPPC    C5 8305   2.235   2.247   1.716
  167DPPC    C6 8306   2.133   2.134   1.703
  167DPPC    O7 8307   2.202   2.011   1.724
  167DPPC    P8 8308   2.095   1.897   1.686
  167DPPC    O9 8309   2.180   1.779   1.660
  167DPPC   O10 8310   2.015   1.963   1.580
  167DPPC   O11 8311   2.033   1.926   1.832
  167DPPC   C12 8312   2.105   1.876   1.945
  167DPPC   C13 8313   2.033   1.911   2.075
  167DPPC   O14 8314   1.918   1.831   2.104
  167DPPC   C15 8315   1.938   1.703   2.146
  167DPPC   O16 8316   2.033   1.637   2.106
  167DPPC   C17 8317   1.835   1.655   2.248
  167DPPC   C18 8318   1.889   1.672   2.390
  167DPPC   C19 8319   1.806   1.617   2.507
  167DPPC   C20 8320   1.857   1.658   2.645
  167DPPC   C21 8321   2.005   1.625   2.664
  167DPPC   C22 8322   2.062   1.711   2.777
  167DPPC   C23 8323   2.200   1.643   2.774
  167DPPC   C24 8324   2.279   1.740   2.861
  167DPPC   C25 8325   2.395   1.672   2.934
  167DPPC   C26 8326   2.336   1.588   3.047
  167DPPC   C27 8327   2.435   1.512   3.136
  167DPPC   C28 8328   2.391   1.377   3.193
  167DPPC   C29 8329   2.511   1.323   3.271
  167DPPC   C30 8330   2.471   1.202   3.355
  167DPPC   C31 8331   2.352   1.245   3.440
  167DPPC   C32 8332   2.020   2.063   2.060
  167DPPC   O33 8333   2.022   2.134   2.184
  167DPPC   C34 8334   1.955   2.253   2.186
  167DPPC   O35 8335   1.880   2.294   2.098
  167DPPC   C36 8336   1.954   2.330   2.318
  167DPPC   C37 8337   2.068   2.431   2.328
  167DPPC   C38 8338   2.034   2.531   2.438
  167DPPC   C39 8339   2.018   2.462   2.573
  167DPPC   C40 8340   2.016   2.577   2.674
  167DPPC   C41 8341   2.020   2.541   2.823
  167DPPC   C42 8342   2.016   2.668   2.909
  167DPPC   C43 8343   1.975   2.634   3.053
  167DPPC   C44 8344   1.952   2.756   3.143
  167DPPC   C45 8345   1.922   2.720   3.289
  167DPPC   C46 8346   1.921   2.851   3.367
  167DPPC   C47 8347   1.854   2.839   3.504
  167DPPC   C48 8348   1.890   2.966   3.582
  167DPPC   C49 8349   1.817   2.959   3.716
  167DPPC   C50 8350   1.876   3.053   3.820
  168DPPC    C1 8351   2.750   8.043   1.442
  168DPPC    C2 8352   2.529   8.004   1.364
  168DPPC    C3 8353   2.591   7.949   1.587
  168DPPC    N4 8354   2.608   8.048   1.480
  168DPPC    C5 8355   2.575   8.184   1.522
  168DPPC    C6 8356   2.640   8.258   1.639
  168DPPC    O7 8357   2.609   8.398   1.646
  168DPPC    P8 8358   2.697   8.467   1.761
  168DPPC    O9 8359   2.680   8.614   1.763
  168DPPC   O10 8360   2.826   8.399   1.735
  168DPPC   O11 8361   2.654   8.386   1.894
  168DPPC   C12 8362   2.532   8.439   1.948
  168DPPC   C13 8363   2.501   8.392   2.090
  168DPPC   O14 8364   2.374   8.443   2.134
  168DPPC   C15 8365   2.265   8.364   2.120
  168DPPC   O16 8366   2.251   8.303   2.014
  168DPPC   C17 8367   2.146   8.380   2.214
  168DPPC   C18 8368   2.132   8.527   2.254
  168DPPC   C19 8369   2.061   8.537   2.390
  168DPPC   C20 8370   2.038   8.686   2.415
  168DPPC   C21 8371   1.977   8.726   2.550
  168DPPC   C22 8372   1.895   8.854   2.531
  168DPPC   C23 8373   1.842   8.907   2.664
  168DPPC   C24 8374   1.725   8.827   2.722
  168DPPC   C25 8375   1.675   8.893   2.850
  168DPPC   C26 8376   1.597   8.796   2.939
  168DPPC   C27 8377   1.681   8.670   2.962
  168DPPC   C28 8378   1.631   8.556   3.052
  168DPPC   C29 8379   1.481   8.530   3.049
  168DPPC   C30 8380   1.459   8.423   3.156
  168DPPC   C31 8381   1.309   8.396   3.164
  168DPPC   C32 8382   2.622   8.440   2.169
  168DPPC   O33 8383   2.648   8.581   2.159
  168DPPC   C34 8384   2.777   8.623   2.168
  168DPPC   O35 8385   2.866   8.547   2.204
  168DPPC   C36 8386   2.789   8.774   2.150
  168DPPC   C37 8387   2.751   8.855   2.274
  168DPPC   C38 8388   2.755   8.998   2.220
  168DPPC   C39 8389   2.726   9.102   2.328
  168DPPC   C40 8390   2.810   9.079   2.453
  168DPPC   C41 8391   2.779   9.184   2.561
  168DPPC   C42 8392   2.863   9.156   2.685
  168DPPC   C43 8393   2.860   9.275   2.781
  168DPPC   C44 8394   2.946   9.254   2.906
  168DPPC   C45 8395   3.094   9.225   2.884
  168DPPC   C46 8396   3.168   9.231   3.018
  168DPPC   C47 8397   3.313   9.183   3.011
  168DPPC   C48 8398   3.379   9.283   2.916
  168DPPC   C49 8399   3.529   9.253   2.913
  168DPPC   C50 8400   3.573   9.150   2.809
  169DPPC    C1 8401   0.091   2.570   1.724
  169DPPC    C2 8402   0.309   2.512   1.708
  169DPPC    C3 8403   0.151   2.358   1.609
  169DPPC    N4 8404   0.183   2.500   1.633
  169DPPC    C5 8405   0.185   2.582   1.511
  169DPPC    C6 8406   0.279   2.557   1.393
  169DPPC    O7 8407   0.411   2.611   1.406
  169DPPC    P8 8408   0.432   2.757   1.341
  169DPPC    O9 8409   0.319   2.801   1.257
  169DPPC   O10 8410   0.566   2.736   1.281
  169DPPC   O11 8411   0.452   2.818   1.489
  169DPPC   C12 8412   0.580   2.789   1.547
  169DPPC   C13 8413   0.602   2.862   1.680
  169DPPC   O14 8414   0.550   2.801   1.798
  169DPPC   C15 8415   0.637   2.742   1.885
  169DPPC   O16 8416   0.740   2.690   1.843
  169DPPC   C17 8417   0.581   2.695   2.019
  169DPPC   C18 8418   0.648   2.567   2.069
  169DPPC   C19 8419   0.644   2.553   2.222
  169DPPC   C20 8420   0.717   2.428   2.269
  169DPPC   C21 8421   0.629   2.303   2.256
  169DPPC   C22 8422   0.514   2.322   2.355
  169DPPC   C23 8423   0.572   2.312   2.497
  169DPPC   C24 8424   0.462   2.339   2.600
  169DPPC   C25 8425   0.515   2.332   2.743
  169DPPC   C26 8426   0.408   2.347   2.851
  169DPPC   C27 8427   0.350   2.206   2.860
  169DPPC   C28 8428   0.237   2.205   2.962
  169DPPC   C29 8429   0.282   2.213   3.108
  169DPPC   C30 8430   0.161   2.213   3.201
  169DPPC   C31 8431   0.080   2.092   3.152
  169DPPC   C32 8432   0.564   3.008   1.651
  169DPPC   O33 8433   0.587   3.097   1.760
  169DPPC   C34 8434   0.544   3.226   1.749
  169DPPC   O35 8435   0.510   3.279   1.643
  169DPPC   C36 8436   0.565   3.306   1.877
  169DPPC   C37 8437   0.487   3.257   1.999
  169DPPC   C38 8438   0.488   3.376   2.095
  169DPPC   C39 8439   0.414   3.334   2.222
  169DPPC   C40 8440   0.393   3.453   2.315
  169DPPC   C41 8441   0.523   3.532   2.332
  169DPPC   C42 8442   0.604   3.481   2.451
  169DPPC   C43 8443   0.751   3.520   2.442
  169DPPC   C44 8444   0.832   3.492   2.569
  169DPPC   C45 8445   0.982   3.490   2.540
  169DPPC   C46 8446   1.031   3.628   2.496
  169DPPC   C47 8447   1.181   3.654   2.503
  169DPPC   C48 8448   1.220   3.791   2.449
  169DPPC   C49 8449   1.185   3.782   2.300
  169DPPC   C50 8450   1.165   3.911   2.220
  170DPPC    C1 8451   6.837   8.436   1.540
  170DPPC    C2 8452   7.013   8.323   1.474
  170DPPC    C3 8453   7.028   8.483   1.661
  170DPPC    N4 8454   6.954   8.371   1.600
  170DPPC    C5 8455   6.904   8.260   1.682
  170DPPC    C6 8456   7.002   8.170   1.758
  170DPPC    O7 8457   6.928   8.060   1.811
  170DPPC    P8 8458   7.015   7.925   1.800
  170DPPC    O9 8459   7.105   7.941   1.684
  170DPPC   O10 8460   6.925   7.808   1.811
  170DPPC   O11 8461   7.117   7.935   1.924
  170DPPC   C12 8462   7.030   7.904   2.033
  170DPPC   C13 8463   7.103   7.896   2.167
  170DPPC   O14 8464   7.032   7.820   2.267
  170DPPC   C15 8465   7.039   7.684   2.267
  170DPPC   O16 8466   7.075   7.622   2.167
  170DPPC   C17 8467   6.964   7.610   2.378
  170DPPC   C18 8468   6.931   7.688   2.505
  170DPPC   C19 8469   6.881   7.598   2.618
  170DPPC   C20 8470   6.822   7.681   2.733
  170DPPC   C21 8471   6.751   7.596   2.839
  170DPPC   C22 8472   6.702   7.677   2.959
  170DPPC   C23 8473   6.815   7.765   3.013
  170DPPC   C24 8474   6.758   7.858   3.120
  170DPPC   C25 8475   6.636   7.937   3.071
  170DPPC   C26 8476   6.572   8.019   3.184
  170DPPC   C27 8477   6.529   7.908   3.279
  170DPPC   C28 8478   6.453   7.965   3.399
  170DPPC   C29 8479   6.389   7.848   3.475
  170DPPC   C30 8480   6.497   7.750   3.519
  170DPPC   C31 8481   6.417   7.626   3.561
  170DPPC   C32 8482   7.142   8.036   2.214
  170DPPC   O33 8483   7.228   8.043   2.328
  170DPPC   C34 8484   7.254   8.165   2.381
  170DPPC   O35 8485   7.182   8.262   2.353
  170DPPC   C36 8486   7.374   8.179   2.474
  170DPPC   C37 8487   7.490   8.221   2.383
  170DPPC   C38 8488   7.622   8.223   2.459
  170DPPC   C39 8489   7.617   8.330   2.569
  170DPPC   C40 8490   7.751   8.351   2.640
  170DPPC   C41 8491   7.746   8.477   2.725
  170DPPC   C42 8492   7.893   8.504   2.757
  170DPPC   C43 8493   7.921   8.618   2.856
  170DPPC   C44 8494   8.066   8.605   2.902
  170DPPC   C45 8495   8.084   8.700   3.020
  170DPPC   C46 8496   8.217   8.690   3.095
  170DPPC   C47 8497   8.213   8.758   3.232
  170DPPC   C48 8498   8.336   8.705   3.306
  170DPPC   C49 8499   8.325   8.761   3.448
  170DPPC   C50 8500   8.442   8.734   3.543
  171DPPC    C1 8501   5.774   7.430   1.444
  171DPPC    C2 8502   5.710   7.225   1.373
  171DPPC    C3 8503   5.933   7.255   1.479
  171DPPC    N4 8504   5.790   7.288   1.480
  171DPPC    C5 8505   5.738   7.245   1.610
  171DPPC    C6 8506   5.618   7.322   1.665
  171DPPC    O7 8507   5.572   7.254   1.782
  171DPPC    P8 8508   5.445   7.304   1.867
  171DPPC    O9 8509   5.418   7.198   1.966
  171DPPC   O10 8510   5.343   7.323   1.761
  171DPPC   O11 8511   5.517   7.442   1.907
  171DPPC   C12 8512   5.582   7.418   2.032
  171DPPC   C13 8513   5.695   7.517   2.058
  171DPPC   O14 8514   5.789   7.477   2.159
  171DPPC   C15 8515   5.908   7.535   2.189
  171DPPC   O16 8516   5.962   7.620   2.119
  171DPPC   C17 8517   6.001   7.459   2.284
  171DPPC   C18 8518   6.129   7.539   2.307
  171DPPC   C19 8519   6.236   7.481   2.399
  171DPPC   C20 8520   6.195   7.527   2.539
  171DPPC   C21 8521   6.296   7.498   2.650
  171DPPC   C22 8522   6.252   7.576   2.774
  171DPPC   C23 8523   6.325   7.522   2.897
  171DPPC   C24 8524   6.302   7.374   2.926
  171DPPC   C25 8525   6.338   7.333   3.069
  171DPPC   C26 8526   6.228   7.359   3.172
  171DPPC   C27 8527   6.293   7.326   3.307
  171DPPC   C28 8528   6.190   7.328   3.420
  171DPPC   C29 8529   6.227   7.218   3.520
  171DPPC   C30 8530   6.101   7.166   3.588
  171DPPC   C31 8531   6.124   7.059   3.696
  171DPPC   C32 8532   5.638   7.653   2.099
  171DPPC   O33 8533   5.545   7.645   2.207
  171DPPC   C34 8534   5.492   7.763   2.249
  171DPPC   O35 8535   5.524   7.872   2.203
  171DPPC   C36 8536   5.407   7.768   2.376
  171DPPC   C37 8537   5.465   7.859   2.485
  171DPPC   C38 8538   5.374   7.861   2.608
  171DPPC   C39 8539   5.436   7.949   2.716
  171DPPC   C40 8540   5.452   8.092   2.666
  171DPPC   C41 8541   5.535   8.185   2.755
  171DPPC   C42 8542   5.520   8.327   2.702
  171DPPC   C43 8543   5.497   8.426   2.816
  171DPPC   C44 8544   5.620   8.429   2.908
  171DPPC   C45 8545   5.573   8.468   3.048
  171DPPC   C46 8546   5.457   8.376   3.089
  171DPPC   C47 8547   5.391   8.423   3.218
  171DPPC   C48 8548   5.249   8.369   3.238
  171DPPC   C49 8549   5.185   8.455   3.347
  171DPPC   C50 8550   5.035   8.437   3.326
  172DPPC    C1 8551   2.984   5.043   1.728
  172DPPC    C2 8552   2.971   5.036   1.981
  172DPPC    C3 8553   3.084   4.888   1.858
  172DPPC    N4 8554   3.052   5.031   1.858
  172DPPC    C5 8555   3.181   5.098   1.878
  172DPPC    C6 8556   3.178   5.250   1.869
  172DPPC    O7 8557   3.302   5.321   1.873
  172DPPC    P8 8558   3.273   5.469   1.816
  172DPPC    O9 8559   3.131   5.485   1.779
  172DPPC   O10 8560   3.382   5.539   1.744
  172DPPC   O11 8561   3.261   5.546   1.956
  172DPPC   C12 8562   3.395   5.519   1.999
  172DPPC   C13 8563   3.428   5.551   2.145
  172DPPC   O14 8564   3.404   5.440   2.232
  172DPPC   C15 8565   3.514   5.417   2.309
  172DPPC   O16 8566   3.623   5.411   2.252
  172DPPC   C17 8567   3.493   5.319   2.425
  172DPPC   C18 8568   3.448   5.388   2.553
  172DPPC   C19 8569   3.544   5.496   2.604
  172DPPC   C20 8570   3.503   5.547   2.742
  172DPPC   C21 8571   3.590   5.664   2.786
  172DPPC   C22 8572   3.546   5.726   2.919
  172DPPC   C23 8573   3.625   5.853   2.949
  172DPPC   C24 8574   3.547   5.936   3.051
  172DPPC   C25 8575   3.637   6.058   3.074
  172DPPC   C26 8576   3.582   6.144   3.187
  172DPPC   C27 8577   3.637   6.286   3.172
  172DPPC   C28 8578   3.590   6.368   3.293
  172DPPC   C29 8579   3.604   6.288   3.423
  172DPPC   C30 8580   3.620   6.367   3.553
  172DPPC   C31 8581   3.497   6.459   3.561
  172DPPC   C32 8582   3.352   5.681   2.175
  172DPPC   O33 8583   3.354   5.718   2.313
  172DPPC   C34 8584   3.275   5.816   2.364
  172DPPC   O35 8585   3.233   5.901   2.286
  172DPPC   C36 8586   3.273   5.848   2.514
  172DPPC   C37 8587   3.211   5.740   2.603
  172DPPC   C38 8588   3.192   5.790   2.747
  172DPPC   C39 8589   3.105   5.704   2.838
  172DPPC   C40 8590   3.107   5.757   2.981
  172DPPC   C41 8591   3.033   5.665   3.078
  172DPPC   C42 8592   3.053   5.703   3.225
  172DPPC   C43 8593   3.198   5.664   3.255
  172DPPC   C44 8594   3.246   5.731   3.384
  172DPPC   C45 8595   3.213   5.651   3.510
  172DPPC   C46 8596   3.259   5.727   3.635
  172DPPC   C47 8597   3.408   5.759   3.622
  172DPPC   C48 8598   3.463   5.836   3.742
  172DPPC   C49 8599   3.473   5.747   3.866
  172DPPC   C50 8600   3.564   5.624   3.850
  173DPPC    C1 8601   6.056   2.041   2.295
  173DPPC    C2 8602   5.923   2.056   2.104
  173DPPC    C3 8603   5.931   2.248   2.255
  173DPPC    N4 8604   6.007   2.137   2.195
  173DPPC    C5 8605   6.132   2.188   2.138
  173DPPC    C6 8606   6.135   2.294   2.027
  173DPPC    O7 8607   6.257   2.348   1.976
  173DPPC    P8 8608   6.248   2.493   1.907
  173DPPC    O9 8609   6.126   2.469   1.826
  173DPPC   O10 8610   6.374   2.549   1.854
  173DPPC   O11 8611   6.205   2.572   2.041
  173DPPC   C12 8612   6.324   2.631   2.094
  173DPPC   C13 8613   6.303   2.706   2.226
  173DPPC   O14 8614   6.424   2.752   2.288
  173DPPC   C15 8615   6.404   2.865   2.361
  173DPPC   O16 8616   6.317   2.940   2.318
  173DPPC   C17 8617   6.530   2.926   2.424
  173DPPC   C18 8618   6.501   3.012   2.547
  173DPPC   C19 8619   6.591   2.981   2.666
  173DPPC   C20 8620   6.576   2.843   2.730
  173DPPC   C21 8621   6.671   2.831   2.850
  173DPPC   C22 8622   6.642   2.700   2.923
  173DPPC   C23 8623   6.729   2.663   3.044
  173DPPC   C24 8624   6.674   2.756   3.152
  173DPPC   C25 8625   6.745   2.733   3.286
  173DPPC   C26 8626   6.654   2.810   3.382
  173DPPC   C27 8627   6.723   2.830   3.517
  173DPPC   C28 8628   6.752   2.702   3.596
  173DPPC   C29 8629   6.803   2.749   3.733
  173DPPC   C30 8630   6.693   2.833   3.797
  173DPPC   C31 8631   6.729   2.889   3.935
  173DPPC   C32 8632   6.248   2.587   2.305
  173DPPC   O33 8633   6.211   2.601   2.443
  173DPPC   C34 8634   6.189   2.490   2.518
  173DPPC   O35 8635   6.164   2.384   2.461
  173DPPC   C36 8636   6.155   2.511   2.666
  173DPPC   C37 8637   6.263   2.528   2.773
  173DPPC   C38 8638   6.207   2.602   2.895
  173DPPC   C39 8639   6.291   2.608   3.023
  173DPPC   C40 8640   6.244   2.712   3.124
  173DPPC   C41 8641   6.288   2.681   3.268
  173DPPC   C42 8642   6.223   2.782   3.362
  173DPPC   C43 8643   6.287   2.786   3.501
  173DPPC   C44 8644   6.274   2.643   3.554
  173DPPC   C45 8645   6.320   2.649   3.700
  173DPPC   C46 8646   6.242   2.754   3.779
  173DPPC   C47 8647   6.287   2.763   3.925
  173DPPC   C48 8648   6.240   2.897   3.983
  173DPPC   C49 8649   6.330   3.019   3.963
  173DPPC   C50 8650   6.259   3.153   3.977
  174DPPC    C1 8651   8.975   4.946   1.212
  174DPPC    C2 8652   9.121   4.888   1.372
  174DPPC    C3 8653   8.982   4.709   1.294
  174DPPC    N4 8654   9.055   4.831   1.254
  174DPPC    C5 8655   9.140   4.817   1.135
  174DPPC    C6 8656   9.228   4.692   1.134
  174DPPC    O7 8657   9.303   4.681   1.256
  174DPPC    P8 8658   9.373   4.537   1.236
  174DPPC    O9 8659   9.459   4.542   1.115
  174DPPC   O10 8660   9.258   4.444   1.237
  174DPPC   O11 8661   9.459   4.545   1.372
  174DPPC   C12 8662   9.375   4.508   1.482
  174DPPC   C13 8663   9.445   4.525   1.616
  174DPPC   O14 8664   9.365   4.491   1.730
  174DPPC   C15 8665   9.376   4.359   1.762
  174DPPC   O16 8666   9.425   4.276   1.685
  174DPPC   C17 8667   9.315   4.309   1.893
  174DPPC   C18 8668   9.309   4.415   2.003
  174DPPC   C19 8669   9.250   4.353   2.130
  174DPPC   C20 8670   9.242   4.449   2.249
  174DPPC   C21 8671   9.158   4.403   2.368
  174DPPC   C22 8672   9.159   4.493   2.492
  174DPPC   C23 8673   9.098   4.410   2.605
  174DPPC   C24 8674   9.099   4.475   2.744
  174DPPC   C25 8675   9.087   4.368   2.853
  174DPPC   C26 8676   9.061   4.422   2.994
  174DPPC   C27 8677   9.022   4.311   3.092
  174DPPC   C28 8678   8.893   4.242   3.047
  174DPPC   C29 8679   8.859   4.148   3.163
  174DPPC   C30 8680   8.740   4.057   3.130
  174DPPC   C31 8681   8.656   4.025   3.253
  174DPPC   C32 8682   9.514   4.662   1.617
  174DPPC   O33 8683   9.427   4.772   1.590
  174DPPC   C34 8684   9.489   4.893   1.596
  174DPPC   O35 8685   9.612   4.898   1.590
  174DPPC   C36 8686   9.393   5.012   1.591
  174DPPC   C37 8687   9.433   5.112   1.699
  174DPPC   C38 8688   9.339   5.233   1.696
  174DPPC   C39 8689   9.350   5.335   1.809
  174DPPC   C40 8690   9.341   5.273   1.949
  174DPPC   C41 8691   9.324   5.383   2.055
  174DPPC   C42 8692   9.306   5.314   2.190
  174DPPC   C43 8693   9.336   5.413   2.303
  174DPPC   C44 8694   9.300   5.350   2.438
  174DPPC   C45 8695   9.339   5.446   2.551
  174DPPC   C46 8696   9.281   5.402   2.686
  174DPPC   C47 8697   9.323   5.511   2.785
  174DPPC   C48 8698   9.251   5.478   2.916
  174DPPC   C49 8699   9.101   5.489   2.886
  174DPPC   C50 8700   9.008   5.442   2.998
  175DPPC    C1 8701   3.744   1.778   1.995
  175DPPC    C2 8702   3.934   1.894   2.072
  175DPPC    C3 8703   3.728   1.988   2.111
  175DPPC    N4 8704   3.796   1.858   2.107
  175DPPC    C5 8705   3.804   1.793   2.239
  175DPPC    C6 8706   3.673   1.724   2.281
  175DPPC    O7 8707   3.560   1.809   2.299
  175DPPC    P8 8708   3.422   1.728   2.318
  175DPPC    O9 8709   3.462   1.588   2.344
  175DPPC   O10 8710   3.322   1.780   2.221
  175DPPC   O11 8711   3.401   1.799   2.461
  175DPPC   C12 8712   3.434   1.704   2.563
  175DPPC   C13 8713   3.458   1.770   2.699
  175DPPC   O14 8714   3.541   1.702   2.794
  175DPPC   C15 8715   3.674   1.687   2.771
  175DPPC   O16 8716   3.734   1.755   2.688
  175DPPC   C17 8717   3.744   1.608   2.882
  175DPPC   C18 8718   3.728   1.692   3.009
  175DPPC   C19 8719   3.777   1.636   3.143
  175DPPC   C20 8720   3.790   1.746   3.249
  175DPPC   C21 8721   3.828   1.695   3.388
  175DPPC   C22 8722   3.960   1.620   3.406
  175DPPC   C23 8723   3.987   1.587   3.553
  175DPPC   C24 8724   3.999   1.701   3.654
  175DPPC   C25 8725   4.019   1.657   3.799
  175DPPC   C26 8726   4.047   1.783   3.882
  175DPPC   C27 8727   4.090   1.742   4.023
  175DPPC   C28 8728   4.159   1.856   4.099
  175DPPC   C29 8729   4.178   1.831   4.249
  175DPPC   C30 8730   4.270   1.709   4.252
  175DPPC   C31 8731   4.408   1.732   4.191
  175DPPC   C32 8732   3.323   1.827   2.744
  175DPPC   O33 8733   3.229   1.720   2.755
  175DPPC   C34 8734   3.113   1.739   2.824
  175DPPC   O35 8735   3.040   1.825   2.774
  175DPPC   C36 8736   3.058   1.601   2.861
  175DPPC   C37 8737   2.918   1.624   2.918
  175DPPC   C38 8738   2.853   1.489   2.951
  175DPPC   C39 8739   2.938   1.398   3.040
  175DPPC   C40 8740   2.861   1.267   3.054
  175DPPC   C41 8741   2.942   1.173   3.144
  175DPPC   C42 8742   2.967   1.238   3.280
  175DPPC   C43 8743   3.079   1.171   3.359
  175DPPC   C44 8744   3.136   1.248   3.478
  175DPPC   C45 8745   3.250   1.152   3.512
  175DPPC   C46 8746   3.338   1.208   3.623
  175DPPC   C47 8747   3.272   1.245   3.756
  175DPPC   C48 8748   3.388   1.245   3.856
  175DPPC   C49 8749   3.339   1.293   3.993
  175DPPC   C50 8750   3.433   1.265   4.110
  176DPPC    C1 8751   8.316   4.771   1.272
  176DPPC    C2 8752   8.385   4.798   1.041
  176DPPC    C3 8753   8.152   4.777   1.105
  176DPPC    N4 8754   8.284   4.832   1.142
  176DPPC    C5 8755   8.269   4.978   1.153
  176DPPC    C6 8756   8.399   5.059   1.165
  176DPPC    O7 8757   8.443   5.074   1.300
  176DPPC    P8 8758   8.599   5.113   1.309
  176DPPC    O9 8759   8.608   5.245   1.374
  176DPPC   O10 8760   8.655   5.105   1.172
  176DPPC   O11 8761   8.650   4.986   1.394
  176DPPC   C12 8762   8.579   4.964   1.517
  176DPPC   C13 8763   8.643   4.860   1.609
  176DPPC   O14 8764   8.561   4.827   1.722
  176DPPC   C15 8765   8.587   4.705   1.778
  176DPPC   O16 8766   8.646   4.620   1.713
  176DPPC   C17 8767   8.510   4.671   1.906
  176DPPC   C18 8768   8.369   4.613   1.890
  176DPPC   C19 8769   8.305   4.589   2.027
  176DPPC   C20 8770   8.160   4.540   2.037
  176DPPC   C21 8771   8.135   4.480   2.176
  176DPPC   C22 8772   7.992   4.428   2.185
  176DPPC   C23 8773   7.956   4.368   2.322
  176DPPC   C24 8774   7.923   4.480   2.421
  176DPPC   C25 8775   7.897   4.431   2.564
  176DPPC   C26 8776   7.825   4.532   2.653
  176DPPC   C27 8777   7.805   4.486   2.798
  176DPPC   C28 8778   7.726   4.591   2.876
  176DPPC   C29 8779   7.743   4.561   3.025
  176DPPC   C30 8780   7.894   4.581   3.036
  176DPPC   C31 8781   7.948   4.508   3.160
  176DPPC   C32 8782   8.786   4.905   1.637
  176DPPC   O33 8783   8.790   5.036   1.696
  176DPPC   C34 8784   8.914   5.086   1.723
  176DPPC   O35 8785   9.013   5.020   1.692
  176DPPC   C36 8786   8.904   5.209   1.813
  176DPPC   C37 8787   8.900   5.178   1.963
  176DPPC   C38 8788   8.914   5.313   2.032
  176DPPC   C39 8789   8.884   5.297   2.181
  176DPPC   C40 8790   8.918   5.420   2.266
  176DPPC   C41 8791   8.866   5.407   2.409
  176DPPC   C42 8792   8.853   5.538   2.486
  176DPPC   C43 8793   8.798   5.503   2.624
  176DPPC   C44 8794   8.762   5.640   2.682
  176DPPC   C45 8795   8.701   5.630   2.822
  176DPPC   C46 8796   8.575   5.543   2.828
  176DPPC   C47 8797   8.449   5.620   2.790
  176DPPC   C48 8798   8.326   5.529   2.780
  176DPPC   C49 8799   8.228   5.607   2.692
  176DPPC   C50 8800   8.188   5.727   2.778
  177DPPC    C1 8801   9.158   2.625   1.704
  177DPPC    C2 8802   8.969   2.630   1.551
  177DPPC    C3 8803   8.963   2.707   1.773
  177DPPC    N4 8804   9.046   2.704   1.651
  177DPPC    C5 8805   9.100   2.834   1.609
  177DPPC    C6 8806   9.038   2.906   1.490
  177DPPC    O7 8807   8.906   2.953   1.521
  177DPPC    P8 8808   8.918   3.110   1.555
  177DPPC    O9 8809   8.838   3.197   1.466
  177DPPC   O10 8810   9.055   3.139   1.603
  177DPPC   O11 8811   8.834   3.104   1.692
  177DPPC   C12 8812   8.918   3.109   1.808
  177DPPC   C13 8813   8.855   3.140   1.944
  177DPPC   O14 8814   8.800   3.024   2.007
  177DPPC   C15 8815   8.872   2.937   2.083
  177DPPC   O16 8816   8.995   2.930   2.081
  177DPPC   C17 8817   8.792   2.829   2.156
  177DPPC   C18 8818   8.772   2.864   2.304
  177DPPC   C19 8819   8.689   2.767   2.389
  177DPPC   C20 8820   8.662   2.824   2.528
  177DPPC   C21 8821   8.570   2.726   2.602
  177DPPC   C22 8822   8.583   2.731   2.754
  177DPPC   C23 8823   8.495   2.627   2.823
  177DPPC   C24 8824   8.482   2.632   2.976
  177DPPC   C25 8825   8.433   2.767   3.028
  177DPPC   C26 8826   8.398   2.758   3.177
  177DPPC   C27 8827   8.295   2.651   3.212
  177DPPC   C28 8828   8.274   2.633   3.362
  177DPPC   C29 8829   8.156   2.537   3.377
  177DPPC   C30 8830   8.141   2.511   3.527
  177DPPC   C31 8831   8.011   2.445   3.575
  177DPPC   C32 8832   8.750   3.250   1.927
  177DPPC   O33 8833   8.668   3.280   2.040
  177DPPC   C34 8834   8.565   3.204   2.084
  177DPPC   O35 8835   8.521   3.107   2.021
  177DPPC   C36 8836   8.488   3.249   2.208
  177DPPC   C37 8837   8.585   3.308   2.311
  177DPPC   C38 8838   8.507   3.362   2.432
  177DPPC   C39 8839   8.612   3.419   2.528
  177DPPC   C40 8840   8.705   3.306   2.572
  177DPPC   C41 8841   8.796   3.360   2.683
  177DPPC   C42 8842   8.905   3.253   2.692
  177DPPC   C43 8843   8.846   3.130   2.762
  177DPPC   C44 8844   8.946   3.024   2.805
  177DPPC   C45 8845   8.894   2.902   2.882
  177DPPC   C46 8846   9.002   2.830   2.962
  177DPPC   C47 8847   8.961   2.737   3.077
  177DPPC   C48 8848   8.859   2.630   3.039
  177DPPC   C49 8849   8.785   2.561   3.153
  177DPPC   C50 8850   8.870   2.457   3.226
  178DPPC    C1 8851   8.009   2.264   1.855
  178DPPC    C2 8852   8.111   2.477   1.916
  178DPPC    C3 8853   8.187   2.264   2.005
  178DPPC    N4 8854   8.133   2.334   1.888
  178DPPC    C5 8855   8.220   2.320   1.770
  178DPPC    C6 8856   8.371   2.329   1.794
  178DPPC    O7 8857   8.417   2.461   1.820
  178DPPC    P8 8858   8.566   2.463   1.881
  178DPPC    O9 8859   8.604   2.605   1.902
  178DPPC   O10 8860   8.655   2.387   1.791
  178DPPC   O11 8861   8.521   2.387   2.016
  178DPPC   C12 8862   8.484   2.473   2.124
  178DPPC   C13 8863   8.449   2.392   2.249
  178DPPC   O14 8864   8.420   2.471   2.365
  178DPPC   C15 8865   8.287   2.492   2.387
  178DPPC   O16 8866   8.210   2.492   2.291
  178DPPC   C17 8867   8.237   2.517   2.529
  178DPPC   C18 8868   8.085   2.508   2.542
  178DPPC   C19 8869   8.062   2.543   2.690
  178DPPC   C20 8870   8.103   2.688   2.719
  178DPPC   C21 8871   8.064   2.700   2.867
  178DPPC   C22 8872   8.042   2.848   2.899
  178DPPC   C23 8873   8.015   2.856   3.050
  178DPPC   C24 8874   8.003   3.005   3.084
  178DPPC   C25 8875   8.066   3.037   3.219
  178DPPC   C26 8876   8.099   3.185   3.237
  178DPPC   C27 8877   8.126   3.234   3.379
  178DPPC   C28 8878   8.259   3.171   3.422
  178DPPC   C29 8879   8.303   3.221   3.559
  178DPPC   C30 8880   8.441   3.160   3.583
  178DPPC   C31 8881   8.498   3.203   3.719
  178DPPC   C32 8882   8.572   2.304   2.270
  178DPPC   O33 8883   8.563   2.191   2.358
  178DPPC   C34 8884   8.492   2.077   2.340
  178DPPC   O35 8885   8.443   2.051   2.231
  178DPPC   C36 8886   8.486   1.987   2.464
  178DPPC   C37 8887   8.377   2.034   2.561
  178DPPC   C38 8888   8.383   1.963   2.697
  178DPPC   C39 8889   8.258   2.012   2.770
  178DPPC   C40 8890   8.239   1.941   2.904
  178DPPC   C41 8891   8.118   2.004   2.973
  178DPPC   C42 8892   8.101   1.926   3.103
  178DPPC   C43 8893   7.974   1.983   3.165
  178DPPC   C44 8894   7.944   1.929   3.305
  178DPPC   C45 8895   7.840   2.026   3.361
  178DPPC   C46 8896   7.757   1.969   3.477
  178DPPC   C47 8897   7.670   1.852   3.429
  178DPPC   C48 8898   7.588   1.792   3.543
  178DPPC   C49 8899   7.484   1.888   3.601
  178DPPC   C50 8900   7.349   1.816   3.612
  179DPPC    C1 8901   5.276   6.445   2.021
  179DPPC    C2 8902   5.393   6.345   2.203
  179DPPC    C3 8903   5.165   6.340   2.197
  179DPPC    N4 8904   5.282   6.327   2.108
  179DPPC    C5 8905   5.305   6.193   2.053
  179DPPC    C6 8906   5.185   6.136   1.976
  179DPPC    O7 8907   5.152   6.191   1.848
  179DPPC    P8 8908   4.993   6.185   1.826
  179DPPC    O9 8909   4.939   6.051   1.860
  179DPPC   O10 8910   4.950   6.266   1.710
  179DPPC   O11 8911   4.951   6.271   1.956
  179DPPC   C12 8912   4.835   6.354   1.948
  179DPPC   C13 8913   4.780   6.418   2.076
  179DPPC   O14 8914   4.870   6.516   2.130
  179DPPC   C15 8915   4.816   6.605   2.217
  179DPPC   O16 8916   4.708   6.658   2.189
  179DPPC   C17 8917   4.899   6.649   2.337
  179DPPC   C18 8918   4.867   6.568   2.462
  179DPPC   C19 8919   4.958   6.590   2.584
  179DPPC   C20 8920   5.104   6.578   2.540
  179DPPC   C21 8921   5.206   6.579   2.654
  179DPPC   C22 8922   5.187   6.440   2.716
  179DPPC   C23 8923   5.269   6.423   2.844
  179DPPC   C24 8924   5.205   6.514   2.949
  179DPPC   C25 8925   5.277   6.503   3.083
  179DPPC   C26 8926   5.269   6.360   3.139
  179DPPC   C27 8927   5.347   6.364   3.271
  179DPPC   C28 8928   5.315   6.246   3.363
  179DPPC   C29 8929   5.368   6.278   3.503
  179DPPC   C30 8930   5.367   6.156   3.596
  179DPPC   C31 8931   5.228   6.139   3.657
  179DPPC   C32 8932   4.750   6.288   2.151
  179DPPC   O33 8933   4.742   6.289   2.293
  179DPPC   C34 8934   4.712   6.176   2.363
  179DPPC   O35 8935   4.701   6.072   2.299
  179DPPC   C36 8936   4.721   6.176   2.516
  179DPPC   C37 8937   4.854   6.175   2.592
  179DPPC   C38 8938   4.830   6.167   2.743
  179DPPC   C39 8939   4.960   6.135   2.817
  179DPPC   C40 8940   4.951   6.157   2.968
  179DPPC   C41 8941   4.829   6.072   3.002
  179DPPC   C42 8942   4.809   6.044   3.151
  179DPPC   C43 8943   4.686   5.960   3.184
  179DPPC   C44 8944   4.642   5.980   3.329
  179DPPC   C45 8945   4.525   5.887   3.363
  179DPPC   C46 8946   4.472   5.902   3.506
  179DPPC   C47 8947   4.335   5.835   3.511
  179DPPC   C48 8948   4.344   5.683   3.491
  179DPPC   C49 8949   4.241   5.604   3.571
  179DPPC   C50 8950   4.094   5.645   3.562
  180DPPC    C1 8951   5.976   2.670   1.387
  180DPPC    C2 8952   6.199   2.653   1.456
  180DPPC    C3 8953   6.088   2.866   1.453
  180DPPC    N4 8954   6.073   2.723   1.484
  180DPPC    C5 8955   6.020   2.718   1.621
  180DPPC    C6 8956   6.098   2.791   1.729
  180DPPC    O7 8957   6.014   2.807   1.844
  180DPPC    P8 8958   6.087   2.902   1.952
  180DPPC    O9 8959   6.006   3.026   1.953
  180DPPC   O10 8960   6.234   2.903   1.935
  180DPPC   O11 8961   6.052   2.815   2.083
  180DPPC   C12 8962   5.948   2.884   2.153
  180DPPC   C13 8963   5.932   2.815   2.288
  180DPPC   O14 8964   5.796   2.783   2.319
  180DPPC   C15 8965   5.765   2.663   2.377
  180DPPC   O16 8966   5.788   2.562   2.310
  180DPPC   C17 8967   5.682   2.652   2.505
  180DPPC   C18 8968   5.755   2.551   2.594
  180DPPC   C19 8969   5.731   2.549   2.745
  180DPPC   C20 8970   5.796   2.424   2.804
  180DPPC   C21 8971   5.773   2.404   2.954
  180DPPC   C22 8972   5.832   2.267   2.990
  180DPPC   C23 8973   5.985   2.266   2.975
  180DPPC   C24 8974   6.031   2.122   2.997
  180DPPC   C25 8975   6.163   2.099   2.924
  180DPPC   C26 8976   6.258   2.203   2.983
  180DPPC   C27 8977   6.397   2.186   2.921
  180DPPC   C28 8978   6.503   2.279   2.983
  180DPPC   C29 8979   6.495   2.268   3.135
  180DPPC   C30 8980   6.578   2.376   3.204
  180DPPC   C31 8981   6.581   2.348   3.355
  180DPPC   C32 8982   6.025   2.893   2.381
  180DPPC   O33 8983   5.985   2.908   2.518
  180DPPC   C34 8984   6.052   2.999   2.595
  180DPPC   O35 8985   6.108   3.093   2.541
  180DPPC   C36 8986   6.013   3.007   2.743
  180DPPC   C37 8987   5.866   2.977   2.772
  180DPPC   C38 8988   5.835   3.002   2.919
  180DPPC   C39 8989   5.699   2.949   2.962
  180DPPC   C40 8990   5.675   2.963   3.112
  180DPPC   C41 8991   5.555   2.894   3.178
  180DPPC   C42 8992   5.564   2.895   3.331
  180DPPC   C43 8993   5.431   2.839   3.381
  180DPPC   C44 8994   5.411   2.845   3.533
  180DPPC   C45 8995   5.276   2.784   3.566
  180DPPC   C46 8996   5.175   2.872   3.493
  180DPPC   C47 8997   5.150   2.994   3.582
  180DPPC   C48 8998   5.032   3.076   3.530
  180DPPC   C49 8999   4.951   3.134   3.646
  180DPPC   C50 9000   5.041   3.193   3.755
  181DPPC    C1 9001   5.639   5.903   1.574
  181DPPC    C2 9002   5.799   5.867   1.759
  181DPPC    C3 9003   5.586   5.972   1.782
  181DPPC    N4 9004   5.660   5.865   1.714
  181DPPC    C5 9005   5.597   5.737   1.752
  181DPPC    C6 9006   5.618   5.604   1.681
  181DPPC    O7 9007   5.588   5.489   1.761
  181DPPC    P8 9008   5.670   5.357   1.720
  181DPPC    O9 9009   5.750   5.401   1.604
  181DPPC   O10 9010   5.570   5.250   1.698
  181DPPC   O11 9011   5.749   5.339   1.860
  181DPPC   C12 9012   5.652   5.343   1.965
  181DPPC   C13 9013   5.709   5.321   2.106
  181DPPC   O14 9014   5.619   5.372   2.206
  181DPPC   C15 9015   5.529   5.285   2.259
  181DPPC   O16 9016   5.521   5.166   2.232
  181DPPC   C17 9017   5.485   5.344   2.393
  181DPPC   C18 9018   5.350   5.412   2.373
  181DPPC   C19 9019   5.312   5.500   2.492
  181DPPC   C20 9020   5.252   5.417   2.606
  181DPPC   C21 9021   5.268   5.491   2.739
  181DPPC   C22 9022   5.200   5.424   2.858
  181DPPC   C23 9023   5.206   5.518   2.979
  181DPPC   C24 9024   5.172   5.451   3.113
  181DPPC   C25 9025   5.033   5.387   3.113
  181DPPC   C26 9026   4.922   5.491   3.126
  181DPPC   C27 9027   4.790   5.437   3.073
  181DPPC   C28 9028   4.669   5.511   3.132
  181DPPC   C29 9029   4.545   5.466   3.056
  181DPPC   C30 9030   4.424   5.554   3.090
  181DPPC   C31 9031   4.441   5.691   3.022
  181DPPC   C32 9032   5.850   5.380   2.116
  181DPPC   O33 9033   5.927   5.321   2.221
  181DPPC   C34 9034   6.061   5.342   2.223
  181DPPC   O35 9035   6.109   5.430   2.151
  181DPPC   C36 9036   6.142   5.262   2.325
  181DPPC   C37 9037   6.161   5.356   2.444
  181DPPC   C38 9038   6.215   5.296   2.574
  181DPPC   C39 9039   6.207   5.395   2.691
  181DPPC   C40 9040   6.272   5.333   2.815
  181DPPC   C41 9041   6.423   5.306   2.807
  181DPPC   C42 9042   6.470   5.244   2.939
  181DPPC   C43 9043   6.617   5.200   2.944
  181DPPC   C44 9044   6.634   5.092   3.051
  181DPPC   C45 9045   6.541   4.971   3.037
  181DPPC   C46 9046   6.597   4.845   3.103
  181DPPC   C47 9047   6.620   4.880   3.250
  181DPPC   C48 9048   6.698   4.777   3.332
  181DPPC   C49 9049   6.646   4.634   3.326
  181DPPC   C50 9050   6.732   4.527   3.392
  182DPPC    C1 9051   8.078   0.613   1.487
  182DPPC    C2 9052   8.299   0.706   1.464
  182DPPC    C3 9053   8.175   0.667   1.272
  182DPPC    N4 9054   8.162   0.708   1.412
  182DPPC    C5 9055   8.113   0.847   1.422
  182DPPC    C6 9056   7.969   0.880   1.383
  182DPPC    O7 9057   7.950   1.021   1.367
  182DPPC    P8 9058   7.809   1.033   1.290
  182DPPC    O9 9059   7.802   0.914   1.203
  182DPPC   O10 9060   7.794   1.174   1.248
  182DPPC   O11 9061   7.738   0.992   1.428
  182DPPC   C12 9062   7.725   1.111   1.506
  182DPPC   C13 9063   7.663   1.068   1.640
  182DPPC   O14 9064   7.633   1.184   1.718
  182DPPC   C15 9065   7.517   1.254   1.703
  182DPPC   O16 9066   7.429   1.225   1.623
  182DPPC   C17 9067   7.497   1.379   1.790
  182DPPC   C18 9068   7.380   1.363   1.887
  182DPPC   C19 9069   7.349   1.501   1.945
  182DPPC   C20 9070   7.244   1.492   2.055
  182DPPC   C21 9071   7.193   1.629   2.102
  182DPPC   C22 9072   7.094   1.608   2.217
  182DPPC   C23 9073   7.153   1.545   2.343
  182DPPC   C24 9074   7.045   1.521   2.448
  182DPPC   C25 9075   7.112   1.484   2.581
  182DPPC   C26 9076   7.015   1.471   2.699
  182DPPC   C27 9077   7.081   1.467   2.837
  182DPPC   C28 9078   6.996   1.408   2.949
  182DPPC   C29 9079   7.074   1.419   3.080
  182DPPC   C30 9080   6.990   1.341   3.182
  182DPPC   C31 9081   7.043   1.340   3.325
  182DPPC   C32 9082   7.762   0.964   1.694
  182DPPC   O33 9083   7.882   1.034   1.726
  182DPPC   C34 9084   7.986   0.959   1.771
  182DPPC   O35 9085   7.993   0.837   1.760
  182DPPC   C36 9086   8.083   1.045   1.852
  182DPPC   C37 9087   8.039   1.082   1.994
  182DPPC   C38 9088   8.141   1.172   2.064
  182DPPC   C39 9089   8.111   1.186   2.213
  182DPPC   C40 9090   8.222   1.270   2.276
  182DPPC   C41 9091   8.189   1.309   2.420
  182DPPC   C42 9092   8.094   1.429   2.414
  182DPPC   C43 9093   8.067   1.502   2.546
  182DPPC   C44 9094   8.002   1.635   2.507
  182DPPC   C45 9095   7.962   1.714   2.632
  182DPPC   C46 9096   7.836   1.641   2.678
  182DPPC   C47 9097   7.781   1.711   2.802
  182DPPC   C48 9098   7.648   1.649   2.848
  182DPPC   C49 9099   7.602   1.697   2.986
  182DPPC   C50 9100   7.700   1.672   3.100
  183DPPC    C1 9101   7.527   3.547   1.846
  183DPPC    C2 9102   7.560   3.738   1.723
  183DPPC    C3 9103   7.465   3.539   1.617
  183DPPC    N4 9104   7.467   3.625   1.737
  183DPPC    C5 9105   7.336   3.684   1.766
  183DPPC    C6 9106   7.207   3.602   1.770
  183DPPC    O7 9107   7.194   3.493   1.861
  183DPPC    P8 9108   7.054   3.414   1.859
  183DPPC    O9 9109   7.065   3.309   1.963
  183DPPC   O10 9110   7.020   3.389   1.718
  183DPPC   O11 9111   6.970   3.536   1.922
  183DPPC   C12 9112   6.943   3.508   2.060
  183DPPC   C13 9113   7.020   3.607   2.148
  183DPPC   O14 9114   7.036   3.552   2.279
  183DPPC   C15 9115   7.140   3.614   2.343
  183DPPC   O16 9116   7.244   3.648   2.287
  183DPPC   C17 9117   7.137   3.595   2.494
  183DPPC   C18 9118   7.248   3.504   2.548
  183DPPC   C19 9119   7.222   3.484   2.697
  183DPPC   C20 9120   7.318   3.398   2.780
  183DPPC   C21 9121   7.257   3.403   2.921
  183DPPC   C22 9122   7.354   3.327   3.012
  183DPPC   C23 9123   7.298   3.343   3.153
  183DPPC   C24 9124   7.388   3.297   3.268
  183DPPC   C25 9125   7.309   3.283   3.398
  183DPPC   C26 9126   7.380   3.233   3.524
  183DPPC   C27 9127   7.509   3.310   3.556
  183DPPC   C28 9128   7.567   3.277   3.694
  183DPPC   C29 9129   7.467   3.268   3.809
  183DPPC   C30 9130   7.539   3.214   3.933
  183DPPC   C31 9131   7.604   3.077   3.915
  183DPPC   C32 9132   6.945   3.739   2.134
  183DPPC   O33 9133   7.009   3.851   2.197
  183DPPC   C34 9134   7.117   3.906   2.136
  183DPPC   O35 9135   7.175   3.852   2.042
  183DPPC   C36 9136   7.178   4.029   2.203
  183DPPC   C37 9137   7.269   3.991   2.320
  183DPPC   C38 9138   7.181   3.978   2.444
  183DPPC   C39 9139   7.274   3.960   2.564
  183DPPC   C40 9140   7.183   3.948   2.687
  183DPPC   C41 9141   7.232   3.843   2.787
  183DPPC   C42 9142   7.366   3.899   2.837
  183DPPC   C43 9143   7.425   3.824   2.956
  183DPPC   C44 9144   7.325   3.832   3.072
  183DPPC   C45 9145   7.375   3.782   3.208
  183DPPC   C46 9146   7.274   3.818   3.317
  183DPPC   C47 9147   7.149   3.736   3.286
  183DPPC   C48 9148   7.039   3.748   3.391
  183DPPC   C49 9149   6.946   3.628   3.372
  183DPPC   C50 9150   6.865   3.643   3.243
  184DPPC    C1 9151   1.650   1.780   1.690
  184DPPC    C2 9152   1.440   1.807   1.798
  184DPPC    C3 9153   1.634   1.777   1.920
  184DPPC    N4 9154   1.582   1.847   1.801
  184DPPC    C5 9155   1.608   1.990   1.820
  184DPPC    C6 9156   1.552   2.076   1.706
  184DPPC    O7 9157   1.598   2.211   1.718
  184DPPC    P8 9158   1.525   2.276   1.591
  184DPPC    O9 9159   1.488   2.184   1.481
  184DPPC   O10 9160   1.576   2.415   1.583
  184DPPC   O11 9161   1.396   2.297   1.685
  184DPPC   C12 9162   1.419   2.397   1.785
  184DPPC   C13 9163   1.308   2.410   1.890
  184DPPC   O14 9164   1.326   2.530   1.967
  184DPPC   C15 9165   1.215   2.606   1.990
  184DPPC   O16 9166   1.121   2.584   1.914
  184DPPC   C17 9167   1.235   2.728   2.080
  184DPPC   C18 9168   1.266   2.675   2.220
  184DPPC   C19 9169   1.135   2.624   2.280
  184DPPC   C20 9170   1.152   2.603   2.431
  184DPPC   C21 9171   1.023   2.565   2.504
  184DPPC   C22 9172   1.045   2.580   2.654
  184DPPC   C23 9173   0.920   2.512   2.711
  184DPPC   C24 9174   0.900   2.560   2.855
  184DPPC   C25 9175   0.790   2.502   2.943
  184DPPC   C26 9176   0.777   2.558   3.085
  184DPPC   C27 9177   0.648   2.495   3.137
  184DPPC   C28 9178   0.616   2.521   3.285
  184DPPC   C29 9179   0.722   2.448   3.368
  184DPPC   C30 9180   0.696   2.297   3.362
  184DPPC   C31 9181   0.801   2.234   3.453
  184DPPC   C32 9182   1.297   2.274   1.959
  184DPPC   O33 9183   1.420   2.245   2.025
  184DPPC   C34 9184   1.429   2.126   2.091
  184DPPC   O35 9185   1.391   2.026   2.030
  184DPPC   C36 9186   1.554   2.114   2.179
  184DPPC   C37 9187   1.544   2.019   2.299
  184DPPC   C38 9188   1.670   2.033   2.385
  184DPPC   C39 9189   1.646   1.965   2.520
  184DPPC   C40 9190   1.776   1.994   2.595
  184DPPC   C41 9191   1.793   2.146   2.588
  184DPPC   C42 9192   1.710   2.214   2.697
  184DPPC   C43 9193   1.749   2.146   2.829
  184DPPC   C44 9194   1.711   2.226   2.954
  184DPPC   C45 9195   1.776   2.155   3.073
  184DPPC   C46 9196   1.755   2.005   3.051
  184DPPC   C47 9197   1.834   1.915   3.145
  184DPPC   C48 9198   1.808   1.766   3.125
  184DPPC   C49 9199   1.871   1.687   3.240
  184DPPC   C50 9200   1.822   1.542   3.243
  185DPPC    C1 9201   6.606   7.269   1.593
  185DPPC    C2 9202   6.556   7.356   1.828
  185DPPC    C3 9203   6.430   7.415   1.638
  185DPPC    N4 9204   6.510   7.308   1.698
  185DPPC    C5 9205   6.410   7.203   1.721
  185DPPC    C6 9206   6.443   7.057   1.751
  185DPPC    O7 9207   6.551   7.051   1.844
  185DPPC    P8 9208   6.657   6.937   1.803
  185DPPC    O9 9209   6.782   6.979   1.871
  185DPPC   O10 9210   6.653   6.923   1.656
  185DPPC   O11 9211   6.596   6.820   1.896
  185DPPC   C12 9212   6.611   6.861   2.032
  185DPPC   C13 9213   6.515   6.777   2.117
  185DPPC   O14 9214   6.506   6.802   2.258
  185DPPC   C15 9215   6.394   6.755   2.319
  185DPPC   O16 9216   6.303   6.703   2.254
  185DPPC   C17 9217   6.379   6.790   2.467
  185DPPC   C18 9218   6.244   6.856   2.494
  185DPPC   C19 9219   6.195   6.830   2.637
  185DPPC   C20 9220   6.277   6.895   2.749
  185DPPC   C21 9221   6.228   6.866   2.891
  185DPPC   C22 9222   6.323   6.937   2.987
  185DPPC   C23 9223   6.297   6.901   3.134
  185DPPC   C24 9224   6.394   6.965   3.234
  185DPPC   C25 9225   6.383   6.897   3.371
  185DPPC   C26 9226   6.466   6.985   3.465
  185DPPC   C27 9227   6.504   6.912   3.595
  185DPPC   C28 9228   6.584   6.990   3.699
  185DPPC   C29 9229   6.638   6.892   3.804
  185DPPC   C30 9230   6.533   6.863   3.911
  185DPPC   C31 9231   6.588   6.771   4.020
  185DPPC   C32 9232   6.580   6.640   2.094
  185DPPC   O33 9233   6.722   6.633   2.107
  185DPPC   C34 9234   6.774   6.522   2.048
  185DPPC   O35 9235   6.704   6.444   1.984
  185DPPC   C36 9236   6.925   6.521   2.076
  185DPPC   C37 9237   6.975   6.418   2.177
  185DPPC   C38 9238   6.978   6.470   2.320
  185DPPC   C39 9239   7.012   6.357   2.418
  185DPPC   C40 9240   7.023   6.409   2.561
  185DPPC   C41 9241   7.061   6.302   2.663
  185DPPC   C42 9242   7.191   6.222   2.646
  185DPPC   C43 9243   7.187   6.099   2.738
  185DPPC   C44 9244   7.308   6.010   2.710
  185DPPC   C45 9245   7.312   5.895   2.810
  185DPPC   C46 9246   7.438   5.808   2.813
  185DPPC   C47 9247   7.430   5.711   2.695
  185DPPC   C48 9248   7.550   5.617   2.687
  185DPPC   C49 9249   7.686   5.687   2.683
  185DPPC   C50 9250   7.795   5.585   2.651
  186DPPC    C1 9251   6.759   2.197   1.858
  186DPPC    C2 9252   6.756   2.426   1.852
  186DPPC    C3 9253   6.563   2.309   1.768
  186DPPC    N4 9254   6.667   2.311   1.872
  186DPPC    C5 9255   6.605   2.328   2.004
  186DPPC    C6 9256   6.505   2.222   2.050
  186DPPC    O7 9257   6.559   2.090   2.064
  186DPPC    P8 9258   6.450   1.973   2.076
  186DPPC    O9 9259   6.531   1.850   2.090
  186DPPC   O10 9260   6.366   1.996   1.956
  186DPPC   O11 9261   6.395   2.022   2.219
  186DPPC   C12 9262   6.480   1.947   2.306
  186DPPC   C13 9263   6.445   1.974   2.453
  186DPPC   O14 9264   6.329   1.906   2.501
  186DPPC   C15 9265   6.336   1.770   2.508
  186DPPC   O16 9266   6.426   1.715   2.446
  186DPPC   C17 9267   6.232   1.693   2.591
  186DPPC   C18 9268   6.281   1.631   2.722
  186DPPC   C19 9269   6.286   1.721   2.845
  186DPPC   C20 9270   6.302   1.635   2.971
  186DPPC   C21 9271   6.346   1.731   3.081
  186DPPC   C22 9272   6.330   1.681   3.224
  186DPPC   C23 9273   6.361   1.781   3.336
  186DPPC   C24 9274   6.257   1.893   3.346
  186DPPC   C25 9275   6.290   2.016   3.429
  186DPPC   C26 9276   6.213   2.141   3.387
  186DPPC   C27 9277   6.245   2.249   3.490
  186DPPC   C28 9278   6.169   2.218   3.619
  186DPPC   C29 9279   6.224   2.302   3.735
  186DPPC   C30 9280   6.152   2.267   3.865
  186DPPC   C31 9281   6.211   2.342   3.985
  186DPPC   C32 9282   6.447   2.125   2.475
  186DPPC   O33 9283   6.576   2.171   2.516
  186DPPC   C34 9284   6.586   2.306   2.528
  186DPPC   O35 9285   6.486   2.377   2.530
  186DPPC   C36 9286   6.719   2.364   2.577
  186DPPC   C37 9287   6.737   2.329   2.725
  186DPPC   C38 9288   6.877   2.356   2.779
  186DPPC   C39 9289   6.879   2.288   2.916
  186DPPC   C40 9290   7.027   2.280   2.955
  186DPPC   C41 9291   7.045   2.220   3.095
  186DPPC   C42 9292   7.005   2.313   3.209
  186DPPC   C43 9293   7.007   2.248   3.347
  186DPPC   C44 9294   7.008   2.352   3.459
  186DPPC   C45 9295   7.019   2.294   3.599
  186DPPC   C46 9296   6.966   2.400   3.696
  186DPPC   C47 9297   6.927   2.356   3.837
  186DPPC   C48 9298   6.817   2.249   3.839
  186DPPC   C49 9299   6.679   2.295   3.793
  186DPPC   C50 9300   6.578   2.205   3.865
  187DPPC    C1 9301   9.209   1.287   0.725
  187DPPC    C2 9302   8.986   1.258   0.745
  187DPPC    C3 9303   9.129   1.079   0.661
  187DPPC    N4 9304   9.112   1.184   0.763
  187DPPC    C5 9305   9.139   1.149   0.903
  187DPPC    C6 9306   9.060   1.031   0.959
  187DPPC    O7 9307   8.935   1.076   1.012
  187DPPC    P8 9308   8.883   0.944   1.089
  187DPPC    O9 9309   8.970   0.827   1.067
  187DPPC   O10 9310   8.737   0.920   1.082
  187DPPC   O11 9311   8.936   0.988   1.235
  187DPPC   C12 9312   8.836   1.002   1.336
  187DPPC   C13 9313   8.876   1.026   1.481
  187DPPC   O14 9314   8.784   1.005   1.590
  187DPPC   C15 9315   8.743   0.880   1.626
  187DPPC   O16 9316   8.800   0.785   1.574
  187DPPC   C17 9317   8.638   0.861   1.736
  187DPPC   C18 9318   8.655   0.740   1.827
  187DPPC   C19 9319   8.545   0.721   1.931
  187DPPC   C20 9320   8.407   0.695   1.869
  187DPPC   C21 9321   8.318   0.667   1.990
  187DPPC   C22 9322   8.311   0.801   2.063
  187DPPC   C23 9323   8.296   0.746   2.206
  187DPPC   C24 9324   8.298   0.874   2.290
  187DPPC   C25 9325   8.307   0.854   2.442
  187DPPC   C26 9326   8.323   0.992   2.504
  187DPPC   C27 9327   8.342   0.984   2.656
  187DPPC   C28 9328   8.319   1.116   2.730
  187DPPC   C29 9329   8.338   1.084   2.878
  187DPPC   C30 9330   8.489   1.074   2.903
  187DPPC   C31 9331   8.510   1.071   3.055
  187DPPC   C32 9332   8.923   1.171   1.477
  187DPPC   O33 9333   9.001   1.223   1.585
  187DPPC   C34 9334   9.126   1.169   1.592
  187DPPC   O35 9335   9.179   1.124   1.491
  187DPPC   C36 9336   9.191   1.171   1.731
  187DPPC   C37 9337   9.236   1.033   1.780
  187DPPC   C38 9338   9.124   0.959   1.851
  187DPPC   C39 9339   9.084   1.020   1.986
  187DPPC   C40 9340   8.973   0.932   2.043
  187DPPC   C41 9341   9.023   0.788   2.048
  187DPPC   C42 9342   8.913   0.690   2.089
  187DPPC   C43 9343   8.845   0.736   2.218
  187DPPC   C44 9344   8.743   0.635   2.271
  187DPPC   C45 9345   8.673   0.694   2.393
  187DPPC   C46 9346   8.618   0.592   2.493
  187DPPC   C47 9347   8.567   0.674   2.611
  187DPPC   C48 9348   8.551   0.586   2.735
  187DPPC   C49 9349   8.499   0.676   2.847
  187DPPC   C50 9350   8.427   0.604   2.961
  188DPPC    C1 9351   7.422   2.403   1.789
  188DPPC    C2 9352   7.526   2.197   1.723
  188DPPC    C3 9353   7.296   2.241   1.665
  188DPPC    N4 9354   7.429   2.301   1.683
  188DPPC    C5 9355   7.466   2.366   1.557
  188DPPC    C6 9356   7.602   2.425   1.518
  188DPPC    O7 9357   7.714   2.338   1.532
  188DPPC    P8 9358   7.843   2.434   1.521
  188DPPC    O9 9359   7.816   2.534   1.415
  188DPPC   O10 9360   7.968   2.355   1.528
  188DPPC   O11 9361   7.826   2.515   1.660
  188DPPC   C12 9362   7.845   2.653   1.627
  188DPPC   C13 9363   7.879   2.742   1.747
  188DPPC   O14 9364   8.021   2.749   1.765
  188DPPC   C15 9365   8.070   2.872   1.796
  188DPPC   O16 9366   8.041   2.969   1.727
  188DPPC   C17 9367   8.205   2.862   1.868
  188DPPC   C18 9368   8.203   2.815   2.014
  188DPPC   C19 9369   8.131   2.910   2.111
  188DPPC   C20 9370   8.181   2.890   2.255
  188DPPC   C21 9371   8.157   3.007   2.351
  188DPPC   C22 9372   8.234   2.961   2.474
  188DPPC   C23 9373   8.215   3.076   2.573
  188DPPC   C24 9374   8.301   3.039   2.694
  188DPPC   C25 9375   8.321   3.163   2.780
  188DPPC   C26 9376   8.399   3.138   2.909
  188DPPC   C27 9377   8.402   3.269   2.989
  188DPPC   C28 9378   8.472   3.237   3.121
  188DPPC   C29 9379   8.611   3.178   3.100
  188DPPC   C30 9380   8.662   3.146   3.241
  188DPPC   C31 9381   8.674   2.994   3.256
  188DPPC   C32 9382   7.792   2.684   1.859
  188DPPC   O33 9383   7.776   2.765   1.976
  188DPPC   C34 9384   7.671   2.730   2.055
  188DPPC   O35 9385   7.587   2.651   2.011
  188DPPC   C36 9386   7.641   2.814   2.179
  188DPPC   C37 9387   7.765   2.839   2.264
  188DPPC   C38 9388   7.768   2.942   2.378
  188DPPC   C39 9389   7.661   2.896   2.478
  188DPPC   C40 9390   7.667   2.997   2.592
  188DPPC   C41 9391   7.568   2.969   2.706
  188DPPC   C42 9392   7.626   3.004   2.843
  188DPPC   C43 9393   7.534   2.967   2.960
  188DPPC   C44 9394   7.623   2.990   3.082
  188DPPC   C45 9395   7.582   2.917   3.210
  188DPPC   C46 9396   7.687   2.947   3.317
  188DPPC   C47 9397   7.668   2.875   3.450
  188DPPC   C48 9398   7.799   2.884   3.527
  188DPPC   C49 9399   7.784   2.823   3.667
  188DPPC   C50 9400   7.899   2.851   3.763
  189DPPC    C1 9401   8.963   3.732   1.370
  189DPPC    C2 9402   8.842   3.542   1.460
  189DPPC    C3 9403   8.882   3.742   1.593
  189DPPC    N4 9404   8.854   3.689   1.459
  189DPPC    C5 9405   8.721   3.728   1.412
  189DPPC    C6 9406   8.673   3.872   1.432
  189DPPC    O7 9407   8.774   3.966   1.394
  189DPPC    P8 9408   8.733   4.121   1.383
  189DPPC    O9 9409   8.588   4.121   1.354
  189DPPC   O10 9410   8.830   4.189   1.294
  189DPPC   O11 9411   8.754   4.154   1.539
  189DPPC   C12 9412   8.895   4.146   1.563
  189DPPC   C13 9413   8.952   4.222   1.682
  189DPPC   O14 9414   8.925   4.171   1.813
  189DPPC   C15 9415   8.985   4.056   1.855
  189DPPC   O16 9416   9.040   3.983   1.773
  189DPPC   C17 9417   8.949   4.014   1.997
  189DPPC   C18 9418   8.990   4.120   2.100
  189DPPC   C19 9419   8.901   4.110   2.224
  189DPPC   C20 9420   8.756   4.143   2.190
  189DPPC   C21 9421   8.688   4.198   2.316
  189DPPC   C22 9422   8.539   4.222   2.293
  189DPPC   C23 9423   8.489   4.257   2.434
  189DPPC   C24 9424   8.348   4.315   2.420
  189DPPC   C25 9425   8.298   4.376   2.551
  189DPPC   C26 9426   8.296   4.290   2.678
  189DPPC   C27 9427   8.244   4.361   2.803
  189DPPC   C28 9428   8.223   4.272   2.926
  189DPPC   C29 9429   8.353   4.255   3.003
  189DPPC   C30 9430   8.351   4.289   3.152
  189DPPC   C31 9431   8.246   4.206   3.228
  189DPPC   C32 9432   8.928   4.372   1.661
  189DPPC   O33 9433   9.013   4.458   1.737
  189DPPC   C34 9434   9.030   4.586   1.696
  189DPPC   O35 9435   9.001   4.622   1.581
  189DPPC   C36 9436   9.111   4.678   1.788
  189DPPC   C37 9437   9.019   4.750   1.887
  189DPPC   C38 9438   8.975   4.669   2.010
  189DPPC   C39 9439   8.852   4.738   2.068
  189DPPC   C40 9440   8.829   4.709   2.216
  189DPPC   C41 9441   8.709   4.779   2.281
  189DPPC   C42 9442   8.738   4.772   2.430
  189DPPC   C43 9443   8.719   4.628   2.476
  189DPPC   C44 9444   8.696   4.627   2.627
  189DPPC   C45 9445   8.668   4.490   2.690
  189DPPC   C46 9446   8.621   4.524   2.832
  189DPPC   C47 9447   8.725   4.618   2.894
  189DPPC   C48 9448   8.662   4.676   3.020
  189DPPC   C49 9449   8.595   4.566   3.102
  189DPPC   C50 9450   8.533   4.636   3.223
  190DPPC    C1 9451   5.043   7.192   1.787
  190DPPC    C2 9452   4.810   7.259   1.746
  190DPPC    C3 9453   4.913   7.295   1.960
  190DPPC    N4 9454   4.936   7.288   1.815
  190DPPC    C5 9455   4.974   7.428   1.786
  190DPPC    C6 9456   5.105   7.479   1.846
  190DPPC    O7 9457   5.083   7.573   1.951
  190DPPC    P8 9458   5.229   7.627   1.990
  190DPPC    O9 9459   5.188   7.716   2.100
  190DPPC   O10 9460   5.306   7.665   1.869
  190DPPC   O11 9461   5.270   7.484   2.050
  190DPPC   C12 9462   5.209   7.472   2.178
  190DPPC   C13 9463   5.192   7.323   2.209
  190DPPC   O14 9464   5.075   7.277   2.279
  190DPPC   C15 9465   5.046   7.146   2.260
  190DPPC   O16 9466   5.096   7.068   2.179
  190DPPC   C17 9467   4.932   7.102   2.352
  190DPPC   C18 9468   4.990   7.009   2.458
  190DPPC   C19 9469   5.104   7.077   2.534
  190DPPC   C20 9470   5.189   6.961   2.584
  190DPPC   C21 9471   5.341   6.982   2.586
  190DPPC   C22 9472   5.400   6.903   2.703
  190DPPC   C23 9473   5.548   6.938   2.725
  190DPPC   C24 9474   5.583   6.894   2.867
  190DPPC   C25 9475   5.578   6.741   2.876
  190DPPC   C26 9476   5.676   6.664   2.787
  190DPPC   C27 9477   5.631   6.518   2.791
  190DPPC   C28 9478   5.662   6.456   2.927
  190DPPC   C29 9479   5.648   6.303   2.929
  190DPPC   C30 9480   5.708   6.254   3.061
  190DPPC   C31 9481   5.667   6.111   3.094
  190DPPC   C32 9482   5.329   7.287   2.266
  190DPPC   O33 9483   5.372   7.355   2.385
  190DPPC   C34 9484   5.504   7.320   2.391
  190DPPC   O35 9485   5.533   7.209   2.349
  190DPPC   C36 9486   5.600   7.431   2.435
  190DPPC   C37 9487   5.597   7.447   2.587
  190DPPC   C38 9488   5.665   7.577   2.630
  190DPPC   C39 9489   5.816   7.558   2.645
  190DPPC   C40 9490   5.880   7.675   2.720
  190DPPC   C41 9491   5.856   7.804   2.642
  190DPPC   C42 9492   5.901   7.928   2.720
  190DPPC   C43 9493   5.816   7.940   2.847
  190DPPC   C44 9494   5.867   8.046   2.945
  190DPPC   C45 9495   5.785   8.065   3.073
  190DPPC   C46 9496   5.851   8.165   3.168
  190DPPC   C47 9497   5.774   8.190   3.298
  190DPPC   C48 9498   5.853   8.280   3.393
  190DPPC   C49 9499   5.777   8.294   3.525
  190DPPC   C50 9500   5.854   8.340   3.649
  191DPPC    C1 9501   0.994   2.281   1.411
  191DPPC    C2 9502   1.179   2.161   1.305
  191DPPC    C3 9503   1.137   2.142   1.543
  191DPPC    N4 9504   1.076   2.159   1.410
  191DPPC    C5 9505   0.996   2.044   1.365
  191DPPC    C6 9506   0.903   1.974   1.464
  191DPPC    O7 9507   0.805   2.055   1.529
  191DPPC    P8 9508   0.710   1.966   1.624
  191DPPC    O9 9509   0.814   1.886   1.694
  191DPPC   O10 9510   0.630   1.916   1.511
  191DPPC   O11 9511   0.644   2.098   1.687
  191DPPC   C12 9512   0.705   2.102   1.816
  191DPPC   C13 9513   0.719   2.244   1.870
  191DPPC   O14 9514   0.800   2.270   1.986
  191DPPC   C15 9515   0.928   2.227   2.003
  191DPPC   O16 9516   0.999   2.210   1.904
  191DPPC   C17 9517   0.988   2.239   2.144
  191DPPC   C18 9518   0.998   2.101   2.208
  191DPPC   C19 9519   1.050   2.126   2.350
  191DPPC   C20 9520   1.180   2.207   2.357
  191DPPC   C21 9521   1.235   2.165   2.494
  191DPPC   C22 9522   1.294   2.282   2.571
  191DPPC   C23 9523   1.304   2.245   2.719
  191DPPC   C24 9524   1.364   2.358   2.802
  191DPPC   C25 9525   1.327   2.332   2.948
  191DPPC   C26 9526   1.176   2.317   2.971
  191DPPC   C27 9527   1.145   2.266   3.112
  191DPPC   C28 9528   1.230   2.142   3.141
  191DPPC   C29 9529   1.184   2.089   3.277
  191DPPC   C30 9530   1.248   1.957   3.323
  191DPPC   C31 9531   1.194   1.908   3.457
  191DPPC   C32 9532   0.572   2.283   1.889
  191DPPC   O33 9533   0.496   2.202   1.979
  191DPPC   C34 9534   0.360   2.205   1.972
  191DPPC   O35 9535   0.299   2.273   1.890
  191DPPC   C36 9536   0.292   2.093   2.051
  191DPPC   C37 9537   0.216   2.136   2.176
  191DPPC   C38 9538   0.178   2.008   2.251
  191DPPC   C39 9539   0.138   2.046   2.394
  191DPPC   C40 9540   0.012   2.132   2.391
  191DPPC   C41 9541  -0.035   2.129   2.536
  191DPPC   C42 9542  -0.055   1.981   2.567
  191DPPC   C43 9543  -0.076   1.957   2.717
  191DPPC   C44 9544  -0.188   2.040   2.779
  191DPPC   C45 9545  -0.222   1.949   2.897
  191DPPC   C46 9546  -0.337   2.018   2.971
  191DPPC   C47 9547  -0.307   2.138   3.061
  191DPPC   C48 9548  -0.434   2.184   3.133
  191DPPC   C49 9549  -0.486   2.059   3.204
  191DPPC   C50 9550  -0.616   2.058   3.284
  192DPPC    C1 9551   4.809   1.083   1.797
  192DPPC    C2 9552   4.799   0.844   1.804
  192DPPC    C3 9553   5.011   0.952   1.781
  192DPPC    N4 9554   4.878   0.962   1.843
  192DPPC    C5 9555   4.892   0.948   1.989
  192DPPC    C6 9556   4.945   1.052   2.087
  192DPPC    O7 9557   4.879   1.178   2.075
  192DPPC    P8 9558   4.965   1.286   2.158
  192DPPC    O9 9559   4.903   1.415   2.122
  192DPPC   O10 9560   5.105   1.253   2.124
  192DPPC   O11 9561   4.928   1.261   2.312
  192DPPC   C12 9562   4.812   1.326   2.364
  192DPPC   C13 9563   4.818   1.318   2.516
  192DPPC   O14 9564   4.697   1.363   2.578
  192DPPC   C15 9565   4.590   1.280   2.564
  192DPPC   O16 9566   4.589   1.176   2.497
  192DPPC   C17 9567   4.458   1.333   2.621
  192DPPC   C18 9568   4.474   1.457   2.709
  192DPPC   C19 9569   4.344   1.509   2.770
  192DPPC   C20 9570   4.294   1.430   2.891
  192DPPC   C21 9571   4.174   1.496   2.960
  192DPPC   C22 9572   4.120   1.399   3.065
  192DPPC   C23 9573   4.203   1.389   3.193
  192DPPC   C24 9574   4.139   1.298   3.297
  192DPPC   C25 9575   4.237   1.279   3.412
  192DPPC   C26 9576   4.372   1.251   3.344
  192DPPC   C27 9577   4.448   1.164   3.445
  192DPPC   C28 9578   4.544   1.083   3.358
  192DPPC   C29 9579   4.620   0.983   3.446
  192DPPC   C30 9580   4.710   0.900   3.353
  192DPPC   C31 9581   4.845   0.963   3.320
  192DPPC   C32 9582   4.948   1.384   2.564
  192DPPC   O33 9583   4.987   1.338   2.693
  192DPPC   C34 9584   5.115   1.365   2.731
  192DPPC   O35 9585   5.207   1.355   2.650
  192DPPC   C36 9586   5.131   1.336   2.881
  192DPPC   C37 9587   5.189   1.195   2.890
  192DPPC   C38 9588   5.204   1.185   3.042
  192DPPC   C39 9589   5.169   1.043   3.087
  192DPPC   C40 9590   5.237   1.022   3.223
  192DPPC   C41 9591   5.273   0.878   3.257
  192DPPC   C42 9592   5.330   0.871   3.399
  192DPPC   C43 9593   5.369   0.730   3.443
  192DPPC   C44 9594   5.408   0.710   3.590
  192DPPC   C45 9595   5.395   0.564   3.633
  192DPPC   C46 9596   5.473   0.482   3.529
  192DPPC   C47 9597   5.472   0.336   3.574
  192DPPC   C48 9598   5.552   0.254   3.474
  192DPPC   C49 9599   5.586   0.114   3.525
  192DPPC   C50 9600   5.465   0.038   3.579
  193DPPC    C1 9601   5.432   5.740   6.158
  193DPPC    C2 9602   5.297   5.552   6.153
  193DPPC    C3 9603   5.255   5.741   6.019
  193DPPC    N4 9604   5.361   5.651   6.066
  193DPPC    C5 9605   5.454   5.592   5.968
  193DPPC    C6 9606   5.407   5.466   5.896
  193DPPC    O7 9607   5.475   5.448   5.771
  193DPPC    P8 9608   5.444   5.292   5.742
  193DPPC    O9 9609   5.410   5.228   5.871
  193DPPC   O10 9610   5.551   5.233   5.659
  193DPPC   O11 9611   5.316   5.304   5.645
  193DPPC   C12 9612   5.340   5.267   5.509
  193DPPC   C13 9613   5.227   5.313   5.416
  193DPPC   O14 9614   5.218   5.218   5.309
  193DPPC   C15 9615   5.133   5.112   5.322
  193DPPC   O16 9616   5.044   5.119   5.406
  193DPPC   C17 9617   5.129   5.020   5.200
  193DPPC   C18 9618   5.269   5.004   5.141
  193DPPC   C19 9619   5.263   4.889   5.042
  193DPPC   C20 9620   5.363   4.910   4.928
  193DPPC   C21 9621   5.361   4.785   4.839
  193DPPC   C22 9622   5.477   4.797   4.740
  193DPPC   C23 9623   5.479   4.669   4.655
  193DPPC   C24 9624   5.564   4.714   4.536
  193DPPC   C25 9625   5.578   4.602   4.432
  193DPPC   C26 9626   5.638   4.666   4.306
  193DPPC   C27 9627   5.781   4.713   4.333
  193DPPC   C28 9628   5.834   4.796   4.215
  193DPPC   C29 9629   5.838   4.714   4.086
  193DPPC   C30 9630   5.910   4.798   3.981
  193DPPC   C31 9631   5.818   4.901   3.915
  193DPPC   C32 9632   5.248   5.459   5.376
  193DPPC   O33 9633   5.364   5.484   5.296
  193DPPC   C34 9634   5.317   5.507   5.171
  193DPPC   O35 9635   5.208   5.558   5.149
  193DPPC   C36 9636   5.429   5.499   5.066
  193DPPC   C37 9637   5.468   5.352   5.049
  193DPPC   C38 9638   5.610   5.342   4.992
  193DPPC   C39 9639   5.615   5.193   4.961
  193DPPC   C40 9640   5.753   5.145   4.914
  193DPPC   C41 9641   5.765   4.992   4.907
  193DPPC   C42 9642   5.894   4.944   4.841
  193DPPC   C43 9643   5.929   4.800   4.879
  193DPPC   C44 9644   6.047   4.765   4.788
  193DPPC   C45 9645   6.014   4.794   4.641
  193DPPC   C46 9646   6.124   4.743   4.547
  193DPPC   C47 9647   6.141   4.591   4.560
  193DPPC   C48 9648   6.256   4.542   4.473
  193DPPC   C49 9649   6.216   4.550   4.326
  193DPPC   C50 9650   6.327   4.476   4.250
  194DPPC    C1 9651   8.004   5.527   1.030
  194DPPC    C2 9652   7.841   5.701   1.069
  194DPPC    C3 9653   7.828   5.553   0.880
  194DPPC    N4 9654   7.862   5.563   1.023
  194DPPC    C5 9655   7.761   5.479   1.089
  194DPPC    C6 9656   7.770   5.326   1.091
  194DPPC    O7 9657   7.860   5.283   1.193
  194DPPC    P8 9658   7.857   5.123   1.209
  194DPPC    O9 9659   7.883   5.080   1.069
  194DPPC   O10 9660   7.724   5.095   1.268
  194DPPC   O11 9661   7.979   5.094   1.310
  194DPPC   C12 9662   7.947   5.149   1.438
  194DPPC   C13 9663   8.024   5.272   1.487
  194DPPC   O14 9664   8.115   5.241   1.593
  194DPPC   C15 9665   8.199   5.326   1.657
  194DPPC   O16 9666   8.212   5.440   1.613
  194DPPC   C17 9667   8.290   5.279   1.771
  194DPPC   C18 9668   8.235   5.172   1.865
  194DPPC   C19 9669   8.348   5.075   1.900
  194DPPC   C20 9670   8.405   5.059   2.041
  194DPPC   C21 9671   8.298   4.988   2.123
  194DPPC   C22 9672   8.339   4.971   2.269
  194DPPC   C23 9673   8.274   4.848   2.333
  194DPPC   C24 9674   8.242   4.885   2.477
  194DPPC   C25 9675   8.160   4.774   2.542
  194DPPC   C26 9676   8.163   4.802   2.693
  194DPPC   C27 9677   8.302   4.788   2.755
  194DPPC   C28 9678   8.282   4.791   2.906
  194DPPC   C29 9679   8.191   4.898   2.968
  194DPPC   C30 9680   8.208   4.909   3.120
  194DPPC   C31 9681   8.126   5.030   3.166
  194DPPC   C32 9682   7.913   5.365   1.535
  194DPPC   O33 9683   7.829   5.325   1.644
  194DPPC   C34 9684   7.716   5.398   1.661
  194DPPC   O35 9685   7.697   5.492   1.583
  194DPPC   C36 9686   7.634   5.362   1.784
  194DPPC   C37 9687   7.498   5.431   1.786
  194DPPC   C38 9688   7.424   5.410   1.918
  194DPPC   C39 9689   7.295   5.492   1.921
  194DPPC   C40 9690   7.200   5.467   2.038
  194DPPC   C41 9691   7.135   5.328   2.035
  194DPPC   C42 9692   7.057   5.310   2.165
  194DPPC   C43 9693   7.151   5.317   2.286
  194DPPC   C44 9694   7.078   5.321   2.421
  194DPPC   C45 9695   7.189   5.355   2.520
  194DPPC   C46 9696   7.142   5.329   2.663
  194DPPC   C47 9697   7.241   5.364   2.774
  194DPPC   C48 9698   7.176   5.328   2.907
  194DPPC   C49 9699   7.277   5.356   3.018
  194DPPC   C50 9700   7.402   5.271   2.996
  195DPPC    C1 9701   2.510   3.569   5.566
  195DPPC    C2 9702   2.300   3.630   5.511
  195DPPC    C3 9703   2.432   3.583   5.330
  195DPPC    N4 9704   2.406   3.537   5.467
  195DPPC    C5 9705   2.350   3.402   5.482
  195DPPC    C6 9706   2.411   3.283   5.408
  195DPPC    O7 9707   2.536   3.240   5.463
  195DPPC    P8 9708   2.580   3.094   5.411
  195DPPC    O9 9709   2.545   3.095   5.267
  195DPPC   O10 9710   2.526   2.996   5.509
  195DPPC   O11 9711   2.740   3.106   5.418
  195DPPC   C12 9712   2.771   3.213   5.329
  195DPPC   C13 9713   2.843   3.342   5.372
  195DPPC   O14 9714   2.823   3.440   5.269
  195DPPC   C15 9715   2.854   3.572   5.284
  195DPPC   O16 9716   2.836   3.617   5.397
  195DPPC   C17 9717   2.852   3.661   5.160
  195DPPC   C18 9718   2.959   3.619   5.060
  195DPPC   C19 9719   2.945   3.710   4.938
  195DPPC   C20 9720   3.009   3.648   4.814
  195DPPC   C21 9721   2.927   3.524   4.778
  195DPPC   C22 9722   2.958   3.468   4.640
  195DPPC   C23 9723   2.910   3.578   4.545
  195DPPC   C24 9724   2.940   3.558   4.396
  195DPPC   C25 9725   2.894   3.424   4.338
  195DPPC   C26 9726   2.929   3.405   4.190
  195DPPC   C27 9727   3.080   3.421   4.173
  195DPPC   C28 9728   3.102   3.429   4.022
  195DPPC   C29 9729   3.072   3.291   3.962
  195DPPC   C30 9730   3.166   3.196   4.036
  195DPPC   C31 9731   3.158   3.053   3.982
  195DPPC   C32 9732   2.989   3.304   5.396
  195DPPC   O33 9733   3.042   3.212   5.300
  195DPPC   C34 9734   3.173   3.180   5.318
  195DPPC   O35 9735   3.232   3.227   5.414
  195DPPC   C36 9736   3.240   3.082   5.222
  195DPPC   C37 9737   3.307   3.168   5.115
  195DPPC   C38 9738   3.325   3.086   4.986
  195DPPC   C39 9739   3.190   3.075   4.915
  195DPPC   C40 9740   3.224   3.019   4.776
  195DPPC   C41 9741   3.119   3.052   4.669
  195DPPC   C42 9742   3.181   3.010   4.536
  195DPPC   C43 9743   3.087   3.027   4.416
  195DPPC   C44 9744   2.945   2.973   4.429
  195DPPC   C45 9745   2.868   2.991   4.298
  195DPPC   C46 9746   2.720   2.954   4.313
  195DPPC   C47 9747   2.621   3.008   4.210
  195DPPC   C48 9748   2.621   3.160   4.192
  195DPPC   C49 9749   2.588   3.213   4.053
  195DPPC   C50 9750   2.590   3.364   4.078
  196DPPC    C1 9751   0.644   0.144   1.617
  196DPPC    C2 9752   0.505   0.298   1.518
  196DPPC    C3 9753   0.474   0.254   1.753
  196DPPC    N4 9754   0.573   0.269   1.645
  196DPPC    C5 9755   0.676   0.373   1.659
  196DPPC    C6 9756   0.637   0.521   1.665
  196DPPC    O7 9757   0.524   0.564   1.742
  196DPPC    P8 9758   0.522   0.725   1.737
  196DPPC    O9 9759   0.387   0.776   1.704
  196DPPC   O10 9760   0.637   0.772   1.655
  196DPPC   O11 9761   0.584   0.764   1.880
  196DPPC   C12 9762   0.471   0.749   1.965
  196DPPC   C13 9763   0.506   0.723   2.112
  196DPPC   O14 9764   0.394   0.679   2.190
  196DPPC   C15 9765   0.348   0.553   2.168
  196DPPC   O16 9766   0.413   0.471   2.104
  196DPPC   C17 9767   0.212   0.508   2.223
  196DPPC   C18 9768   0.222   0.489   2.375
  196DPPC   C19 9769   0.099   0.437   2.450
  196DPPC   C20 9770   0.142   0.434   2.597
  196DPPC   C21 9771   0.045   0.372   2.697
  196DPPC   C22 9772   0.146   0.305   2.791
  196DPPC   C23 9773   0.063   0.261   2.911
  196DPPC   C24 9774   0.155   0.207   3.020
  196DPPC   C25 9775   0.062   0.147   3.126
  196DPPC   C26 9776   0.131   0.049   3.221
  196DPPC   C27 9777   0.164  -0.087   3.158
  196DPPC   C28 9778   0.217  -0.185   3.263
  196DPPC   C29 9779   0.263  -0.320   3.206
  196DPPC   C30 9780   0.278  -0.450   3.285
  196DPPC   C31 9781   0.309  -0.567   3.192
  196DPPC   C32 9782   0.592   0.841   2.157
  196DPPC   O33 9783   0.528   0.965   2.124
  196DPPC   C34 9784   0.596   1.083   2.122
  196DPPC   O35 9785   0.713   1.075   2.157
  196DPPC   C36 9786   0.516   1.208   2.086
  196DPPC   C37 9787   0.445   1.286   2.197
  196DPPC   C38 9788   0.348   1.389   2.140
  196DPPC   C39 9789   0.270   1.450   2.257
  196DPPC   C40 9790   0.200   1.343   2.340
  196DPPC   C41 9791   0.123   1.410   2.454
  196DPPC   C42 9792   0.058   1.304   2.543
  196DPPC   C43 9793  -0.015   1.373   2.659
  196DPPC   C44 9794  -0.072   1.268   2.755
  196DPPC   C45 9795  -0.098   1.317   2.898
  196DPPC   C46 9796  -0.172   1.217   2.987
  196DPPC   C47 9797  -0.218   1.280   3.119
  196DPPC   C48 9798  -0.282   1.176   3.211
  196DPPC   C49 9799  -0.183   1.128   3.317
  196DPPC   C50 9800  -0.251   1.057   3.434
  197DPPC    C1 9801   8.829   2.064   5.768
  197DPPC    C2 9802   8.878   1.828   5.784
  197DPPC    C3 9803   8.718   1.914   5.634
  197DPPC    N4 9804   8.850   1.940   5.692
  197DPPC    C5 9805   8.964   1.955   5.601
  197DPPC    C6 9806   9.004   1.836   5.512
  197DPPC    O7 9807   8.904   1.781   5.426
  197DPPC    P8 9808   8.975   1.687   5.316
  197DPPC    O9 9809   8.876   1.596   5.253
  197DPPC   O10 9810   9.109   1.645   5.364
  197DPPC   O11 9811   9.004   1.807   5.214
  197DPPC   C12 9812   8.878   1.855   5.166
  197DPPC   C13 9813   8.879   2.000   5.115
  197DPPC   O14 9814   8.752   2.056   5.080
  197DPPC   C15 9815   8.734   2.189   5.103
  197DPPC   O16 9816   8.787   2.238   5.202
  197DPPC   C17 9817   8.622   2.259   5.027
  197DPPC   C18 9818   8.671   2.293   4.886
  197DPPC   C19 9819   8.546   2.309   4.799
  197DPPC   C20 9820   8.590   2.364   4.664
  197DPPC   C21 9821   8.472   2.395   4.572
  197DPPC   C22 9822   8.513   2.418   4.426
  197DPPC   C23 9823   8.388   2.458   4.348
  197DPPC   C24 9824   8.294   2.544   4.433
  197DPPC   C25 9825   8.181   2.591   4.341
  197DPPC   C26 9826   8.148   2.465   4.259
  197DPPC   C27 9827   8.030   2.509   4.172
  197DPPC   C28 9828   7.983   2.381   4.103
  197DPPC   C29 9829   7.857   2.424   4.028
  197DPPC   C30 9830   7.785   2.297   3.981
  197DPPC   C31 9831   7.866   2.199   3.896
  197DPPC   C32 9832   8.978   1.989   4.999
  197DPPC   O33 9833   9.013   2.110   4.932
  197DPPC   C34 9834   9.111   2.105   4.837
  197DPPC   O35 9835   9.194   2.014   4.833
  197DPPC   C36 9836   9.127   2.229   4.750
  197DPPC   C37 9837   9.005   2.246   4.658
  197DPPC   C38 9838   9.014   2.352   4.548
  197DPPC   C39 9839   8.899   2.360   4.448
  197DPPC   C40 9840   8.930   2.499   4.393
  197DPPC   C41 9841   8.900   2.613   4.490
  197DPPC   C42 9842   8.949   2.750   4.442
  197DPPC   C43 9843   8.913   2.860   4.541
  197DPPC   C44 9844   8.993   2.989   4.516
  197DPPC   C45 9845   8.966   3.091   4.626
  197DPPC   C46 9846   9.080   3.192   4.643
  197DPPC   C47 9847   9.015   3.291   4.739
  197DPPC   C48 9848   9.106   3.407   4.783
  197DPPC   C49 9849   9.047   3.490   4.897
  197DPPC   C50 9850   9.029   3.406   5.023
  198DPPC    C1 9851   3.957   4.857   5.354
  198DPPC    C2 9852   3.747   4.794   5.434
  198DPPC    C3 9853   3.931   4.785   5.582
  198DPPC    N4 9854   3.871   4.863   5.473
  198DPPC    C5 9855   3.841   5.000   5.518
  198DPPC    C6 9856   3.944   5.082   5.597
  198DPPC    O7 9857   4.045   5.134   5.511
  198DPPC    P8 9858   4.182   5.128   5.597
  198DPPC    O9 9859   4.207   4.983   5.576
  198DPPC   O10 9860   4.166   5.194   5.728
  198DPPC   O11 9861   4.268   5.213   5.491
  198DPPC   C12 9862   4.320   5.124   5.392
  198DPPC   C13 9863   4.395   5.185   5.273
  198DPPC   O14 9864   4.518   5.257   5.285
  198DPPC   C15 9865   4.625   5.174   5.302
  198DPPC   O16 9866   4.620   5.061   5.349
  198DPPC   C17 9867   4.766   5.227   5.276
  198DPPC   C18 9868   4.768   5.299   5.141
  198DPPC   C19 9869   4.897   5.348   5.075
  198DPPC   C20 9870   4.873   5.396   4.931
  198DPPC   C21 9871   5.008   5.425   4.866
  198DPPC   C22 9872   5.083   5.296   4.833
  198DPPC   C23 9873   5.197   5.338   4.740
  198DPPC   C24 9874   5.275   5.227   4.670
  198DPPC   C25 9875   5.419   5.267   4.637
  198DPPC   C26 9876   5.485   5.160   4.550
  198DPPC   C27 9877   5.630   5.189   4.512
  198DPPC   C28 9878   5.663   5.112   4.384
  198DPPC   C29 9879   5.805   5.149   4.343
  198DPPC   C30 9880   5.899   5.116   4.459
  198DPPC   C31 9881   6.052   5.115   4.450
  198DPPC   C32 9882   4.282   5.255   5.197
  198DPPC   O33 9883   4.178   5.170   5.150
  198DPPC   C34 9884   4.074   5.233   5.088
  198DPPC   O35 9885   4.077   5.353   5.061
  198DPPC   C36 9886   3.947   5.156   5.054
  198DPPC   C37 9887   4.005   5.023   5.005
  198DPPC   C38 9888   4.065   5.023   4.864
  198DPPC   C39 9889   4.127   4.886   4.838
  198DPPC   C40 9890   4.186   4.886   4.697
  198DPPC   C41 9891   4.243   4.749   4.662
  198DPPC   C42 9892   4.351   4.765   4.555
  198DPPC   C43 9893   4.448   4.648   4.542
  198DPPC   C44 9894   4.549   4.672   4.430
  198DPPC   C45 9895   4.667   4.575   4.419
  198DPPC   C46 9896   4.767   4.608   4.308
  198DPPC   C47 9897   4.884   4.510   4.299
  198DPPC   C48 9898   4.845   4.365   4.272
  198DPPC   C49 9899   4.966   4.279   4.235
  198DPPC   C50 9900   4.915   4.143   4.187
  199DPPC    C1 9901   6.945   6.320   5.396
  199DPPC    C2 9902   6.898   6.543   5.331
  199DPPC    C3 9903   6.811   6.369   5.208
  199DPPC    N4 9904   6.839   6.409   5.347
  199DPPC    C5 9905   6.722   6.399   5.436
  199DPPC    C6 9906   6.613   6.505   5.425
  199DPPC    O7 9907   6.529   6.480   5.312
  199DPPC    P8 9908   6.407   6.585   5.309
  199DPPC    O9 9909   6.480   6.714   5.297
  199DPPC   O10 9910   6.314   6.547   5.417
  199DPPC   O11 9911   6.340   6.530   5.174
  199DPPC   C12 9912   6.439   6.473   5.087
  199DPPC   C13 9913   6.407   6.496   4.939
  199DPPC   O14 9914   6.496   6.436   4.844
  199DPPC   C15 9915   6.480   6.305   4.812
  199DPPC   O16 9916   6.410   6.237   4.887
  199DPPC   C17 9917   6.547   6.245   4.689
  199DPPC   C18 9918   6.503   6.296   4.551
  199DPPC   C19 9919   6.590   6.221   4.450
  199DPPC   C20 9920   6.558   6.286   4.316
  199DPPC   C21 9921   6.640   6.203   4.217
  199DPPC   C22 9922   6.635   6.263   4.077
  199DPPC   C23 9923   6.734   6.379   4.068
  199DPPC   C24 9924   6.728   6.427   3.923
  199DPPC   C25 9925   6.816   6.353   3.824
  199DPPC   C26 9926   6.815   6.434   3.694
  199DPPC   C27 9927   6.870   6.575   3.718
  199DPPC   C28 9928   6.870   6.656   3.588
  199DPPC   C29 9929   6.953   6.783   3.605
  199DPPC   C30 9930   6.983   6.864   3.478
  199DPPC   C31 9931   7.057   6.992   3.515
  199DPPC   C32 9932   6.392   6.648   4.934
  199DPPC   O33 9933   6.497   6.735   4.978
  199DPPC   C34 9934   6.463   6.867   4.971
  199DPPC   O35 9935   6.349   6.900   4.942
  199DPPC   C36 9936   6.568   6.964   5.024
  199DPPC   C37 9937   6.568   7.094   4.943
  199DPPC   C38 9938   6.483   7.205   5.004
  199DPPC   C39 9939   6.455   7.324   4.911
  199DPPC   C40 9940   6.388   7.276   4.783
  199DPPC   C41 9941   6.369   7.398   4.693
  199DPPC   C42 9942   6.507   7.454   4.657
  199DPPC   C43 9943   6.583   7.368   4.556
  199DPPC   C44 9944   6.715   7.439   4.527
  199DPPC   C45 9945   6.703   7.579   4.466
  199DPPC   C46 9946   6.839   7.621   4.411
  199DPPC   C47 9947   6.897   7.522   4.309
  199DPPC   C48 9948   7.037   7.564   4.262
  199DPPC   C49 9949   7.127   7.575   4.385
  199DPPC   C50 9950   7.272   7.613   4.351
  200DPPC    C1 9951   2.643   7.581   5.121
  200DPPC    C2 9952   2.725   7.449   5.314
  200DPPC    C3 9953   2.775   7.669   5.278
  200DPPC    N4 9954   2.664   7.574   5.266
  200DPPC    C5 9955   2.560   7.637   5.350
  200DPPC    C6 9956   2.419   7.581   5.337
  200DPPC    O7 9957   2.398   7.441   5.360
  200DPPC    P8 9958   2.248   7.389   5.338
  200DPPC    O9 9959   2.152   7.496   5.372
  200DPPC   O10 9960   2.255   7.265   5.418
  200DPPC   O11 9961   2.256   7.372   5.178
  200DPPC   C12 9962   2.337   7.255   5.160
  200DPPC   C13 9963   2.318   7.196   5.020
  200DPPC   O14 9964   2.400   7.243   4.911
  200DPPC   C15 9965   2.535   7.227   4.912
  200DPPC   O16 9966   2.605   7.221   5.013
  200DPPC   C17 9967   2.586   7.252   4.770
  200DPPC   C18 9968   2.682   7.140   4.729
  200DPPC   C19 9969   2.731   7.179   4.589
  200DPPC   C20 9970   2.840   7.083   4.542
  200DPPC   C21 9971   2.891   7.104   4.400
  200DPPC   C22 9972   2.785   7.091   4.289
  200DPPC   C23 9973   2.860   7.097   4.156
  200DPPC   C24 9974   2.775   7.094   4.028
  200DPPC   C25 9975   2.851   7.107   3.897
  200DPPC   C26 9976   2.926   7.239   3.879
  200DPPC   C27 9977   3.001   7.249   3.745
  200DPPC   C28 9978   3.100   7.365   3.738
  200DPPC   C29 9979   3.167   7.366   3.601
  200DPPC   C30 9980   3.248   7.237   3.583
  200DPPC   C31 9981   3.346   7.226   3.466
  200DPPC   C32 9982   2.166   7.184   5.012
  200DPPC   O33 9983   2.118   7.103   4.905
  200DPPC   C34 9984   1.983   7.091   4.913
  200DPPC   O35 9985   1.916   7.107   5.015
  200DPPC   C36 9986   1.928   7.018   4.790
  200DPPC   C37 9987   1.888   7.103   4.670
  200DPPC   C38 9988   1.851   7.013   4.551
  200DPPC   C39 9989   1.979   6.959   4.487
  200DPPC   C40 9990   1.960   6.847   4.384
  200DPPC   C41 9991   2.088   6.797   4.317
  200DPPC   C42 9992   2.043   6.690   4.218
  200DPPC   C43 9993   1.924   6.744   4.138
  200DPPC   C44 9994   1.852   6.633   4.062
  200DPPC   C45 9995   1.704   6.668   4.041
  200DPPC   C46 9996   1.675   6.803   3.975
  200DPPC   C47 9997   1.531   6.816   3.924
  200DPPC   C48 9998   1.500   6.963   3.898
  200DPPC   C49 9999   1.358   6.999   3.853
  200DPPC   C5010000   1.339   7.150   3.835
  201DPPC    C110001   7.794   1.518   5.748
  201DPPC    C210002   7.804   1.585   5.981
  201DPPC    C310003   7.828   1.361   5.927
  201DPPC    N410004   7.859   1.496   5.878
  201DPPC    C510005   8.005   1.508   5.891
  201DPPC    C610006   8.079   1.619   5.815
  201DPPC    O710007   8.034   1.743   5.871
  201DPPC    P810008   8.087   1.866   5.782
  201DPPC    O910009   8.229   1.833   5.755
  201DPPC   O1010010   8.053   2.003   5.826
  201DPPC   O1110011   8.000   1.831   5.651
  201DPPC   C1210012   8.070   1.890   5.541
  201DPPC   C1310013   7.995   1.917   5.410
  201DPPC   O1410014   7.896   2.021   5.407
  201DPPC   C1510015   7.935   2.151   5.420
  201DPPC   O1610016   8.027   2.180   5.495
  201DPPC   C1710017   7.843   2.251   5.350
  201DPPC   C1810018   7.865   2.250   5.198
  201DPPC   C1910019   7.783   2.362   5.133
  201DPPC   C2010020   7.635   2.326   5.148
  201DPPC   C2110021   7.545   2.432   5.084
  201DPPC   C2210022   7.401   2.386   5.063
  201DPPC   C2310023   7.320   2.498   4.999
  201DPPC   C2410024   7.358   2.512   4.851
  201DPPC   C2510025   7.266   2.615   4.785
  201DPPC   C2610026   7.289   2.616   4.634
  201DPPC   C2710027   7.173   2.679   4.556
  201DPPC   C2810028   7.176   2.639   4.408
  201DPPC   C2910029   7.050   2.660   4.324
  201DPPC   C3010030   7.058   2.603   4.182
  201DPPC   C3110031   6.941   2.506   4.165
  201DPPC   C3210032   7.941   1.777   5.378
  201DPPC   O3310033   8.051   1.688   5.359
  201DPPC   C3410034   8.017   1.559   5.382
  201DPPC   O3510035   7.903   1.532   5.421
  201DPPC   C3610036   8.125   1.455   5.353
  201DPPC   C3710037   8.181   1.471   5.211
  201DPPC   C3810038   8.261   1.350   5.163
  201DPPC   C3910039   8.320   1.371   5.023
  201DPPC   C4010040   8.209   1.420   4.931
  201DPPC   C4110041   8.260   1.469   4.795
  201DPPC   C4210042   8.146   1.554   4.737
  201DPPC   C4310043   8.169   1.627   4.605
  201DPPC   C4410044   8.037   1.689   4.559
  201DPPC   C4510045   7.919   1.594   4.536
  201DPPC   C4610046   7.796   1.672   4.490
  201DPPC   C4710047   7.670   1.585   4.487
  201DPPC   C4810048   7.553   1.680   4.460
  201DPPC   C4910049   7.424   1.616   4.511
  201DPPC   C5010050   7.435   1.584   4.660
  202DPPC    C110051   0.670   2.612   5.663
  202DPPC    C210052   0.885   2.626   5.762
  202DPPC    C310053   0.683   2.697   5.865
  202DPPC    N410054   0.745   2.589   5.787
  202DPPC    C510055   0.723   2.459   5.852
  202DPPC    C610056   0.702   2.331   5.771
  202DPPC    O710057   0.574   2.324   5.708
  202DPPC    P810058   0.545   2.185   5.633
  202DPPC    O910059   0.401   2.153   5.639
  202DPPC   O1010060   0.658   2.105   5.686
  202DPPC   O1110061   0.590   2.243   5.489
  202DPPC   C1210062   0.489   2.311   5.414
  202DPPC   C1310063   0.548   2.416   5.320
  202DPPC   O1410064   0.447   2.458   5.228
  202DPPC   C1510065   0.443   2.585   5.180
  202DPPC   O1610066   0.435   2.678   5.261
  202DPPC   C1710067   0.388   2.604   5.039
  202DPPC   C1810068   0.351   2.743   4.986
  202DPPC   C1910069   0.325   2.737   4.835
  202DPPC   C2010070   0.266   2.876   4.811
  202DPPC   C2110071   0.209   2.901   4.671
  202DPPC   C2210072   0.319   2.900   4.564
  202DPPC   C2310073   0.253   2.940   4.432
  202DPPC   C2410074   0.348   2.899   4.320
  202DPPC   C2510075   0.288   2.908   4.179
  202DPPC   C2610076   0.384   2.843   4.080
  202DPPC   C2710077   0.341   2.862   3.934
  202DPPC   C2810078   0.454   2.809   3.846
  202DPPC   C2910079   0.431   2.834   3.696
  202DPPC   C3010080   0.556   2.813   3.611
  202DPPC   C3110081   0.550   2.882   3.475
  202DPPC   C3210082   0.661   2.332   5.260
  202DPPC   O3310083   0.716   2.363   5.131
  202DPPC   C3410084   0.803   2.274   5.077
  202DPPC   O3510085   0.820   2.168   5.136
  202DPPC   C3610086   0.834   2.291   4.928
  202DPPC   C3710087   0.784   2.427   4.881
  202DPPC   C3810088   0.778   2.443   4.729
  202DPPC   C3910089   0.768   2.595   4.717
  202DPPC   C4010090   0.723   2.645   4.579
  202DPPC   C4110091   0.694   2.796   4.582
  202DPPC   C4210092   0.684   2.839   4.436
  202DPPC   C4310093   0.811   2.800   4.361
  202DPPC   C4410094   0.786   2.800   4.210
  202DPPC   C4510095   0.907   2.766   4.122
  202DPPC   C4610096   0.862   2.751   3.977
  202DPPC   C4710097   0.987   2.758   3.888
  202DPPC   C4810098   0.942   2.729   3.744
  202DPPC   C4910099   1.045   2.740   3.631
  202DPPC   C5010100   0.978   2.688   3.503
  203DPPC    C110101   1.937   7.637   4.457
  203DPPC    C210102   1.726   7.582   4.352
  203DPPC    C310103   1.843   7.424   4.491
  203DPPC    N410104   1.809   7.566   4.472
  203DPPC    C510105   1.734   7.616   4.588
  203DPPC    C610106   1.758   7.578   4.734
  203DPPC    O710107   1.880   7.631   4.787
  203DPPC    P810108   1.949   7.516   4.876
  203DPPC    O910109   1.856   7.405   4.907
  203DPPC   O1010110   2.035   7.589   4.972
  203DPPC   O1110111   2.045   7.446   4.768
  203DPPC   C1210112   2.184   7.477   4.781
  203DPPC   C1310113   2.244   7.430   4.648
  203DPPC   O1410114   2.233   7.527   4.543
  203DPPC   C1510115   2.340   7.604   4.510
  203DPPC   O1610116   2.381   7.670   4.605
  203DPPC   C1710117   2.349   7.646   4.363
  203DPPC   C1810118   2.489   7.636   4.302
  203DPPC   C1910119   2.485   7.636   4.149
  203DPPC   C2010120   2.619   7.644   4.076
  203DPPC   C2110121   2.726   7.545   4.122
  203DPPC   C2210122   2.853   7.555   4.037
  203DPPC   C2310123   2.876   7.700   3.996
  203DPPC   C2410124   3.001   7.724   3.910
  203DPPC   C2510125   3.022   7.873   3.886
  203DPPC   C2610126   3.126   7.897   3.775
  203DPPC   C2710127   3.161   8.042   3.744
  203DPPC   C2810128   3.206   8.109   3.874
  203DPPC   C2910129   3.262   8.249   3.853
  203DPPC   C3010130   3.272   8.308   3.994
  203DPPC   C3110131   3.371   8.425   3.988
  203DPPC   C3210132   2.209   7.284   4.620
  203DPPC   O3310133   2.265   7.225   4.502
  203DPPC   C3410134   2.218   7.266   4.382
  203DPPC   O3510135   2.113   7.330   4.375
  203DPPC   C3610136   2.313   7.260   4.262
  203DPPC   C3710137   2.275   7.147   4.165
  203DPPC   C3810138   2.385   7.139   4.058
  203DPPC   C3910139   2.373   7.009   3.978
  203DPPC   C4010140   2.265   7.023   3.870
  203DPPC   C4110141   2.213   6.885   3.832
  203DPPC   C4210142   2.082   6.892   3.753
  203DPPC   C4310143   2.021   6.754   3.725
  203DPPC   C4410144   1.894   6.779   3.645
  203DPPC   C4510145   1.821   6.657   3.588
  203DPPC   C4610146   1.691   6.706   3.525
  203DPPC   C4710147   1.584   6.598   3.543
  203DPPC   C4810148   1.457   6.648   3.474
  203DPPC   C4910149   1.381   6.752   3.556
  203DPPC   C5010150   1.246   6.797   3.498
  204DPPC    C110151   9.424   7.704   4.703
  204DPPC    C210152   9.614   7.682   4.554
  204DPPC    C310153   9.627   7.608   4.776
  204DPPC    N410154   9.536   7.618   4.661
  204DPPC    C510155   9.499   7.485   4.611
  204DPPC    C610156   9.379   7.422   4.682
  204DPPC    O710157   9.328   7.310   4.610
  204DPPC    P810158   9.236   7.241   4.722
  204DPPC    O910159   9.197   7.337   4.827
  204DPPC   O1010160   9.302   7.111   4.751
  204DPPC   O1110161   9.112   7.224   4.620
  204DPPC   C1210162   9.129   7.096   4.557
  204DPPC   C1310163   9.007   7.051   4.477
  204DPPC   O1410164   8.994   6.914   4.435
  204DPPC   C1510165   8.966   6.818   4.527
  204DPPC   O1610166   8.947   6.848   4.645
  204DPPC   C1710167   8.952   6.676   4.471
  204DPPC   C1810168   8.814   6.634   4.422
  204DPPC   C1910169   8.815   6.496   4.356
  204DPPC   C2010170   8.907   6.495   4.234
  204DPPC   C2110171   8.869   6.374   4.147
  204DPPC   C2210172   8.930   6.408   4.011
  204DPPC   C2310173   8.834   6.371   3.897
  204DPPC   C2410174   8.902   6.424   3.770
  204DPPC   C2510175   9.036   6.352   3.755
  204DPPC   C2610176   9.103   6.398   3.626
  204DPPC   C2710177   9.002   6.412   3.511
  204DPPC   C2810178   9.062   6.475   3.385
  204DPPC   C2910179   8.944   6.540   3.312
  204DPPC   C3010180   8.880   6.444   3.211
  204DPPC   C3110181   8.770   6.516   3.133
  204DPPC   C3210182   8.982   7.160   4.374
  204DPPC   O3310183   9.087   7.194   4.283
  204DPPC   C3410184   9.050   7.286   4.191
  204DPPC   O3510185   8.939   7.338   4.185
  204DPPC   C3610186   9.165   7.325   4.097
  204DPPC   C3710187   9.120   7.369   3.957
  204DPPC   C3810188   9.236   7.386   3.859
  204DPPC   C3910189   9.289   7.246   3.826
  204DPPC   C4010190   9.177   7.173   3.752
  204DPPC   C4110191   9.236   7.044   3.696
  204DPPC   C4210192   9.134   6.969   3.609
  204DPPC   C4310193   9.212   6.855   3.543
  204DPPC   C4410194   9.330   6.903   3.459
  204DPPC   C4510195   9.416   6.786   3.411
  204DPPC   C4610196   9.459   6.693   3.524
  204DPPC   C4710197   9.538   6.580   3.460
  204DPPC   C4810198   9.456   6.534   3.339
  204DPPC   C4910199   9.529   6.433   3.251
  204DPPC   C5010200   9.602   6.323   3.329
  205DPPC    C110201   2.161   8.139   5.608
  205DPPC    C210202   2.381   8.035   5.602
  205DPPC    C310203   2.197   7.927   5.516
  205DPPC    N410204   2.257   8.061   5.528
  205DPPC    C510205   2.279   8.135   5.403
  205DPPC    C610206   2.167   8.138   5.298
  205DPPC    O710207   2.058   8.223   5.335
  205DPPC    P810208   1.920   8.168   5.272
  205DPPC    O910209   1.806   8.248   5.322
  205DPPC   O1010210   1.923   8.022   5.297
  205DPPC   O1110211   1.953   8.198   5.117
  205DPPC   C1210212   1.893   8.324   5.088
  205DPPC   C1310213   1.976   8.452   5.100
  205DPPC   O1410214   1.894   8.565   5.068
  205DPPC   C1510215   1.937   8.690   5.100
  205DPPC   O1610216   2.017   8.703   5.192
  205DPPC   C1710217   1.841   8.798   5.050
  205DPPC   C1810218   1.850   8.814   4.898
  205DPPC   C1910219   1.781   8.948   4.874
  205DPPC   C2010220   1.751   8.976   4.727
  205DPPC   C2110221   1.648   8.871   4.682
  205DPPC   C2210222   1.609   8.879   4.535
  205DPPC   C2310223   1.501   8.772   4.515
  205DPPC   C2410224   1.367   8.823   4.462
  205DPPC   C2510225   1.385   8.894   4.328
  205DPPC   C2610226   1.259   8.951   4.262
  205DPPC   C2710227   1.295   8.994   4.119
  205DPPC   C2810228   1.166   9.059   4.068
  205DPPC   C2910229   1.206   9.114   3.931
  205DPPC   C3010230   1.090   9.159   3.841
  205DPPC   C3110231   1.144   9.227   3.715
  205DPPC   C3210232   2.102   8.442   5.013
  205DPPC   O3310233   2.084   8.426   4.872
  205DPPC   C3410234   2.164   8.498   4.790
  205DPPC   O3510235   2.241   8.587   4.824
  205DPPC   C3610236   2.160   8.467   4.640
  205DPPC   C3710237   2.249   8.351   4.595
  205DPPC   C3810238   2.229   8.333   4.444
  205DPPC   C3910239   2.306   8.211   4.396
  205DPPC   C4010240   2.290   8.196   4.244
  205DPPC   C4110241   2.345   8.065   4.187
  205DPPC   C4210242   2.323   8.077   4.036
  205DPPC   C4310243   2.346   7.942   3.968
  205DPPC   C4410244   2.381   7.986   3.826
  205DPPC   C4510245   2.424   7.875   3.731
  205DPPC   C4610246   2.452   7.927   3.590
  205DPPC   C4710247   2.527   7.829   3.499
  205DPPC   C4810248   2.648   7.778   3.578
  205DPPC   C4910249   2.744   7.698   3.489
  205DPPC   C5010250   2.861   7.636   3.565
  206DPPC    C110251   2.005   5.384   4.956
  206DPPC    C210252   1.932   5.213   4.809
  206DPPC    C310253   2.045   5.147   5.014
  206DPPC    N410254   1.956   5.245   4.951
  206DPPC    C510255   1.841   5.214   5.037
  206DPPC    C610256   1.718   5.305   5.029
  206DPPC    O710257   1.650   5.314   4.904
  206DPPC    P810258   1.505   5.383   4.914
  206DPPC    O910259   1.523   5.459   5.039
  206DPPC   O1010260   1.387   5.293   4.906
  206DPPC   O1110261   1.518   5.487   4.792
  206DPPC   C1210262   1.474   5.416   4.675
  206DPPC   C1310263   1.496   5.491   4.544
  206DPPC   O1410264   1.428   5.434   4.431
  206DPPC   C1510265   1.292   5.444   4.422
  206DPPC   O1610266   1.224   5.508   4.501
  206DPPC   C1710267   1.224   5.368   4.308
  206DPPC   C1810268   1.176   5.456   4.193
  206DPPC   C1910269   1.148   5.354   4.082
  206DPPC   C2010270   1.110   5.430   3.954
  206DPPC   C2110271   1.083   5.333   3.839
  206DPPC   C2210272   1.048   5.422   3.719
  206DPPC   C2310273   1.014   5.345   3.592
  206DPPC   C2410274   0.988   5.441   3.476
  206DPPC   C2510275   1.115   5.524   3.453
  206DPPC   C2610276   1.100   5.631   3.345
  206DPPC   C2710277   1.222   5.714   3.307
  206DPPC   C2810278   1.255   5.832   3.398
  206DPPC   C2910279   1.391   5.896   3.367
  206DPPC   C3010280   1.440   5.986   3.481
  206DPPC   C3110281   1.483   5.905   3.603
  206DPPC   C3210282   1.648   5.475   4.534
  206DPPC   O3310283   1.696   5.356   4.470
  206DPPC   C3410284   1.832   5.348   4.467
  206DPPC   O3510285   1.910   5.408   4.542
  206DPPC   C3610286   1.883   5.221   4.400
  206DPPC   C3710287   1.931   5.254   4.259
  206DPPC   C3810288   1.984   5.126   4.194
  206DPPC   C3910289   2.083   5.056   4.287
  206DPPC   C4010290   2.114   4.935   4.198
  206DPPC   C4110291   2.217   4.837   4.255
  206DPPC   C4210292   2.243   4.740   4.139
  206DPPC   C4310293   2.311   4.811   4.022
  206DPPC   C4410294   2.452   4.858   4.059
  206DPPC   C4510295   2.546   4.878   3.941
  206DPPC   C4610296   2.692   4.912   3.974
  206DPPC   C4710297   2.786   4.907   3.854
  206DPPC   C4810298   2.923   4.960   3.895
  206DPPC   C4910299   3.014   4.973   3.773
  206DPPC   C5010300   3.159   4.993   3.818
  207DPPC    C110301   6.483   0.328   6.057
  207DPPC    C210302   6.690   0.350   5.948
  207DPPC    C310303   6.520   0.223   5.844
  207DPPC    N410304   6.545   0.343   5.925
  207DPPC    C510305   6.486   0.454   5.848
  207DPPC    C610306   6.532   0.599   5.871
  207DPPC    O710307   6.450   0.688   5.794
  207DPPC    P810308   6.510   0.837   5.804
  207DPPC    O910309   6.528   0.869   5.947
  207DPPC   O1010310   6.427   0.926   5.720
  207DPPC   O1110311   6.644   0.792   5.727
  207DPPC   C1210312   6.674   0.853   5.601
  207DPPC   C1310313   6.816   0.900   5.568
  207DPPC   O1410314   6.829   1.013   5.481
  207DPPC   C1510315   6.946   1.083   5.480
  207DPPC   O1610316   7.024   1.066   5.573
  207DPPC   C1710317   6.974   1.174   5.360
  207DPPC   C1810318   6.914   1.313   5.380
  207DPPC   C1910319   6.912   1.402   5.255
  207DPPC   C2010320   6.830   1.349   5.138
  207DPPC   C2110321   6.827   1.440   5.015
  207DPPC   C2210322   6.955   1.419   4.934
  207DPPC   C2310323   6.928   1.514   4.817
  207DPPC   C2410324   7.029   1.490   4.705
  207DPPC   C2510325   6.980   1.566   4.581
  207DPPC   C2610326   7.090   1.554   4.475
  207DPPC   C2710327   7.054   1.597   4.333
  207DPPC   C2810328   7.010   1.744   4.325
  207DPPC   C2910329   6.937   1.763   4.192
  207DPPC   C3010330   6.972   1.905   4.145
  207DPPC   C3110331   6.922   1.934   4.004
  207DPPC   C3210332   6.882   0.774   5.512
  207DPPC   O3310333   6.807   0.708   5.410
  207DPPC   C3410334   6.878   0.612   5.345
  207DPPC   O3510335   6.989   0.573   5.379
  207DPPC   C3610336   6.801   0.543   5.232
  207DPPC   C3710337   6.685   0.623   5.173
  207DPPC   C3810338   6.607   0.548   5.065
  207DPPC   C3910339   6.514   0.637   4.983
  207DPPC   C4010340   6.472   0.554   4.861
  207DPPC   C4110341   6.382   0.440   4.909
  207DPPC   C4210342   6.340   0.352   4.791
  207DPPC   C4310343   6.296   0.210   4.824
  207DPPC   C4410344   6.287   0.122   4.699
  207DPPC   C4510345   6.419   0.125   4.620
  207DPPC   C4610346   6.385   0.062   4.485
  207DPPC   C4710347   6.503   0.019   4.398
  207DPPC   C4810348   6.460  -0.019   4.256
  207DPPC   C4910349   6.590  -0.048   4.179
  207DPPC   C5010350   6.533  -0.115   4.054
  208DPPC    C110351   5.187   1.511   5.537
  208DPPC    C210352   5.334   1.412   5.383
  208DPPC    C310353   5.232   1.636   5.345
  208DPPC    N410354   5.292   1.541   5.439
  208DPPC    C510355   5.411   1.615   5.484
  208DPPC    C610356   5.499   1.557   5.595
  208DPPC    O710357   5.636   1.594   5.576
  208DPPC    P810358   5.744   1.555   5.688
  208DPPC    O910359   5.668   1.556   5.815
  208DPPC   O1010360   5.875   1.615   5.654
  208DPPC   O1110361   5.759   1.399   5.650
  208DPPC   C1210362   5.814   1.392   5.518
  208DPPC   C1310363   5.831   1.251   5.463
  208DPPC   O1410364   5.931   1.250   5.361
  208DPPC   C1510365   6.040   1.170   5.378
  208DPPC   O1610366   6.043   1.082   5.464
  208DPPC   C1710367   6.159   1.211   5.291
  208DPPC   C1810368   6.121   1.311   5.181
  208DPPC   C1910369   6.247   1.388   5.140
  208DPPC   C2010370   6.213   1.440   5.000
  208DPPC   C2110371   6.316   1.533   4.936
  208DPPC   C2210372   6.240   1.588   4.815
  208DPPC   C2310373   6.163   1.712   4.862
  208DPPC   C2410374   6.102   1.783   4.741
  208DPPC   C2510375   6.020   1.906   4.782
  208DPPC   C2610376   5.955   1.961   4.655
  208DPPC   C2710377   5.838   1.877   4.604
  208DPPC   C2810378   5.800   1.938   4.469
  208DPPC   C2910379   5.927   1.925   4.384
  208DPPC   C3010380   5.883   1.968   4.244
  208DPPC   C3110381   5.980   1.920   4.136
  208DPPC   C3210382   5.687   1.207   5.437
  208DPPC   O3310383   5.653   1.182   5.300
  208DPPC   C3410384   5.661   1.285   5.212
  208DPPC   O3510385   5.632   1.398   5.252
  208DPPC   C3610386   5.655   1.250   5.063
  208DPPC   C3710387   5.777   1.304   4.989
  208DPPC   C3810388   5.772   1.285   4.837
  208DPPC   C3910389   5.898   1.343   4.772
  208DPPC   C4010390   5.888   1.344   4.619
  208DPPC   C4110391   5.984   1.450   4.564
  208DPPC   C4210392   5.982   1.425   4.413
  208DPPC   C4310393   6.068   1.519   4.328
  208DPPC   C4410394   6.219   1.509   4.352
  208DPPC   C4510395   6.275   1.617   4.261
  208DPPC   C4610396   6.412   1.641   4.325
  208DPPC   C4710397   6.479   1.504   4.327
  208DPPC   C4810398   6.625   1.499   4.373
  208DPPC   C4910399   6.632   1.536   4.521
  208DPPC   C5010400   6.600   1.407   4.597
  209DPPC    C110401   4.744   3.865   6.055
  209DPPC    C210402   4.883   4.029   5.938
  209DPPC    C310403   4.877   3.791   5.882
  209DPPC    N410404   4.800   3.909   5.926
  209DPPC    C510405   4.694   3.917   5.825
  209DPPC    C610406   4.591   4.024   5.863
  209DPPC    O710407   4.472   4.033   5.784
  209DPPC    P810408   4.380   4.154   5.837
  209DPPC    O910409   4.431   4.181   5.974
  209DPPC   O1010410   4.240   4.115   5.809
  209DPPC   O1110411   4.442   4.275   5.750
  209DPPC   C1210412   4.459   4.237   5.614
  209DPPC   C1310413   4.327   4.216   5.540
  209DPPC   O1410414   4.338   4.155   5.410
  209DPPC   C1510415   4.225   4.097   5.360
  209DPPC   O1610416   4.136   4.067   5.439
  209DPPC   C1710417   4.236   4.033   5.222
  209DPPC   C1810418   4.099   4.001   5.163
  209DPPC   C1910419   4.117   4.007   5.011
  209DPPC   C2010420   4.225   3.906   4.972
  209DPPC   C2110421   4.239   3.898   4.820
  209DPPC   C2210422   4.348   3.797   4.784
  209DPPC   C2310423   4.381   3.779   4.636
  209DPPC   C2410424   4.503   3.687   4.637
  209DPPC   C2510425   4.498   3.551   4.706
  209DPPC   C2610426   4.623   3.462   4.706
  209DPPC   C2710427   4.669   3.425   4.564
  209DPPC   C2810428   4.795   3.340   4.572
  209DPPC   C2910429   4.837   3.305   4.429
  209DPPC   C3010430   4.975   3.240   4.411
  209DPPC   C3110431   5.016   3.199   4.269
  209DPPC   C3210432   4.245   4.344   5.552
  209DPPC   O3310433   4.294   4.464   5.491
  209DPPC   C3410434   4.237   4.585   5.518
  209DPPC   O3510435   4.199   4.614   5.631
  209DPPC   C3610436   4.284   4.697   5.425
  209DPPC   C3710437   4.308   4.639   5.286
  209DPPC   C3810438   4.391   4.734   5.200
  209DPPC   C3910439   4.401   4.675   5.059
  209DPPC   C4010440   4.523   4.725   4.981
  209DPPC   C4110441   4.489   4.874   4.971
  209DPPC   C4210442   4.604   4.936   4.892
  209DPPC   C4310443   4.735   4.926   4.970
  209DPPC   C4410444   4.862   4.962   4.892
  209DPPC   C4510445   4.863   4.885   4.760
  209DPPC   C4610446   4.964   4.946   4.662
  209DPPC   C4710447   4.935   4.882   4.526
  209DPPC   C4810448   5.011   4.940   4.407
  209DPPC   C4910449   5.160   4.908   4.416
  209DPPC   C5010450   5.180   4.756   4.418
  210DPPC    C110451   6.416   1.429   5.906
  210DPPC    C210452   6.375   1.472   6.143
  210DPPC    C310453   6.257   1.299   6.030
  210DPPC    N410454   6.386   1.370   6.038
  210DPPC    C510455   6.488   1.273   6.081
  210DPPC    C610456   6.563   1.204   5.967
  210DPPC    O710457   6.677   1.279   5.924
  210DPPC    P810458   6.763   1.208   5.808
  210DPPC    O910459   6.817   1.080   5.861
  210DPPC   O1010460   6.839   1.325   5.758
  210DPPC   O1110461   6.643   1.181   5.704
  210DPPC   C1210462   6.632   1.299   5.624
  210DPPC   C1310463   6.523   1.303   5.516
  210DPPC   O1410464   6.403   1.364   5.565
  210DPPC   C1510465   6.398   1.496   5.531
  210DPPC   O1610466   6.503   1.559   5.536
  210DPPC   C1710467   6.266   1.574   5.539
  210DPPC   C1810468   6.290   1.707   5.468
  210DPPC   C1910469   6.161   1.789   5.467
  210DPPC   C2010470   6.179   1.913   5.379
  210DPPC   C2110471   6.080   2.017   5.434
  210DPPC   C2210472   6.114   2.154   5.377
  210DPPC   C2310473   6.124   2.151   5.224
  210DPPC   C2410474   6.168   2.284   5.162
  210DPPC   C2510475   6.170   2.261   5.011
  210DPPC   C2610476   6.239   2.369   4.928
  210DPPC   C2710477   6.237   2.341   4.777
  210DPPC   C2810478   6.289   2.464   4.702
  210DPPC   C2910479   6.313   2.393   4.569
  210DPPC   C3010480   6.182   2.356   4.499
  210DPPC   C3110481   6.190   2.256   4.384
  210DPPC   C3210482   6.524   1.159   5.465
  210DPPC   O3310483   6.551   1.144   5.325
  210DPPC   C3410484   6.538   1.020   5.271
  210DPPC   O3510485   6.451   0.947   5.319
  210DPPC   C3610486   6.584   1.008   5.126
  210DPPC   C3710487   6.494   1.081   5.026
  210DPPC   C3810488   6.556   1.114   4.891
  210DPPC   C3910489   6.623   0.982   4.851
  210DPPC   C4010490   6.693   0.992   4.714
  210DPPC   C4110491   6.812   1.087   4.727
  210DPPC   C4210492   6.889   1.101   4.596
  210DPPC   C4310493   6.803   1.135   4.474
  210DPPC   C4410494   6.895   1.166   4.356
  210DPPC   C4510495   6.926   1.035   4.283
  210DPPC   C4610496   6.805   0.973   4.212
  210DPPC   C4710497   6.835   0.854   4.121
  210DPPC   C4810498   6.707   0.822   4.043
  210DPPC   C4910499   6.671   0.936   3.947
  210DPPC   C5010500   6.547   0.903   3.863
  211DPPC    C110501   1.366   7.987   5.315
  211DPPC    C210502   1.503   8.184   5.308
  211DPPC    C310503   1.547   7.997   5.465
  211DPPC    N410504   1.503   8.038   5.331
  211DPPC    C510505   1.596   7.996   5.225
  211DPPC    C610506   1.602   7.853   5.172
  211DPPC    O710507   1.500   7.827   5.076
  211DPPC    P810508   1.522   7.692   4.992
  211DPPC    O910509   1.384   7.641   5.007
  211DPPC   O1010510   1.641   7.629   5.054
  211DPPC   O1110511   1.560   7.790   4.870
  211DPPC   C1210512   1.440   7.844   4.814
  211DPPC   C1310513   1.467   7.947   4.704
  211DPPC   O1410514   1.485   7.894   4.572
  211DPPC   C1510515   1.373   7.862   4.503
  211DPPC   O1610516   1.266   7.855   4.564
  211DPPC   C1710517   1.398   7.789   4.371
  211DPPC   C1810518   1.382   7.898   4.265
  211DPPC   C1910519   1.234   7.935   4.252
  211DPPC   C2010520   1.199   8.008   4.122
  211DPPC   C2110521   1.059   8.067   4.138
  211DPPC   C2210522   1.021   8.164   4.025
  211DPPC   C2310523   1.062   8.096   3.894
  211DPPC   C2410524   1.039   8.198   3.783
  211DPPC   C2510525   1.053   8.141   3.642
  211DPPC   C2610526   0.932   8.061   3.593
  211DPPC   C2710527   0.840   8.150   3.508
  211DPPC   C2810528   0.919   8.220   3.397
  211DPPC   C2910529   0.815   8.280   3.303
  211DPPC   C3010530   0.865   8.376   3.195
  211DPPC   C3110531   0.962   8.313   3.095
  211DPPC   C3210532   1.578   8.037   4.758
  211DPPC   O3310533   1.599   8.152   4.677
  211DPPC   C3410534   1.667   8.241   4.754
  211DPPC   O3510535   1.715   8.206   4.862
  211DPPC   C3610536   1.681   8.384   4.700
  211DPPC   C3710537   1.800   8.393   4.604
  211DPPC   C3810538   1.784   8.522   4.523
  211DPPC   C3910539   1.883   8.525   4.406
  211DPPC   C4010540   1.843   8.656   4.339
  211DPPC   C4110541   1.808   8.630   4.192
  211DPPC   C4210542   1.760   8.757   4.123
  211DPPC   C4310543   1.725   8.732   3.977
  211DPPC   C4410544   1.707   8.854   3.886
  211DPPC   C4510545   1.567   8.913   3.906
  211DPPC   C4610546   1.546   9.044   3.830
  211DPPC   C4710547   1.588   9.021   3.685
  211DPPC   C4810548   1.569   9.156   3.616
  211DPPC   C4910549   1.666   9.268   3.657
  211DPPC   C5010550   1.601   9.388   3.587
  212DPPC    C110551   4.643   8.245   5.703
  212DPPC    C210552   4.697   8.460   5.624
  212DPPC    C310553   4.852   8.288   5.581
  212DPPC    N410554   4.709   8.317   5.593
  212DPPC    C510555   4.630   8.280   5.474
  212DPPC    C610556   4.638   8.361   5.345
  212DPPC    O710557   4.769   8.382   5.291
  212DPPC    P810558   4.755   8.528   5.223
  212DPPC    O910559   4.876   8.556   5.143
  212DPPC   O1010560   4.697   8.612   5.330
  212DPPC   O1110561   4.644   8.510   5.108
  212DPPC   C1210562   4.697   8.403   5.028
  212DPPC   C1310563   4.606   8.348   4.918
  212DPPC   O1410564   4.659   8.235   4.847
  212DPPC   C1510565   4.674   8.113   4.905
  212DPPC   O1610566   4.624   8.096   5.016
  212DPPC   C1710567   4.729   8.006   4.810
  212DPPC   C1810568   4.663   8.026   4.674
  212DPPC   C1910569   4.713   7.935   4.561
  212DPPC   C2010570   4.615   7.975   4.451
  212DPPC   C2110571   4.659   7.904   4.322
  212DPPC   C2210572   4.530   7.839   4.271
  212DPPC   C2310573   4.540   7.752   4.145
  212DPPC   C2410574   4.413   7.670   4.123
  212DPPC   C2510575   4.433   7.585   3.997
  212DPPC   C2610576   4.443   7.661   3.865
  212DPPC   C2710577   4.485   7.544   3.774
  212DPPC   C2810578   4.532   7.578   3.633
  212DPPC   C2910579   4.571   7.456   3.550
  212DPPC   C3010580   4.604   7.484   3.403
  212DPPC   C3110581   4.648   7.346   3.354
  212DPPC   C3210582   4.558   8.471   4.842
  212DPPC   O3310583   4.670   8.536   4.781
  212DPPC   C3410584   4.649   8.652   4.714
  212DPPC   O3510585   4.543   8.714   4.719
  212DPPC   C3610586   4.782   8.712   4.667
  212DPPC   C3710587   4.778   8.718   4.514
  212DPPC   C3810588   4.912   8.725   4.441
  212DPPC   C3910589   4.875   8.752   4.295
  212DPPC   C4010590   5.001   8.766   4.208
  212DPPC   C4110591   5.113   8.665   4.236
  212DPPC   C4210592   5.235   8.687   4.146
  212DPPC   C4310593   5.368   8.621   4.182
  212DPPC   C4410594   5.423   8.680   4.311
  212DPPC   C4510595   5.545   8.596   4.352
  212DPPC   C4610596   5.645   8.597   4.237
  212DPPC   C4710597   5.777   8.545   4.294
  212DPPC   C4810598   5.884   8.515   4.189
  212DPPC   C4910599   5.993   8.445   4.270
  212DPPC   C5010600   6.086   8.399   4.158
  213DPPC    C110601   7.649   1.971   5.980
  213DPPC    C210602   7.712   2.178   5.903
  213DPPC    C310603   7.734   2.009   5.748
  213DPPC    N410604   7.648   2.053   5.859
  213DPPC    C510605   7.516   2.082   5.800
  213DPPC    C610606   7.411   1.972   5.795
  213DPPC    O710607   7.459   1.852   5.733
  213DPPC    P810608   7.391   1.728   5.808
  213DPPC    O910609   7.311   1.775   5.924
  213DPPC   O1010610   7.496   1.625   5.824
  213DPPC   O1110611   7.294   1.673   5.691
  213DPPC   C1210612   7.360   1.655   5.565
  213DPPC   C1310613   7.271   1.629   5.443
  213DPPC   O1410614   7.341   1.574   5.331
  213DPPC   C1510615   7.377   1.443   5.343
  213DPPC   O1610616   7.354   1.377   5.444
  213DPPC   C1710617   7.438   1.377   5.219
  213DPPC   C1810618   7.340   1.356   5.104
  213DPPC   C1910619   7.390   1.265   4.991
  213DPPC   C2010620   7.281   1.239   4.887
  213DPPC   C2110621   7.322   1.143   4.775
  213DPPC   C2210622   7.443   1.195   4.697
  213DPPC   C2310623   7.508   1.076   4.626
  213DPPC   C2410624   7.419   1.060   4.503
  213DPPC   C2510625   7.401   1.189   4.423
  213DPPC   C2610626   7.522   1.190   4.329
  213DPPC   C2710627   7.513   1.316   4.243
  213DPPC   C2810628   7.395   1.296   4.148
  213DPPC   C2910629   7.376   1.404   4.040
  213DPPC   C3010630   7.234   1.410   3.984
  213DPPC   C3110631   7.243   1.507   3.867
  213DPPC   C3210632   7.177   1.750   5.433
  213DPPC   O3310633   7.063   1.731   5.350
  213DPPC   C3410634   6.975   1.833   5.328
  213DPPC   O3510635   6.975   1.932   5.402
  213DPPC   C3610636   6.862   1.812   5.228
  213DPPC   C3710637   6.737   1.775   5.308
  213DPPC   C3810638   6.614   1.790   5.217
  213DPPC   C3910639   6.606   1.924   5.145
  213DPPC   C4010640   6.570   2.028   5.251
  213DPPC   C4110641   6.569   2.173   5.203
  213DPPC   C4210642   6.546   2.279   5.311
  213DPPC   C4310643   6.540   2.420   5.252
  213DPPC   C4410644   6.659   2.475   5.172
  213DPPC   C4510645   6.645   2.622   5.133
  213DPPC   C4610646   6.513   2.639   5.058
  213DPPC   C4710647   6.500   2.780   5.000
  213DPPC   C4810648   6.373   2.808   4.918
  213DPPC   C4910649   6.374   2.954   4.872
  213DPPC   C5010650   6.325   3.040   4.988
  214DPPC    C110651   5.491   7.927   5.617
  214DPPC    C210652   5.507   7.749   5.769
  214DPPC    C310653   5.459   7.690   5.541
  214DPPC    N410654   5.529   7.785   5.628
  214DPPC    C510655   5.675   7.774   5.623
  214DPPC    C610656   5.755   7.816   5.499
  214DPPC    O710657   5.752   7.712   5.401
  214DPPC    P810658   5.838   7.757   5.272
  214DPPC    O910659   5.911   7.629   5.258
  214DPPC   O1010660   5.903   7.884   5.310
  214DPPC   O1110661   5.707   7.764   5.179
  214DPPC   C1210662   5.699   7.654   5.088
  214DPPC   C1310663   5.553   7.639   5.046
  214DPPC   O1410664   5.526   7.524   4.965
  214DPPC   C1510665   5.544   7.402   5.024
  214DPPC   O1610666   5.565   7.380   5.143
  214DPPC   C1710667   5.550   7.299   4.912
  214DPPC   C1810668   5.632   7.175   4.950
  214DPPC   C1910669   5.678   7.096   4.828
  214DPPC   C2010670   5.760   6.968   4.848
  214DPPC   C2110671   5.752   6.876   4.726
  214DPPC   C2210672   5.846   6.757   4.746
  214DPPC   C2310673   5.986   6.820   4.744
  214DPPC   C2410674   6.088   6.706   4.751
  214DPPC   C2510675   6.061   6.599   4.645
  214DPPC   C2610676   6.149   6.474   4.652
  214DPPC   C2710677   6.097   6.371   4.552
  214DPPC   C2810678   5.944   6.376   4.549
  214DPPC   C2910679   5.895   6.289   4.433
  214DPPC   C3010680   5.894   6.138   4.459
  214DPPC   C3110681   5.883   6.048   4.337
  214DPPC   C3210682   5.533   7.770   4.969
  214DPPC   O3310683   5.624   7.819   4.871
  214DPPC   C3410684   5.584   7.941   4.826
  214DPPC   O3510685   5.502   8.005   4.893
  214DPPC   C3610686   5.645   8.006   4.702
  214DPPC   C3710687   5.702   7.904   4.604
  214DPPC   C3810688   5.797   7.962   4.499
  214DPPC   C3910689   5.873   7.843   4.439
  214DPPC   C4010690   5.937   7.874   4.304
  214DPPC   C4110691   6.029   7.753   4.287
  214DPPC   C4210692   6.016   7.708   4.142
  214DPPC   C4310693   6.109   7.590   4.113
  214DPPC   C4410694   6.251   7.616   4.164
  214DPPC   C4510695   6.352   7.516   4.107
  214DPPC   C4610696   6.303   7.376   4.144
  214DPPC   C4710697   6.391   7.258   4.101
  214DPPC   C4810698   6.530   7.273   4.163
  214DPPC   C4910699   6.613   7.149   4.126
  214DPPC   C5010700   6.748   7.155   4.197
  215DPPC    C110701   8.056   0.314   5.256
  215DPPC    C210702   8.139   0.445   5.445
  215DPPC    C310703   7.950   0.319   5.455
  215DPPC    N410704   8.086   0.315   5.400
  215DPPC    C510705   8.148   0.194   5.457
  215DPPC    C610706   8.299   0.185   5.435
  215DPPC    O710707   8.342   0.117   5.317
  215DPPC    P810708   8.484   0.165   5.259
  215DPPC    O910709   8.583   0.078   5.326
  215DPPC   O1010710   8.475   0.307   5.300
  215DPPC   O1110711   8.451   0.134   5.104
  215DPPC   C1210712   8.391   0.249   5.046
  215DPPC   C1310713   8.372   0.224   4.896
  215DPPC   O1410714   8.341   0.342   4.820
  215DPPC   C1510715   8.235   0.423   4.845
  215DPPC   O1610716   8.182   0.427   4.955
  215DPPC   C1710717   8.208   0.526   4.735
  215DPPC   C1810718   8.169   0.441   4.614
  215DPPC   C1910719   8.147   0.514   4.481
  215DPPC   C2010720   8.109   0.409   4.377
  215DPPC   C2110721   8.069   0.467   4.241
  215DPPC   C2210722   8.188   0.547   4.190
  215DPPC   C2310723   8.143   0.614   4.059
  215DPPC   C2410724   8.079   0.747   4.098
  215DPPC   C2510725   8.027   0.821   3.974
  215DPPC   C2610726   7.962   0.952   4.019
  215DPPC   C2710727   7.901   1.003   3.888
  215DPPC   C2810728   7.823   0.891   3.818
  215DPPC   C2910729   7.740   0.927   3.695
  215DPPC   C3010730   7.613   0.995   3.744
  215DPPC   C3110731   7.546   0.926   3.863
  215DPPC   C3210732   8.259   0.121   4.889
  215DPPC   O3310733   8.214   0.102   4.755
  215DPPC   C3410734   8.290   0.063   4.648
  215DPPC   O3510735   8.388  -0.005   4.679
  215DPPC   C3610736   8.227   0.080   4.510
  215DPPC   C3710737   8.149  -0.043   4.463
  215DPPC   C3810738   8.079   0.004   4.335
  215DPPC   C3910739   7.975  -0.103   4.301
  215DPPC   C4010740   7.881  -0.067   4.186
  215DPPC   C4110741   7.803  -0.191   4.143
  215DPPC   C4210742   7.701  -0.153   4.035
  215DPPC   C4310743   7.775  -0.110   3.908
  215DPPC   C4410744   7.675  -0.103   3.792
  215DPPC   C4510745   7.568   0.006   3.798
  215DPPC   C4610746   7.470   0.000   3.680
  215DPPC   C4710747   7.397  -0.134   3.674
  215DPPC   C4810748   7.333  -0.137   3.535
  215DPPC   C4910749   7.270  -0.273   3.501
  215DPPC   C5010750   7.287  -0.305   3.352
  216DPPC    C110751   4.427   0.257   5.140
  216DPPC    C210752   4.492   0.452   4.998
  216DPPC    C310753   4.332   0.479   5.165
  216DPPC    N410754   4.452   0.401   5.130
  216DPPC    C510755   4.550   0.438   5.234
  216DPPC    C610756   4.611   0.578   5.242
  216DPPC    O710757   4.531   0.679   5.304
  216DPPC    P810758   4.615   0.815   5.287
  216DPPC    O910759   4.760   0.785   5.303
  216DPPC   O1010760   4.530   0.883   5.387
  216DPPC   O1110761   4.569   0.854   5.138
  216DPPC   C1210762   4.431   0.892   5.131
  216DPPC   C1310763   4.380   0.931   4.992
  216DPPC   O1410764   4.319   0.815   4.934
  216DPPC   C1510765   4.186   0.786   4.941
  216DPPC   O1610766   4.131   0.821   5.045
  216DPPC   C1710767   4.163   0.651   4.872
  216DPPC   C1810768   4.236   0.629   4.739
  216DPPC   C1910769   4.218   0.491   4.676
  216DPPC   C2010770   4.255   0.490   4.528
  216DPPC   C2110771   4.224   0.361   4.451
  216DPPC   C2210772   4.283   0.350   4.311
  216DPPC   C2310773   4.435   0.348   4.291
  216DPPC   C2410774   4.484   0.357   4.146
  216DPPC   C2510775   4.531   0.216   4.110
  216DPPC   C2610776   4.652   0.221   4.016
  216DPPC   C2710777   4.718   0.093   3.965
  216DPPC   C2810778   4.831   0.124   3.867
  216DPPC   C2910779   4.897  -0.003   3.811
  216DPPC   C3010780   4.810  -0.077   3.710
  216DPPC   C3110781   4.756   0.009   3.595
  216DPPC   C3210782   4.485   1.004   4.909
  216DPPC   O3310783   4.503   1.145   4.927
  216DPPC   C3410784   4.604   1.197   4.852
  216DPPC   O3510785   4.694   1.126   4.808
  216DPPC   C3610786   4.583   1.341   4.804
  216DPPC   C3710787   4.492   1.355   4.682
  216DPPC   C3810788   4.427   1.494   4.692
  216DPPC   C3910789   4.308   1.511   4.598
  216DPPC   C4010790   4.216   1.398   4.644
  216DPPC   C4110791   4.114   1.355   4.538
  216DPPC   C4210792   4.003   1.460   4.526
  216DPPC   C4310793   3.897   1.406   4.429
  216DPPC   C4410794   3.945   1.380   4.286
  216DPPC   C4510795   3.832   1.418   4.190
  216DPPC   C4610796   3.856   1.375   4.045
  216DPPC   C4710797   3.757   1.435   3.945
  216DPPC   C4810798   3.774   1.352   3.817
  216DPPC   C4910799   3.686   1.404   3.703
  216DPPC   C5010800   3.695   1.314   3.579
  217DPPC    C110801   5.499   6.888   5.523
  217DPPC    C210802   5.518   7.057   5.365
  217DPPC    C310803   5.380   6.875   5.320
  217DPPC    N410804   5.420   6.967   5.428
  217DPPC    C510805   5.298   7.020   5.492
  217DPPC    C610806   5.310   7.161   5.550
  217DPPC    O710807   5.188   7.235   5.544
  217DPPC    P810808   5.204   7.373   5.625
  217DPPC    O910809   5.326   7.387   5.707
  217DPPC   O1010810   5.083   7.443   5.674
  217DPPC   O1110811   5.254   7.451   5.493
  217DPPC   C1210812   5.149   7.469   5.398
  217DPPC   C1310813   5.189   7.527   5.262
  217DPPC   O1410814   5.096   7.622   5.207
  217DPPC   C1510815   5.124   7.707   5.105
  217DPPC   O1610816   5.238   7.747   5.083
  217DPPC   C1710817   5.004   7.766   5.029
  217DPPC   C1810818   5.037   7.787   4.881
  217DPPC   C1910819   5.084   7.930   4.852
  217DPPC   C2010820   5.070   7.967   4.705
  217DPPC   C2110821   5.139   7.874   4.605
  217DPPC   C2210822   5.121   7.920   4.460
  217DPPC   C2310823   5.198   7.821   4.372
  217DPPC   C2410824   5.176   7.871   4.229
  217DPPC   C2510825   5.026   7.856   4.202
  217DPPC   C2610826   5.010   7.880   4.051
  217DPPC   C2710827   4.866   7.904   4.007
  217DPPC   C2810828   4.861   7.990   3.881
  217DPPC   C2910829   4.916   7.909   3.764
  217DPPC   C3010830   4.941   8.008   3.650
  217DPPC   C3110831   5.014   7.934   3.537
  217DPPC   C3210832   5.232   7.409   5.174
  217DPPC   O3310833   5.122   7.317   5.174
  217DPPC   C3410834   5.163   7.197   5.123
  217DPPC   O3510835   5.278   7.168   5.092
  217DPPC   C3610836   5.049   7.096   5.113
  217DPPC   C3710837   4.948   7.134   5.005
  217DPPC   C3810838   5.010   7.106   4.867
  217DPPC   C3910839   4.902   7.046   4.777
  217DPPC   C4010840   4.892   7.097   4.633
  217DPPC   C4110841   4.769   7.043   4.559
  217DPPC   C4210842   4.788   7.066   4.409
  217DPPC   C4310843   4.917   7.014   4.345
  217DPPC   C4410844   4.897   7.063   4.201
  217DPPC   C4510845   5.020   7.029   4.116
  217DPPC   C4610846   4.989   7.051   3.968
  217DPPC   C4710847   5.114   7.027   3.883
  217DPPC   C4810848   5.195   7.140   3.949
  217DPPC   C4910849   5.316   7.173   3.861
  217DPPC   C5010850   5.421   7.269   3.916
  218DPPC    C110851   1.997   4.302   5.854
  218DPPC    C210852   2.178   4.413   5.773
  218DPPC    C310853   2.201   4.277   5.971
  218DPPC    N410854   2.142   4.285   5.836
  218DPPC    C510855   2.159   4.172   5.744
  218DPPC    C610856   2.299   4.150   5.686
  218DPPC    O710857   2.309   4.043   5.592
  218DPPC    P810858   2.458   4.033   5.533
  218DPPC    O910859   2.483   3.888   5.517
  218DPPC   O1010860   2.559   4.109   5.610
  218DPPC   O1110861   2.427   4.073   5.380
  218DPPC   C1210862   2.380   3.964   5.300
  218DPPC   C1310863   2.227   3.971   5.290
  218DPPC   O1410864   2.185   3.853   5.221
  218DPPC   C1510865   2.055   3.814   5.231
  218DPPC   O1610866   1.980   3.873   5.309
  218DPPC   C1710867   2.006   3.699   5.142
  218DPPC   C1810868   1.936   3.755   5.019
  218DPPC   C1910869   1.890   3.636   4.934
  218DPPC   C2010870   1.834   3.673   4.796
  218DPPC   C2110871   1.849   3.554   4.700
  218DPPC   C2210872   1.802   3.603   4.563
  218DPPC   C2310873   1.747   3.485   4.482
  218DPPC   C2410874   1.723   3.529   4.337
  218DPPC   C2510875   1.638   3.430   4.258
  218DPPC   C2610876   1.622   3.485   4.116
  218DPPC   C2710877   1.560   3.380   4.024
  218DPPC   C2810878   1.528   3.441   3.888
  218DPPC   C2910879   1.650   3.513   3.830
  218DPPC   C3010880   1.636   3.541   3.680
  218DPPC   C3110881   1.763   3.613   3.634
  218DPPC   C3210882   2.199   4.105   5.221
  218DPPC   O3310883   2.271   4.118   5.098
  218DPPC   C3410884   2.254   4.236   5.032
  218DPPC   O3510885   2.149   4.298   5.035
  218DPPC   C3610886   2.338   4.245   4.904
  218DPPC   C3710887   2.247   4.269   4.784
  218DPPC   C3810888   2.321   4.254   4.651
  218DPPC   C3910889   2.440   4.347   4.623
  218DPPC   C4010890   2.481   4.327   4.477
  218DPPC   C4110891   2.594   4.424   4.442
  218DPPC   C4210892   2.605   4.456   4.293
  218DPPC   C4310893   2.737   4.531   4.272
  218DPPC   C4410894   2.738   4.657   4.360
  218DPPC   C4510895   2.878   4.717   4.342
  218DPPC   C4610896   2.891   4.851   4.416
  218DPPC   C4710897   3.036   4.900   4.413
  218DPPC   C4810898   3.092   4.905   4.270
  218DPPC   C4910899   3.242   4.936   4.277
  218DPPC   C5010900   3.306   4.921   4.138
  219DPPC    C110901   8.930   6.814   5.074
  219DPPC    C210902   9.108   6.920   4.988
  219DPPC    C310903   9.140   6.809   5.193
  219DPPC    N410904   9.075   6.797   5.062
  219DPPC    C510905   9.119   6.698   4.962
  219DPPC    C610906   9.047   6.572   4.912
  219DPPC    O710907   9.134   6.494   4.829
  219DPPC    P810908   9.036   6.374   4.788
  219DPPC    O910909   8.924   6.443   4.720
  219DPPC   O1010910   9.005   6.291   4.907
  219DPPC   O1110911   9.121   6.272   4.697
  219DPPC   C1210912   9.129   6.344   4.574
  219DPPC   C1310913   9.215   6.286   4.461
  219DPPC   O1410914   9.203   6.359   4.338
  219DPPC   C1510915   9.296   6.347   4.239
  219DPPC   O1610916   9.397   6.282   4.266
  219DPPC   C1710917   9.287   6.432   4.112
  219DPPC   C1810918   9.357   6.374   3.989
  219DPPC   C1910919   9.379   6.483   3.885
  219DPPC   C2010920   9.502   6.458   3.797
  219DPPC   C2110921   9.483   6.325   3.724
  219DPPC   C2210922   9.626   6.270   3.721
  219DPPC   C2310923   9.629   6.124   3.677
  219DPPC   C2410924   9.775   6.092   3.648
  219DPPC   C2510925   9.770   5.951   3.588
  219DPPC   C2610926   9.680   5.864   3.675
  219DPPC   C2710927   9.619   5.746   3.598
  219DPPC   C2810928   9.538   5.807   3.484
  219DPPC   C2910929   9.418   5.890   3.529
  219DPPC   C3010930   9.400   5.998   3.422
  219DPPC   C3110931   9.266   6.070   3.446
  219DPPC   C3210932   9.185   6.137   4.443
  219DPPC   O3310933   9.051   6.092   4.426
  219DPPC   C3410934   9.040   5.957   4.426
  219DPPC   O3510935   9.127   5.895   4.489
  219DPPC   C3610936   8.918   5.890   4.364
  219DPPC   C3710937   8.893   5.758   4.438
  219DPPC   C3810938   8.756   5.708   4.392
  219DPPC   C3910939   8.755   5.668   4.245
  219DPPC   C4010940   8.624   5.610   4.191
  219DPPC   C4110941   8.623   5.589   4.040
  219DPPC   C4210942   8.489   5.523   4.005
  219DPPC   C4310943   8.482   5.486   3.857
  219DPPC   C4410944   8.512   5.609   3.771
  219DPPC   C4510945   8.529   5.573   3.624
  219DPPC   C4610946   8.395   5.521   3.572
  219DPPC   C4710947   8.398   5.541   3.420
  219DPPC   C4810948   8.265   5.527   3.346
  219DPPC   C4910949   8.290   5.494   3.199
  219DPPC   C5010950   8.152   5.480   3.133
  220DPPC    C110951   4.559   6.735   5.309
  220DPPC    C210952   4.400   6.572   5.320
  220DPPC    C310953   4.412   6.716   5.136
  220DPPC    N410954   4.494   6.633   5.226
  220DPPC    C510955   4.573   6.532   5.153
  220DPPC    C610956   4.684   6.465   5.234
  220DPPC    O710957   4.633   6.373   5.330
  220DPPC    P810958   4.727   6.250   5.375
  220DPPC    O910959   4.654   6.200   5.494
  220DPPC   O1010960   4.864   6.305   5.367
  220DPPC   O1110961   4.678   6.163   5.249
  220DPPC   C1210962   4.785   6.125   5.161
  220DPPC   C1310963   4.746   6.087   5.018
  220DPPC   O1410964   4.863   6.061   4.938
  220DPPC   C1510965   4.902   5.930   4.939
  220DPPC   O1610966   4.854   5.849   5.017
  220DPPC   C1710967   5.029   5.908   4.856
  220DPPC   C1810968   5.014   5.914   4.704
  220DPPC   C1910969   5.140   5.904   4.618
  220DPPC   C2010970   5.210   5.769   4.632
  220DPPC   C2110971   5.321   5.729   4.535
  220DPPC   C2210972   5.265   5.690   4.398
  220DPPC   C2310973   5.387   5.672   4.308
  220DPPC   C2410974   5.497   5.577   4.354
  220DPPC   C2510975   5.597   5.538   4.245
  220DPPC   C2610976   5.549   5.428   4.151
  220DPPC   C2710977   5.661   5.388   4.055
  220DPPC   C2810978   5.600   5.295   3.950
  220DPPC   C2910979   5.708   5.253   3.850
  220DPPC   C3010980   5.671   5.298   3.709
  220DPPC   C3110981   5.799   5.304   3.625
  220DPPC   C3210982   4.669   6.206   4.962
  220DPPC   O3310983   4.616   6.202   4.829
  220DPPC   C3410984   4.551   6.313   4.785
  220DPPC   O3510985   4.548   6.419   4.846
  220DPPC   C3610986   4.478   6.290   4.652
  220DPPC   C3710987   4.584   6.308   4.543
  220DPPC   C3810988   4.639   6.170   4.507
  220DPPC   C3910989   4.739   6.189   4.393
  220DPPC   C4010990   4.706   6.124   4.258
  220DPPC   C4110991   4.565   6.159   4.210
  220DPPC   C4210992   4.538   6.068   4.090
  220DPPC   C4310993   4.648   6.079   3.984
  220DPPC   C4410994   4.615   5.993   3.861
  220DPPC   C4510995   4.742   5.972   3.779
  220DPPC   C4610996   4.814   6.104   3.752
  220DPPC   C4710997   4.736   6.201   3.663
  220DPPC   C4810998   4.816   6.330   3.646
  220DPPC   C4910999   4.749   6.428   3.550
  220DPPC   C5011000   4.832   6.556   3.565
  221DPPC    C111001   0.382   6.243   4.581
  221DPPC    C211002   0.331   6.049   4.462
  221DPPC    C311003   0.464   6.209   4.351
  221DPPC    N411004   0.437   6.149   4.483
  221DPPC    C511005   0.558   6.086   4.537
  221DPPC    C611006   0.683   6.164   4.579
  221DPPC    O711007   0.779   6.110   4.670
  221DPPC    P811008   0.888   6.226   4.695
  221DPPC    O911009   0.973   6.184   4.808
  221DPPC   O1011010   0.815   6.355   4.694
  221DPPC   O1111011   0.960   6.211   4.552
  221DPPC   C1211012   1.080   6.136   4.563
  221DPPC   C1311013   1.150   6.103   4.431
  221DPPC   O1411014   1.246   6.188   4.367
  221DPPC   C1511015   1.371   6.207   4.418
  221DPPC   O1611016   1.412   6.129   4.503
  221DPPC   C1711017   1.454   6.295   4.325
  221DPPC   C1811018   1.399   6.438   4.315
  221DPPC   C1911019   1.295   6.463   4.206
  221DPPC   C2011020   1.349   6.427   4.067
  221DPPC   C2111021   1.243   6.426   3.957
  221DPPC   C2211022   1.314   6.373   3.833
  221DPPC   C2311023   1.222   6.376   3.711
  221DPPC   C2411024   1.297   6.310   3.594
  221DPPC   C2511025   1.210   6.323   3.468
  221DPPC   C2611026   1.079   6.245   3.482
  221DPPC   C2711027   0.989   6.248   3.359
  221DPPC   C2811028   0.925   6.385   3.332
  221DPPC   C2911029   0.887   6.416   3.187
  221DPPC   C3011030   0.988   6.514   3.128
  221DPPC   C3111031   0.991   6.630   3.228
  221DPPC   C3211032   1.034   6.070   4.337
  221DPPC   O3311033   0.996   5.934   4.364
  221DPPC   C3411034   0.877   5.914   4.302
  221DPPC   O3511035   0.800   6.007   4.277
  221DPPC   C3611036   0.826   5.772   4.322
  221DPPC   C3711037   0.799   5.705   4.187
  221DPPC   C3811038   0.726   5.571   4.202
  221DPPC   C3911039   0.730   5.462   4.096
  221DPPC   C4011040   0.658   5.507   3.968
  221DPPC   C4111041   0.709   5.407   3.864
  221DPPC   C4211042   0.651   5.448   3.729
  221DPPC   C4311043   0.498   5.436   3.722
  221DPPC   C4411044   0.438   5.434   3.581
  221DPPC   C4511045   0.290   5.394   3.579
  221DPPC   C4611046   0.226   5.437   3.446
  221DPPC   C4711047   0.093   5.366   3.422
  221DPPC   C4811048   0.035   5.397   3.283
  221DPPC   C4911049  -0.095   5.319   3.260
  221DPPC   C5011050  -0.073   5.169   3.279
  222DPPC    C111051   5.846   4.117   6.429
  222DPPC    C211052   5.664   3.986   6.438
  222DPPC    C311053   5.705   4.105   6.231
  222DPPC    N411054   5.767   4.029   6.342
  222DPPC    C511055   5.871   3.941   6.289
  222DPPC    C611056   5.852   3.793   6.254
  222DPPC    O711057   5.735   3.768   6.176
  222DPPC    P811058   5.708   3.609   6.184
  222DPPC    O911059   5.561   3.603   6.201
  222DPPC   O1011060   5.799   3.538   6.276
  222DPPC   O1111061   5.765   3.577   6.037
  222DPPC   C1211062   5.673   3.626   5.939
  222DPPC   C1311063   5.711   3.623   5.791
  222DPPC   O1411064   5.596   3.638   5.705
  222DPPC   C1511065   5.560   3.753   5.641
  222DPPC   O1611066   5.624   3.854   5.669
  222DPPC   C1711067   5.485   3.724   5.511
  222DPPC   C1811068   5.503   3.815   5.389
  222DPPC   C1911069   5.639   3.825   5.320
  222DPPC   C2011070   5.624   3.931   5.212
  222DPPC   C2111071   5.513   3.898   5.112
  222DPPC   C2211072   5.551   3.966   4.980
  222DPPC   C2311073   5.441   3.965   4.874
  222DPPC   C2411074   5.483   4.058   4.760
  222DPPC   C2511075   5.373   4.073   4.656
  222DPPC   C2611076   5.303   4.209   4.659
  222DPPC   C2711077   5.230   4.230   4.526
  222DPPC   C2811078   5.158   4.365   4.529
  222DPPC   C2911079   5.084   4.369   4.663
  222DPPC   C3011080   5.011   4.498   4.699
  222DPPC   C3111081   5.013   4.497   4.852
  222DPPC   C3211082   5.792   3.494   5.773
  222DPPC   O3311083   5.887   3.498   5.666
  222DPPC   C3411084   5.929   3.382   5.610
  222DPPC   O3511085   5.875   3.273   5.623
  222DPPC   C3611086   6.046   3.398   5.511
  222DPPC   C3711087   5.994   3.396   5.368
  222DPPC   C3811088   5.878   3.485   5.324
  222DPPC   C3911089   5.852   3.459   5.175
  222DPPC   C4011090   5.753   3.553   5.107
  222DPPC   C4111091   5.760   3.534   4.956
  222DPPC   C4211092   5.668   3.630   4.880
  222DPPC   C4311093   5.674   3.607   4.729
  222DPPC   C4411094   5.583   3.716   4.672
  222DPPC   C4511095   5.582   3.707   4.520
  222DPPC   C4611096   5.481   3.794   4.445
  222DPPC   C4711097   5.516   3.798   4.296
  222DPPC   C4811098   5.423   3.888   4.214
  222DPPC   C4911099   5.271   3.871   4.226
  222DPPC   C5011100   5.197   3.933   4.108
  223DPPC    C111101   3.440   7.435   5.914
  223DPPC    C211102   3.522   7.213   5.935
  223DPPC    C311103   3.293   7.252   5.881
  223DPPC    N411104   3.431   7.299   5.859
  223DPPC    C511105   3.492   7.293   5.725
  223DPPC    C611106   3.437   7.385   5.615
  223DPPC    O711107   3.479   7.350   5.483
  223DPPC    P811108   3.396   7.432   5.373
  223DPPC    O911109   3.474   7.554   5.345
  223DPPC   O1011110   3.260   7.430   5.430
  223DPPC   O1111111   3.421   7.312   5.268
  223DPPC   C1211112   3.541   7.338   5.195
  223DPPC   C1311113   3.605   7.219   5.122
  223DPPC   O1411114   3.713   7.271   5.044
  223DPPC   C1511115   3.828   7.198   5.043
  223DPPC   O1611116   3.835   7.095   5.109
  223DPPC   C1711117   3.947   7.248   4.961
  223DPPC   C1811118   3.902   7.308   4.828
  223DPPC   C1911119   3.844   7.201   4.735
  223DPPC   C2011120   3.819   7.253   4.593
  223DPPC   C2111121   3.780   7.156   4.482
  223DPPC   C2211122   3.909   7.107   4.416
  223DPPC   C2311123   3.894   7.020   4.291
  223DPPC   C2411124   3.862   7.115   4.175
  223DPPC   C2511125   3.877   7.048   4.039
  223DPPC   C2611126   4.022   7.031   3.991
  223DPPC   C2711127   4.022   6.974   3.849
  223DPPC   C2811128   3.974   6.828   3.849
  223DPPC   C2911129   4.016   6.757   3.720
  223DPPC   C3011130   3.943   6.623   3.711
  223DPPC   C3111131   3.991   6.553   3.583
  223DPPC   C3211132   3.490   7.149   5.049
  223DPPC   O3311133   3.416   7.215   4.946
  223DPPC   C3411134   3.314   7.146   4.887
  223DPPC   O3511135   3.281   7.040   4.940
  223DPPC   C3611136   3.250   7.201   4.759
  223DPPC   C3711137   3.348   7.206   4.642
  223DPPC   C3811138   3.284   7.237   4.506
  223DPPC   C3911139   3.387   7.267   4.398
  223DPPC   C4011140   3.339   7.296   4.255
  223DPPC   C4111141   3.461   7.327   4.168
  223DPPC   C4211142   3.416   7.391   4.036
  223DPPC   C4311143   3.544   7.409   3.954
  223DPPC   C4411144   3.505   7.446   3.811
  223DPPC   C4511145   3.622   7.472   3.716
  223DPPC   C4611146   3.573   7.489   3.572
  223DPPC   C4711147   3.691   7.530   3.484
  223DPPC   C4811148   3.646   7.544   3.339
  223DPPC   C4911149   3.769   7.517   3.251
  223DPPC   C5011150   3.735   7.542   3.104
  224DPPC    C111151   3.544   3.481   6.100
  224DPPC    C211152   3.327   3.396   6.027
  224DPPC    C311153   3.342   3.609   6.113
  224DPPC    N411154   3.417   3.512   6.032
  224DPPC    C511155   3.437   3.581   5.904
  224DPPC    C611156   3.543   3.528   5.807
  224DPPC    O711157   3.530   3.392   5.767
  224DPPC    P811158   3.671   3.330   5.719
  224DPPC    O911159   3.618   3.192   5.722
  224DPPC   O1011160   3.769   3.386   5.814
  224DPPC   O1111161   3.669   3.397   5.573
  224DPPC   C1211162   3.657   3.290   5.479
  224DPPC   C1311163   3.656   3.330   5.331
  224DPPC   O1411164   3.648   3.220   5.240
  224DPPC   C1511165   3.740   3.120   5.232
  224DPPC   O1611166   3.838   3.122   5.306
  224DPPC   C1711167   3.748   3.047   5.098
  224DPPC   C1811168   3.732   3.146   4.983
  224DPPC   C1911169   3.735   3.069   4.850
  224DPPC   C2011170   3.729   3.163   4.729
  224DPPC   C2111171   3.732   3.109   4.586
  224DPPC   C2211172   3.616   3.016   4.548
  224DPPC   C2311173   3.637   2.970   4.404
  224DPPC   C2411174   3.523   2.886   4.347
  224DPPC   C2511175   3.541   2.871   4.196
  224DPPC   C2611176   3.668   2.792   4.164
  224DPPC   C2711177   3.656   2.712   4.034
  224DPPC   C2811178   3.631   2.796   3.908
  224DPPC   C2911179   3.648   2.718   3.778
  224DPPC   C3011180   3.631   2.806   3.654
  224DPPC   C3111181   3.647   2.727   3.524
  224DPPC   C3211182   3.784   3.413   5.319
  224DPPC   O3311183   3.770   3.514   5.219
  224DPPC   C3411184   3.886   3.578   5.187
  224DPPC   O3511185   3.988   3.570   5.255
  224DPPC   C3611186   3.876   3.667   5.063
  224DPPC   C3711187   3.793   3.613   4.945
  224DPPC   C3811188   3.807   3.713   4.830
  224DPPC   C3911189   3.740   3.661   4.702
  224DPPC   C4011190   3.749   3.760   4.586
  224DPPC   C4111191   3.705   3.693   4.455
  224DPPC   C4211192   3.751   3.759   4.325
  224DPPC   C4311193   3.672   3.699   4.209
  224DPPC   C4411194   3.703   3.780   4.083
  224DPPC   C4511195   3.648   3.704   3.962
  224DPPC   C4611196   3.635   3.800   3.844
  224DPPC   C4711197   3.635   3.721   3.713
  224DPPC   C4811198   3.754   3.626   3.703
  224DPPC   C4911199   3.726   3.548   3.575
  224DPPC   C5011200   3.819   3.430   3.543
  225DPPC    C111201   8.951   3.125   5.348
  225DPPC    C211202   9.139   3.256   5.348
  225DPPC    C311203   9.037   3.189   5.556
  225DPPC    N411204   9.077   3.145   5.422
  225DPPC    C511205   9.161   3.025   5.429
  225DPPC    C611206   9.291   3.029   5.510
  225DPPC    O711207   9.385   3.133   5.481
  225DPPC    P811208   9.511   3.106   5.577
  225DPPC    O911209   9.477   3.003   5.678
  225DPPC   O1011210   9.571   3.239   5.604
  225DPPC   O1111211   9.596   3.029   5.464
  225DPPC   C1211212   9.672   3.119   5.383
  225DPPC   C1311213   9.658   3.097   5.233
  225DPPC   O1411214   9.738   3.196   5.166
  225DPPC   C1511215   9.872   3.187   5.144
  225DPPC   O1611216   9.942   3.154   5.239
  225DPPC   C1711217   9.919   3.293   5.045
  225DPPC   C1811218   9.915   3.228   4.906
  225DPPC   C1911219   9.952   3.330   4.799
  225DPPC   C2011220   9.912   3.274   4.662
  225DPPC   C2111221   9.964   3.358   4.545
  225DPPC   C2211222   9.887   3.314   4.421
  225DPPC   C2311223   9.937   3.376   4.290
  225DPPC   C2411224   9.841   3.341   4.176
  225DPPC   C2511225   9.892   3.390   4.040
  225DPPC   C2611226   9.793   3.370   3.925
  225DPPC   C2711227   9.847   3.426   3.794
  225DPPC   C2811228   9.770   3.364   3.677
  225DPPC   C2911229   9.858   3.375   3.553
  225DPPC   C3011230   9.789   3.316   3.430
  225DPPC   C3111231   9.870   3.347   3.304
  225DPPC   C3211232   9.508   3.099   5.207
  225DPPC   O3311233   9.471   3.000   5.110
  225DPPC   C3411234   9.350   3.013   5.049
  225DPPC   O3511235   9.274   3.102   5.087
  225DPPC   C3611236   9.316   2.896   4.957
  225DPPC   C3711237   9.353   2.942   4.816
  225DPPC   C3811238   9.308   2.817   4.739
  225DPPC   C3911239   9.343   2.831   4.591
  225DPPC   C4011240   9.350   2.695   4.521
  225DPPC   C4111241   9.373   2.708   4.371
  225DPPC   C4211242   9.390   2.570   4.307
  225DPPC   C4311243   9.372   2.595   4.157
  225DPPC   C4411244   9.411   2.470   4.077
  225DPPC   C4511245   9.400   2.490   3.925
  225DPPC   C4611246   9.522   2.573   3.885
  225DPPC   C4711247   9.516   2.606   3.735
  225DPPC   C4811248   9.521   2.481   3.647
  225DPPC   C4911249   9.541   2.506   3.497
  225DPPC   C5011250   9.673   2.583   3.483
  226DPPC    C111251   3.823   7.963   5.610
  226DPPC    C211252   3.794   8.193   5.587
  226DPPC    C311253   4.011   8.119   5.569
  226DPPC    N411254   3.873   8.080   5.537
  226DPPC    C511255   3.839   8.061   5.395
  226DPPC    C611256   3.922   7.966   5.307
  226DPPC    O711257   4.029   8.035   5.242
  226DPPC    P811258   4.118   7.921   5.172
  226DPPC    O911259   4.011   7.866   5.087
  226DPPC   O1011260   4.163   7.852   5.296
  226DPPC   O1111261   4.204   8.048   5.125
  226DPPC   C1211262   4.163   8.114   5.005
  226DPPC   C1311263   4.263   8.128   4.890
  226DPPC   O1411264   4.218   8.202   4.775
  226DPPC   C1511265   4.241   8.336   4.766
  226DPPC   O1611266   4.275   8.397   4.867
  226DPPC   C1711267   4.194   8.402   4.637
  226DPPC   C1811268   4.303   8.471   4.554
  226DPPC   C1911269   4.431   8.389   4.532
  226DPPC   C2011270   4.521   8.431   4.416
  226DPPC   C2111271   4.660   8.367   4.428
  226DPPC   C2211272   4.734   8.383   4.295
  226DPPC   C2311273   4.876   8.329   4.308
  226DPPC   C2411274   4.936   8.318   4.168
  226DPPC   C2511275   5.081   8.271   4.161
  226DPPC   C2611276   5.141   8.272   4.020
  226DPPC   C2711277   5.280   8.210   4.030
  226DPPC   C2811278   5.358   8.235   3.902
  226DPPC   C2911279   5.285   8.168   3.785
  226DPPC   C3011280   5.385   8.146   3.672
  226DPPC   C3111281   5.494   8.049   3.716
  226DPPC   C3211282   4.326   7.992   4.861
  226DPPC   O3311283   4.229   7.888   4.850
  226DPPC   C3411284   4.282   7.763   4.851
  226DPPC   O3511285   4.400   7.738   4.873
  226DPPC   C3611286   4.186   7.646   4.825
  226DPPC   C3711287   4.156   7.620   4.677
  226DPPC   C3811288   4.267   7.554   4.596
  226DPPC   C3911289   4.215   7.428   4.527
  226DPPC   C4011290   4.335   7.385   4.443
  226DPPC   C4111291   4.300   7.294   4.325
  226DPPC   C4211292   4.422   7.274   4.236
  226DPPC   C4311293   4.377   7.207   4.106
  226DPPC   C4411294   4.496   7.201   4.011
  226DPPC   C4511295   4.441   7.164   3.873
  226DPPC   C4611296   4.554   7.100   3.793
  226DPPC   C4711297   4.512   7.053   3.653
  226DPPC   C4811298   4.636   6.996   3.584
  226DPPC   C4911299   4.611   6.957   3.439
  226DPPC   C5011300   4.741   6.925   3.363
  227DPPC    C111301   4.694   4.141   1.569
  227DPPC    C211302   4.750   4.356   1.523
  227DPPC    C311303   4.521   4.304   1.507
  227DPPC    N411304   4.642   4.277   1.585
  227DPPC    C511305   4.624   4.320   1.725
  227DPPC    C611306   4.607   4.470   1.751
  227DPPC    O711307   4.580   4.498   1.888
  227DPPC    P811308   4.639   4.640   1.936
  227DPPC    O911309   4.567   4.682   2.058
  227DPPC   O1011310   4.654   4.725   1.815
  227DPPC   O1111311   4.791   4.602   1.974
  227DPPC   C1211312   4.796   4.592   2.116
  227DPPC   C1311313   4.932   4.535   2.155
  227DPPC   O1411314   4.941   4.460   2.276
  227DPPC   C1511315   4.874   4.342   2.290
  227DPPC   O1611316   4.815   4.298   2.192
  227DPPC   C1711317   4.866   4.278   2.429
  227DPPC   C1811318   4.982   4.184   2.463
  227DPPC   C1911319   4.982   4.161   2.615
  227DPPC   C2011320   5.086   4.065   2.672
  227DPPC   C2111321   5.059   4.039   2.820
  227DPPC   C2211322   5.167   3.960   2.894
  227DPPC   C2311323   5.139   3.912   3.036
  227DPPC   C2411324   5.276   3.919   3.103
  227DPPC   C2511325   5.227   3.866   3.238
  227DPPC   C2611326   5.336   3.846   3.344
  227DPPC   C2711327   5.268   3.825   3.479
  227DPPC   C2811328   5.366   3.814   3.597
  227DPPC   C2911329   5.304   3.766   3.728
  227DPPC   C3011330   5.254   3.623   3.709
  227DPPC   C3111331   5.204   3.583   3.848
  227DPPC   C3211332   5.035   4.646   2.132
  227DPPC   O3311333   5.025   4.741   2.239
  227DPPC   C3411334   5.135   4.820   2.252
  227DPPC   O3511335   5.208   4.838   2.155
  227DPPC   C3611336   5.151   4.914   2.372
  227DPPC   C3711337   5.275   4.873   2.451
  227DPPC   C3811338   5.310   4.961   2.572
  227DPPC   C3911339   5.230   4.932   2.699
  227DPPC   C4011340   5.271   5.024   2.814
  227DPPC   C4111341   5.212   5.001   2.953
  227DPPC   C4211342   5.308   5.062   3.055
  227DPPC   C4311343   5.232   5.059   3.188
  227DPPC   C4411344   5.300   5.122   3.310
  227DPPC   C4511345   5.236   5.064   3.437
  227DPPC   C4611346   5.334   5.097   3.550
  227DPPC   C4711347   5.298   5.009   3.670
  227DPPC   C4811348   5.404   5.036   3.778
  227DPPC   C4911349   5.357   4.942   3.888
  227DPPC   C5011350   5.440   4.953   4.016
  228DPPC    C111351   5.525   2.760   2.097
  228DPPC    C211352   5.687   2.683   1.927
  228DPPC    C311353   5.491   2.577   1.943
  228DPPC    N411354   5.547   2.712   1.960
  228DPPC    C511355   5.470   2.787   1.860
  228DPPC    C611356   5.475   2.940   1.861
  228DPPC    O711357   5.599   2.984   1.806
  228DPPC    P811358   5.587   3.140   1.770
  228DPPC    O911359   5.451   3.161   1.717
  228DPPC   O1011360   5.706   3.174   1.688
  228DPPC   O1111361   5.588   3.213   1.913
  228DPPC   C1211362   5.713   3.183   1.975
  228DPPC   C1311363   5.719   3.201   2.127
  228DPPC   O1411364   5.648   3.100   2.199
  228DPPC   C1511365   5.666   3.106   2.334
  228DPPC   O1611366   5.764   3.153   2.391
  228DPPC   C1711367   5.572   3.010   2.408
  228DPPC   C1811368   5.521   3.084   2.532
  228DPPC   C1911369   5.440   2.987   2.617
  228DPPC   C2011370   5.388   3.072   2.732
  228DPPC   C2111371   5.301   2.992   2.830
  228DPPC   C2211372   5.257   3.101   2.928
  228DPPC   C2311373   5.194   3.044   3.056
  228DPPC   C2411374   5.061   2.979   3.016
  228DPPC   C2511375   4.968   2.960   3.136
  228DPPC   C2611376   4.854   2.861   3.109
  228DPPC   C2711377   4.817   2.780   3.234
  228DPPC   C2811378   4.935   2.696   3.283
  228DPPC   C2911379   4.883   2.629   3.410
  228DPPC   C3011380   4.993   2.531   3.453
  228DPPC   C3111381   4.944   2.427   3.554
  228DPPC   C3211382   5.678   3.344   2.162
  228DPPC   O3311383   5.783   3.441   2.164
  228DPPC   C3411384   5.742   3.568   2.191
  228DPPC   O3511385   5.629   3.602   2.155
  228DPPC   C3611386   5.859   3.654   2.238
  228DPPC   C3711387   5.837   3.746   2.358
  228DPPC   C3811388   5.860   3.675   2.492
  228DPPC   C3911389   5.854   3.788   2.595
  228DPPC   C4011390   5.852   3.728   2.735
  228DPPC   C4111391   5.847   3.845   2.833
  228DPPC   C4211392   5.844   3.765   2.964
  228DPPC   C4311393   5.825   3.863   3.080
  228DPPC   C4411394   5.805   3.781   3.207
  228DPPC   C4511395   5.756   3.881   3.313
  228DPPC   C4611396   5.790   3.843   3.457
  228DPPC   C4711397   5.925   3.906   3.490
  228DPPC   C4811398   6.046   3.834   3.429
  228DPPC   C4911399   6.166   3.915   3.479
  228DPPC   C5011400   6.295   3.867   3.413
  229DPPC    C111401   3.275   3.956   2.163
  229DPPC    C211402   3.507   3.997   2.152
  229DPPC    C311403   3.414   3.872   2.341
  229DPPC    N411404   3.406   3.900   2.196
  229DPPC    C511405   3.432   3.773   2.127
  229DPPC    C611406   3.331   3.660   2.151
  229DPPC    O711407   3.388   3.533   2.116
  229DPPC    P811408   3.301   3.402   2.149
  229DPPC    O911409   3.387   3.304   2.078
  229DPPC   O1011410   3.162   3.433   2.108
  229DPPC   O1111411   3.333   3.412   2.307
  229DPPC   C1211412   3.355   3.282   2.362
  229DPPC   C1311413   3.384   3.278   2.512
  229DPPC   O1411414   3.266   3.251   2.589
  229DPPC   C1511415   3.236   3.121   2.618
  229DPPC   O1611416   3.294   3.030   2.559
  229DPPC   C1711417   3.122   3.090   2.715
  229DPPC   C1811418   3.174   2.990   2.819
  229DPPC   C1911419   3.075   2.966   2.933
  229DPPC   C2011420   3.131   2.868   3.036
  229DPPC   C2111421   3.071   2.891   3.175
  229DPPC   C2211422   3.025   2.758   3.236
  229DPPC   C2311423   2.956   2.786   3.369
  229DPPC   C2411424   2.880   2.661   3.413
  229DPPC   C2511425   2.845   2.654   3.562
  229DPPC   C2611426   2.761   2.530   3.591
  229DPPC   C2711427   2.766   2.477   3.734
  229DPPC   C2811428   2.745   2.594   3.831
  229DPPC   C2911429   2.749   2.534   3.972
  229DPPC   C3011430   2.801   2.609   4.094
  229DPPC   C3111431   2.805   2.511   4.212
  229DPPC   C3211432   3.453   3.405   2.561
  229DPPC   O3311433   3.575   3.437   2.492
  229DPPC   C3411434   3.630   3.559   2.512
  229DPPC   O3511435   3.571   3.660   2.550
  229DPPC   C3611436   3.771   3.565   2.451
  229DPPC   C3711437   3.889   3.540   2.545
  229DPPC   C3811438   3.866   3.618   2.675
  229DPPC   C3911439   3.994   3.607   2.759
  229DPPC   C4011440   3.984   3.693   2.885
  229DPPC   C4111441   4.109   3.671   2.971
  229DPPC   C4211442   4.073   3.719   3.112
  229DPPC   C4311443   4.188   3.751   3.208
  229DPPC   C4411444   4.125   3.786   3.343
  229DPPC   C4511445   4.233   3.818   3.446
  229DPPC   C4611446   4.180   3.844   3.587
  229DPPC   C4711447   4.128   3.988   3.597
  229DPPC   C4811448   4.089   4.019   3.741
  229DPPC   C4911449   4.073   4.170   3.756
  229DPPC   C5011450   4.025   4.195   3.899
  230DPPC    C111451   5.529   1.120   2.308
  230DPPC    C211452   5.368   1.108   2.493
  230DPPC    C311453   5.350   1.265   2.312
  230DPPC    N411454   5.388   1.128   2.348
  230DPPC    C511455   5.316   1.016   2.286
  230DPPC    C611456   5.339   0.966   2.143
  230DPPC    O711457   5.228   0.911   2.073
  230DPPC    P811458   5.263   0.764   2.019
  230DPPC    O911459   5.391   0.781   1.948
  230DPPC   O1011460   5.150   0.715   1.936
  230DPPC   O1111461   5.278   0.699   2.165
  230DPPC   C1211462   5.148   0.652   2.203
  230DPPC   C1311463   5.111   0.667   2.351
  230DPPC   O1411464   5.070   0.796   2.397
  230DPPC   C1511465   4.945   0.845   2.372
  230DPPC   O1611466   4.871   0.806   2.282
  230DPPC   C1711467   4.890   0.954   2.464
  230DPPC   C1811468   4.875   0.898   2.606
  230DPPC   C1911469   4.833   1.018   2.690
  230DPPC   C2011470   4.833   0.978   2.838
  230DPPC   C2111471   4.797   1.105   2.916
  230DPPC   C2211472   4.647   1.135   2.921
  230DPPC   C2311473   4.638   1.247   3.025
  230DPPC   C2411474   4.739   1.357   2.992
  230DPPC   C2511475   4.718   1.464   3.099
  230DPPC   C2611476   4.765   1.407   3.234
  230DPPC   C2711477   4.747   1.491   3.360
  230DPPC   C2811478   4.780   1.393   3.473
  230DPPC   C2911479   4.914   1.321   3.462
  230DPPC   C3011480   4.929   1.248   3.595
  230DPPC   C3111481   5.048   1.153   3.608
  230DPPC   C3211482   5.232   0.609   2.425
  230DPPC   O3311483   5.237   0.592   2.566
  230DPPC   C3411484   5.283   0.705   2.625
  230DPPC   O3511485   5.334   0.799   2.564
  230DPPC   C3611486   5.270   0.714   2.777
  230DPPC   C3711487   5.278   0.575   2.840
  230DPPC   C3811488   5.301   0.586   2.991
  230DPPC   C3911489   5.274   0.451   3.056
  230DPPC   C4011490   5.294   0.450   3.208
  230DPPC   C4111491   5.258   0.307   3.251
  230DPPC   C4211492   5.111   0.270   3.237
  230DPPC   C4311493   5.040   0.339   3.354
  230DPPC   C4411494   4.889   0.317   3.353
  230DPPC   C4511495   4.811   0.388   3.465
  230DPPC   C4611496   4.659   0.375   3.458
  230DPPC   C4711497   4.592   0.457   3.569
  230DPPC   C4811498   4.600   0.605   3.534
  230DPPC   C4911499   4.461   0.658   3.497
  230DPPC   C5011500   4.354   0.627   3.602
  231DPPC    C111501   1.072   0.230   1.795
  231DPPC    C211502   1.153   0.410   1.697
  231DPPC    C311503   1.322   0.282   1.810
  231DPPC    N411504   1.197   0.274   1.732
  231DPPC    C511505   1.224   0.199   1.609
  231DPPC    C611506   1.306   0.070   1.606
  231DPPC    O711507   1.240  -0.037   1.675
  231DPPC    P811508   1.346  -0.154   1.708
  231DPPC    O911509   1.441  -0.111   1.813
  231DPPC   O1011510   1.368  -0.235   1.586
  231DPPC   O1111511   1.230  -0.234   1.785
  231DPPC   C1211512   1.219  -0.179   1.917
  231DPPC   C1311513   1.083  -0.201   1.983
  231DPPC   O1411514   1.063  -0.131   2.107
  231DPPC   C1511515   0.962  -0.040   2.111
  231DPPC   O1611516   0.887  -0.027   2.014
  231DPPC   C1711517   0.952   0.054   2.232
  231DPPC   C1811518   0.988   0.198   2.196
  231DPPC   C1911519   0.939   0.301   2.299
  231DPPC   C2011520   0.787   0.318   2.297
  231DPPC   C2111521   0.750   0.435   2.388
  231DPPC   C2211522   0.803   0.418   2.530
  231DPPC   C2311523   0.770   0.537   2.619
  231DPPC   C2411524   0.803   0.498   2.763
  231DPPC   C2511525   0.762   0.621   2.844
  231DPPC   C2611526   0.798   0.607   2.992
  231DPPC   C2711527   0.758   0.729   3.076
  231DPPC   C2811528   0.764   0.691   3.224
  231DPPC   C2911529   0.767   0.819   3.309
  231DPPC   C3011530   0.783   0.789   3.458
  231DPPC   C3111531   0.665   0.710   3.514
  231DPPC   C3211532   1.064  -0.353   1.978
  231DPPC   O3311533   1.185  -0.421   2.012
  231DPPC   C3411534   1.169  -0.554   2.037
  231DPPC   O3511535   1.103  -0.621   1.958
  231DPPC   C3611536   1.274  -0.612   2.132
  231DPPC   C3711537   1.203  -0.649   2.262
  231DPPC   C3811538   1.318  -0.718   2.334
  231DPPC   C3911539   1.290  -0.793   2.465
  231DPPC   C4011540   1.423  -0.850   2.515
  231DPPC   C4111541   1.407  -0.931   2.644
  231DPPC   C4211542   1.548  -0.971   2.687
  231DPPC   C4311543   1.618  -0.839   2.721
  231DPPC   C4411544   1.740  -0.849   2.812
  231DPPC   C4511545   1.804  -0.710   2.815
  231DPPC   C4611546   1.946  -0.723   2.759
  231DPPC   C4711547   2.029  -0.595   2.774
  231DPPC   C4811548   2.163  -0.632   2.838
  231DPPC   C4911549   2.283  -0.571   2.766
  231DPPC   C5011550   2.407  -0.647   2.815
  232DPPC    C111551   7.702   6.907   1.276
  232DPPC    C211552   7.806   7.034   1.457
  232DPPC    C311553   7.583   7.068   1.401
  232DPPC    N411554   7.686   6.963   1.411
  232DPPC    C511555   7.654   6.852   1.502
  232DPPC    C611556   7.765   6.751   1.534
  232DPPC    O711557   7.715   6.632   1.596
  232DPPC    P811558   7.787   6.496   1.548
  232DPPC    O911559   7.833   6.510   1.408
  232DPPC   O1011560   7.698   6.386   1.591
  232DPPC   O1111561   7.910   6.498   1.652
  232DPPC   C1211562   7.869   6.458   1.783
  232DPPC   C1311563   7.950   6.524   1.895
  232DPPC   O1411564   7.953   6.447   2.016
  232DPPC   C1511565   8.061   6.366   2.033
  232DPPC   O1611566   8.152   6.370   1.951
  232DPPC   C1711567   8.066   6.285   2.163
  232DPPC   C1811568   8.194   6.309   2.243
  232DPPC   C1911569   8.184   6.220   2.367
  232DPPC   C2011570   8.291   6.245   2.475
  232DPPC   C2111571   8.258   6.156   2.595
  232DPPC   C2211572   8.358   6.160   2.711
  232DPPC   C2311573   8.308   6.080   2.831
  232DPPC   C2411574   8.395   6.115   2.952
  232DPPC   C2511575   8.546   6.112   2.931
  232DPPC   C2611576   8.615   6.143   3.064
  232DPPC   C2711577   8.614   6.018   3.152
  232DPPC   C2811578   8.677   6.045   3.290
  232DPPC   C2911579   8.605   6.159   3.362
  232DPPC   C3011580   8.654   6.179   3.506
  232DPPC   C3111581   8.574   6.290   3.575
  232DPPC   C3211582   7.900   6.669   1.899
  232DPPC   O3311583   7.760   6.686   1.923
  232DPPC   C3411584   7.719   6.815   1.912
  232DPPC   O3511585   7.783   6.895   1.843
  232DPPC   C3611586   7.581   6.843   1.971
  232DPPC   C3711587   7.589   6.938   2.091
  232DPPC   C3811588   7.621   6.853   2.214
  232DPPC   C3911589   7.630   6.956   2.327
  232DPPC   C4011590   7.495   7.026   2.345
  232DPPC   C4111591   7.500   7.122   2.464
  232DPPC   C4211592   7.550   7.041   2.583
  232DPPC   C4311593   7.556   7.122   2.713
  232DPPC   C4411594   7.602   7.041   2.834
  232DPPC   C4511595   7.729   6.960   2.808
  232DPPC   C4611596   7.731   6.840   2.903
  232DPPC   C4711597   7.875   6.789   2.908
  232DPPC   C4811598   7.893   6.664   2.995
  232DPPC   C4911599   7.786   6.565   2.948
  232DPPC   C5011600   7.781   6.448   3.047
  233DPPC    C111601   0.413   5.384   1.242
  233DPPC    C211602   0.585   5.220   1.245
  233DPPC    C311603   0.621   5.437   1.184
  233DPPC    N411604   0.551   5.357   1.286
  233DPPC    C511605   0.586   5.380   1.427
  233DPPC    C611606   0.572   5.524   1.475
  233DPPC    O711607   0.694   5.579   1.526
  233DPPC    P811608   0.667   5.732   1.567
  233DPPC    O911609   0.578   5.777   1.457
  233DPPC   O1011610   0.792   5.805   1.597
  233DPPC   O1111611   0.577   5.709   1.699
  233DPPC   C1211612   0.532   5.826   1.768
  233DPPC   C1311613   0.412   5.909   1.721
  233DPPC   O1411614   0.394   6.029   1.798
  233DPPC   C1511615   0.458   6.143   1.761
  233DPPC   O1611616   0.538   6.135   1.668
  233DPPC   C1711617   0.452   6.261   1.858
  233DPPC   C1811618   0.587   6.301   1.917
  233DPPC   C1911619   0.555   6.406   2.023
  233DPPC   C2011620   0.686   6.458   2.084
  233DPPC   C2111621   0.763   6.349   2.158
  233DPPC   C2211622   0.890   6.400   2.227
  233DPPC   C2311623   0.956   6.279   2.293
  233DPPC   C2411624   1.102   6.309   2.325
  233DPPC   C2511625   1.162   6.199   2.413
  233DPPC   C2611626   1.160   6.066   2.337
  233DPPC   C2711627   1.257   5.965   2.399
  233DPPC   C2811628   1.249   5.978   2.551
  233DPPC   C2911629   1.353   5.885   2.615
  233DPPC   C3011630   1.331   5.879   2.767
  233DPPC   C3111631   1.407   5.763   2.832
  233DPPC   C3211632   0.293   5.815   1.744
  233DPPC   O3311633   0.307   5.737   1.863
  233DPPC   C3411634   0.198   5.660   1.889
  233DPPC   O3511635   0.107   5.658   1.806
  233DPPC   C3611636   0.193   5.584   2.022
  233DPPC   C3711637   0.125   5.665   2.133
  233DPPC   C3811638   0.194   5.798   2.163
  233DPPC   C3911639   0.120   5.886   2.263
  233DPPC   C4011640   0.205   6.008   2.301
  233DPPC   C4111641   0.340   5.962   2.356
  233DPPC   C4211642   0.431   6.080   2.392
  233DPPC   C4311643   0.563   6.023   2.442
  233DPPC   C4411644   0.661   6.117   2.513
  233DPPC   C4511645   0.759   6.040   2.602
  233DPPC   C4611646   0.810   6.129   2.715
  233DPPC   C4711647   0.934   6.067   2.780
  233DPPC   C4811648   0.990   6.156   2.892
  233DPPC   C4911649   1.081   6.073   2.983
  233DPPC   C5011650   0.986   5.963   3.032
  234DPPC    C111651   8.535   1.903   1.114
  234DPPC    C211652   8.464   1.682   1.163
  234DPPC    C311653   8.674   1.709   1.093
  234DPPC    N411654   8.575   1.777   1.178
  234DPPC    C511655   8.624   1.789   1.316
  234DPPC    C611656   8.733   1.882   1.370
  234DPPC    O711657   8.862   1.866   1.310
  234DPPC    P811658   8.958   1.991   1.341
  234DPPC    O911659   8.861   2.099   1.312
  234DPPC   O1011660   9.076   1.961   1.256
  234DPPC   O1111661   8.979   1.942   1.493
  234DPPC   C1211662   8.933   2.040   1.587
  234DPPC   C1311663   8.904   1.966   1.718
  234DPPC   O1411664   8.880   2.058   1.825
  234DPPC   C1511665   8.780   2.020   1.910
  234DPPC   O1611666   8.671   1.983   1.867
  234DPPC   C1711667   8.791   2.078   2.051
  234DPPC   C1811668   8.938   2.095   2.089
  234DPPC   C1911669   8.966   2.107   2.239
  234DPPC   C2011670   8.922   1.984   2.320
  234DPPC   C2111671   8.952   1.998   2.469
  234DPPC   C2211672   8.894   1.873   2.536
  234DPPC   C2311673   8.886   1.906   2.686
  234DPPC   C2411674   8.774   1.828   2.754
  234DPPC   C2511675   8.771   1.862   2.904
  234DPPC   C2611676   8.648   1.808   2.976
  234DPPC   C2711677   8.643   1.833   3.127
  234DPPC   C2811678   8.516   1.776   3.191
  234DPPC   C2911679   8.521   1.773   3.344
  234DPPC   C3011680   8.385   1.723   3.392
  234DPPC   C3111681   8.382   1.724   3.545
  234DPPC   C3211682   9.035   1.894   1.749
  234DPPC   O3311683   9.040   1.790   1.847
  234DPPC   C3411684   8.982   1.667   1.839
  234DPPC   O3511685   8.961   1.625   1.726
  234DPPC   C3611686   8.988   1.575   1.961
  234DPPC   C3711687   8.877   1.635   2.049
  234DPPC   C3811688   8.877   1.555   2.180
  234DPPC   C3911689   8.753   1.594   2.260
  234DPPC   C4011690   8.735   1.531   2.398
  234DPPC   C4111691   8.589   1.563   2.430
  234DPPC   C4211692   8.545   1.503   2.563
  234DPPC   C4311693   8.412   1.560   2.612
  234DPPC   C4411694   8.383   1.488   2.744
  234DPPC   C4511695   8.279   1.576   2.814
  234DPPC   C4611696   8.253   1.508   2.949
  234DPPC   C4711697   8.375   1.472   3.034
  234DPPC   C4811698   8.342   1.408   3.168
  234DPPC   C4911699   8.465   1.368   3.250
  234DPPC   C5011700   8.425   1.271   3.362
  235DPPC    C111701   2.596   4.070   2.001
  235DPPC    C211702   2.410   4.218   1.979
  235DPPC    C311703   2.500   4.168   2.192
  235DPPC    N411704   2.535   4.194   2.052
  235DPPC    C511705   2.629   4.307   2.057
  235DPPC    C611706   2.677   4.357   1.921
  235DPPC    O711707   2.754   4.476   1.934
  235DPPC    P811708   2.796   4.522   1.785
  235DPPC    O911709   2.772   4.411   1.690
  235DPPC   O1011710   2.929   4.585   1.772
  235DPPC   O1111711   2.677   4.628   1.760
  235DPPC   C1211712   2.700   4.729   1.858
  235DPPC   C1311713   2.583   4.821   1.895
  235DPPC   O1411714   2.628   4.935   1.970
  235DPPC   C1511715   2.541   5.038   1.976
  235DPPC   O1611716   2.448   5.046   1.895
  235DPPC   C1711717   2.557   5.136   2.093
  235DPPC   C1811718   2.589   5.051   2.216
  235DPPC   C1911719   2.475   4.968   2.274
  235DPPC   C2011720   2.539   4.910   2.401
  235DPPC   C2111721   2.448   4.818   2.483
  235DPPC   C2211722   2.508   4.816   2.624
  235DPPC   C2311723   2.471   4.941   2.703
  235DPPC   C2411724   2.545   4.933   2.836
  235DPPC   C2511725   2.530   5.072   2.897
  235DPPC   C2611726   2.382   5.112   2.907
  235DPPC   C2711727   2.355   5.251   2.964
  235DPPC   C2811728   2.384   5.237   3.114
  235DPPC   C2911729   2.357   5.359   3.201
  235DPPC   C3011730   2.369   5.316   3.348
  235DPPC   C3111731   2.309   5.413   3.449
  235DPPC   C3211732   2.470   4.730   1.944
  235DPPC   O3311733   2.473   4.652   2.063
  235DPPC   C3411734   2.359   4.588   2.100
  235DPPC   O3511735   2.282   4.563   2.008
  235DPPC   C3611736   2.365   4.522   2.238
  235DPPC   C3711737   2.233   4.452   2.271
  235DPPC   C3811738   2.241   4.370   2.400
  235DPPC   C3911739   2.289   4.441   2.526
  235DPPC   C4011740   2.275   4.356   2.653
  235DPPC   C4111741   2.322   4.420   2.784
  235DPPC   C4211742   2.228   4.526   2.841
  235DPPC   C4311743   2.308   4.588   2.956
  235DPPC   C4411744   2.202   4.674   3.024
  235DPPC   C4511745   2.252   4.730   3.158
  235DPPC   C4611746   2.186   4.861   3.203
  235DPPC   C4711747   2.248   4.915   3.332
  235DPPC   C4811748   2.233   4.811   3.444
  235DPPC   C4911749   2.295   4.872   3.570
  235DPPC   C5011750   2.441   4.911   3.545
  236DPPC    C111751   0.274   1.152   1.221
  236DPPC    C211752   0.141   1.278   1.063
  236DPPC    C311753   0.039   1.112   1.202
  236DPPC    N411754   0.144   1.216   1.197
  236DPPC    C511755   0.118   1.308   1.308
  236DPPC    C611756   0.184   1.446   1.315
  236DPPC    O711757   0.327   1.440   1.326
  236DPPC    P811758   0.393   1.587   1.323
  236DPPC    O911759   0.315   1.662   1.222
  236DPPC   O1011760   0.539   1.563   1.318
  236DPPC   O1111761   0.332   1.636   1.464
  236DPPC   C1211762   0.401   1.577   1.574
  236DPPC   C1311763   0.378   1.662   1.699
  236DPPC   O1411764   0.475   1.645   1.804
  236DPPC   C1511765   0.509   1.746   1.889
  236DPPC   O1611766   0.484   1.861   1.855
  236DPPC   C1711767   0.622   1.726   1.990
  236DPPC   C1811768   0.592   1.820   2.107
  236DPPC   C1911769   0.700   1.800   2.213
  236DPPC   C2011770   0.678   1.897   2.329
  236DPPC   C2111771   0.568   1.842   2.420
  236DPPC   C2211772   0.578   1.896   2.562
  236DPPC   C2311773   0.481   1.816   2.650
  236DPPC   C2411774   0.339   1.815   2.594
  236DPPC   C2511775   0.244   1.788   2.711
  236DPPC   C2611776   0.292   1.653   2.765
  236DPPC   C2711777   0.207   1.608   2.884
  236DPPC   C2811778   0.194   1.706   3.002
  236DPPC   C2911779   0.087   1.650   3.095
  236DPPC   C3011780   0.086   1.726   3.228
  236DPPC   C3111781  -0.036   1.700   3.317
  236DPPC   C3211782   0.233   1.627   1.732
  236DPPC   O3311783   0.220   1.486   1.750
  236DPPC   C3411784   0.093   1.437   1.743
  236DPPC   O3511785   0.002   1.505   1.694
  236DPPC   C3611786   0.064   1.297   1.796
  236DPPC   C3711787   0.055   1.294   1.949
  236DPPC   C3811788  -0.092   1.317   1.987
  236DPPC   C3911789  -0.128   1.267   2.127
  236DPPC   C4011790  -0.271   1.290   2.176
  236DPPC   C4111791  -0.279   1.247   2.322
  236DPPC   C4211792  -0.259   1.096   2.337
  236DPPC   C4311793  -0.264   1.053   2.484
  236DPPC   C4411794  -0.254   0.902   2.502
  236DPPC   C4511795  -0.253   0.886   2.655
  236DPPC   C4611796  -0.220   0.745   2.703
  236DPPC   C4711797  -0.228   0.734   2.856
  236DPPC   C4811798  -0.101   0.795   2.917
  236DPPC   C4911799  -0.112   0.807   3.069
  236DPPC   C5011800   0.012   0.877   3.125
  237DPPC    C111801   7.367   7.752   1.739
  237DPPC    C211802   7.579   7.640   1.764
  237DPPC    C311803   7.424   7.569   1.617
  237DPPC    N411804   7.482   7.694   1.667
  237DPPC    C511805   7.552   7.764   1.558
  237DPPC    C611806   7.594   7.910   1.578
  237DPPC    O711807   7.485   8.003   1.581
  237DPPC    P811808   7.541   8.152   1.608
  237DPPC    O911809   7.444   8.253   1.562
  237DPPC   O1011810   7.684   8.151   1.572
  237DPPC   O1111811   7.521   8.136   1.767
  237DPPC   C1211812   7.386   8.140   1.814
  237DPPC   C1311813   7.381   8.156   1.967
  237DPPC   O1411814   7.381   8.290   2.017
  237DPPC   C1511815   7.270   8.368   2.002
  237DPPC   O1611816   7.170   8.316   1.952
  237DPPC   C1711817   7.281   8.514   2.046
  237DPPC   C1811818   7.373   8.515   2.168
  237DPPC   C1911819   7.382   8.654   2.232
  237DPPC   C2011820   7.446   8.643   2.370
  237DPPC   C2111821   7.339   8.613   2.475
  237DPPC   C2211822   7.405   8.629   2.612
  237DPPC   C2311823   7.309   8.614   2.730
  237DPPC   C2411824   7.371   8.673   2.856
  237DPPC   C2511825   7.387   8.824   2.837
  237DPPC   C2611826   7.483   8.872   2.946
  237DPPC   C2711827   7.474   8.811   3.087
  237DPPC   C2811828   7.580   8.863   3.184
  237DPPC   C2911829   7.725   8.847   3.137
  237DPPC   C3011830   7.813   8.912   3.244
  237DPPC   C3111831   7.783   9.061   3.256
  237DPPC   C3211832   7.476   8.049   2.021
  237DPPC   O3311833   7.402   7.930   2.045
  237DPPC   C3411834   7.481   7.834   2.100
  237DPPC   O3511835   7.599   7.817   2.068
  237DPPC   C3611836   7.420   7.722   2.184
  237DPPC   C3711837   7.417   7.758   2.333
  237DPPC   C3811838   7.385   7.641   2.427
  237DPPC   C3911839   7.366   7.684   2.572
  237DPPC   C4011840   7.317   7.568   2.660
  237DPPC   C4111841   7.255   7.632   2.784
  237DPPC   C4211842   7.196   7.521   2.871
  237DPPC   C4311843   7.296   7.412   2.911
  237DPPC   C4411844   7.406   7.480   2.993
  237DPPC   C4511845   7.506   7.376   3.045
  237DPPC   C4611846   7.599   7.445   3.145
  237DPPC   C4711847   7.718   7.351   3.168
  237DPPC   C4811848   7.678   7.211   3.215
  237DPPC   C4911849   7.806   7.137   3.177
  237DPPC   C5011850   7.918   7.183   3.271
  238DPPC    C111851   3.267   2.093   2.451
  238DPPC    C211852   3.344   2.151   2.235
  238DPPC    C311853   3.112   2.104   2.262
  238DPPC    N411854   3.230   2.163   2.327
  238DPPC    C511855   3.175   2.297   2.349
  238DPPC    C611856   3.251   2.391   2.442
  238DPPC    O711857   3.351   2.467   2.372
  238DPPC    P811858   3.424   2.573   2.469
  238DPPC    O911859   3.349   2.594   2.595
  238DPPC   O1011860   3.490   2.684   2.397
  238DPPC   O1111861   3.540   2.464   2.496
  238DPPC   C1211862   3.535   2.443   2.638
  238DPPC   C1311863   3.585   2.313   2.700
  238DPPC   O1411864   3.536   2.299   2.834
  238DPPC   C1511865   3.524   2.175   2.889
  238DPPC   O1611866   3.521   2.074   2.818
  238DPPC   C1711867   3.489   2.163   3.037
  238DPPC   C1811868   3.609   2.139   3.129
  238DPPC   C1911869   3.586   2.143   3.280
  238DPPC   C2011870   3.529   2.273   3.336
  238DPPC   C2111871   3.507   2.252   3.486
  238DPPC   C2211872   3.449   2.382   3.543
  238DPPC   C2311873   3.456   2.375   3.696
  238DPPC   C2411874   3.596   2.347   3.753
  238DPPC   C2511875   3.580   2.331   3.904
  238DPPC   C2611876   3.526   2.205   3.972
  238DPPC   C2711877   3.556   2.207   4.122
  238DPPC   C2811878   3.461   2.298   4.200
  238DPPC   C2911879   3.485   2.279   4.349
  238DPPC   C3011880   3.444   2.138   4.390
  238DPPC   C3111881   3.450   2.098   4.538
  238DPPC   C3211882   3.737   2.318   2.685
  238DPPC   O3311883   3.803   2.444   2.700
  238DPPC   C3411884   3.937   2.450   2.682
  238DPPC   O3511885   4.000   2.347   2.658
  238DPPC   C3611886   4.004   2.588   2.684
  238DPPC   C3711887   4.077   2.622   2.814
  238DPPC   C3811888   4.164   2.748   2.804
  238DPPC   C3911889   4.249   2.763   2.930
  238DPPC   C4011890   4.156   2.756   3.051
  238DPPC   C4111891   4.223   2.761   3.189
  238DPPC   C4211892   4.119   2.731   3.297
  238DPPC   C4311893   4.163   2.727   3.443
  238DPPC   C4411894   4.060   2.718   3.557
  238DPPC   C4511895   3.982   2.587   3.552
  238DPPC   C4611896   4.045   2.469   3.627
  238DPPC   C4711897   3.956   2.345   3.614
  238DPPC   C4811898   3.985   2.226   3.705
  238DPPC   C4911899   4.093   2.138   3.642
  238DPPC   C5011900   4.038   2.104   3.503
  239DPPC    C111901   3.297   2.653   2.114
  239DPPC    C211902   3.477   2.750   1.982
  239DPPC    C311903   3.311   2.606   1.887
  239DPPC    N411904   3.334   2.713   1.985
  239DPPC    C511905   3.266   2.838   1.949
  239DPPC    C611906   3.114   2.822   1.934
  239DPPC    O711907   3.046   2.916   1.851
  239DPPC    P811908   2.897   2.862   1.823
  239DPPC    O911909   2.928   2.723   1.785
  239DPPC   O1011910   2.846   2.960   1.724
  239DPPC   O1111911   2.848   2.885   1.975
  239DPPC   C1211912   2.726   2.960   1.978
  239DPPC   C1311913   2.613   2.858   1.990
  239DPPC   O1411914   2.478   2.898   1.962
  239DPPC   C1511915   2.374   2.811   1.962
  239DPPC   O1611916   2.379   2.689   1.949
  239DPPC   C1711917   2.236   2.875   1.982
  239DPPC   C1811918   2.182   2.844   2.122
  239DPPC   C1911919   2.058   2.930   2.146
  239DPPC   C2011920   1.991   2.916   2.282
  239DPPC   C2111921   2.083   2.976   2.389
  239DPPC   C2211922   1.998   2.970   2.516
  239DPPC   C2311923   2.060   3.064   2.620
  239DPPC   C2411924   1.987   3.063   2.754
  239DPPC   C2511925   1.860   3.148   2.752
  239DPPC   C2611926   1.795   3.172   2.889
  239DPPC   C2711927   1.892   3.232   2.991
  239DPPC   C2811928   1.809   3.243   3.119
  239DPPC   C2911929   1.886   3.343   3.206
  239DPPC   C3011930   1.795   3.381   3.322
  239DPPC   C3111931   1.693   3.484   3.271
  239DPPC   C3211932   2.642   2.824   2.136
  239DPPC   O3311933   2.611   2.922   2.235
  239DPPC   C3411934   2.605   2.875   2.363
  239DPPC   O3511935   2.621   2.757   2.392
  239DPPC   C3611936   2.564   2.980   2.467
  239DPPC   C3711937   2.551   2.910   2.603
  239DPPC   C3811938   2.453   2.988   2.690
  239DPPC   C3911939   2.452   2.928   2.831
  239DPPC   C4011940   2.376   3.017   2.930
  239DPPC   C4111941   2.432   2.986   3.069
  239DPPC   C4211942   2.350   3.060   3.174
  239DPPC   C4311943   2.389   3.039   3.320
  239DPPC   C4411944   2.296   3.095   3.429
  239DPPC   C4511945   2.327   3.238   3.473
  239DPPC   C4611946   2.208   3.310   3.536
  239DPPC   C4711947   2.221   3.352   3.683
  239DPPC   C4811948   2.087   3.389   3.746
  239DPPC   C4911949   2.114   3.444   3.886
  239DPPC   C5011950   2.159   3.330   3.977
  240DPPC    C111951   1.260   4.726   1.323
  240DPPC    C211952   1.462   4.740   1.209
  240DPPC    C311953   1.244   4.779   1.101
  240DPPC    N411954   1.330   4.802   1.219
  240DPPC    C511955   1.341   4.947   1.241
  240DPPC    C611956   1.401   4.983   1.377
  240DPPC    O711957   1.306   5.023   1.476
  240DPPC    P811958   1.396   5.050   1.607
  240DPPC    O911959   1.305   5.127   1.695
  240DPPC   O1011960   1.517   5.115   1.551
  240DPPC   O1111961   1.410   4.893   1.638
  240DPPC   C1211962   1.301   4.850   1.720
  240DPPC   C1311963   1.261   4.703   1.732
  240DPPC   O1411964   1.140   4.679   1.805
  240DPPC   C1511965   1.027   4.647   1.737
  240DPPC   O1611966   1.041   4.635   1.615
  240DPPC   C1711967   0.893   4.623   1.807
  240DPPC   C1811968   0.836   4.742   1.884
  240DPPC   C1911969   0.691   4.708   1.919
  240DPPC   C2011970   0.652   4.828   2.005
  240DPPC   C2111971   0.580   4.770   2.127
  240DPPC   C2211972   0.540   4.886   2.218
  240DPPC   C2311973   0.678   4.941   2.256
  240DPPC   C2411974   0.657   5.046   2.366
  240DPPC   C2511975   0.801   5.081   2.407
  240DPPC   C2611976   0.885   5.162   2.308
  240DPPC   C2711977   1.020   5.170   2.380
  240DPPC   C2811978   0.986   5.221   2.520
  240DPPC   C2911979   1.110   5.273   2.594
  240DPPC   C3011980   1.078   5.309   2.739
  240DPPC   C3111981   1.166   5.421   2.795
  240DPPC   C3211982   1.389   4.638   1.784
  240DPPC   O3311983   1.431   4.679   1.915
  240DPPC   C3411984   1.512   4.589   1.975
  240DPPC   O3511985   1.562   4.497   1.910
  240DPPC   C3611986   1.541   4.606   2.125
  240DPPC   C3711987   1.441   4.703   2.189
  240DPPC   C3811988   1.469   4.684   2.338
  240DPPC   C3911989   1.499   4.539   2.376
  240DPPC   C4011990   1.507   4.509   2.526
  240DPPC   C4111991   1.377   4.524   2.606
  240DPPC   C4211992   1.411   4.513   2.755
  240DPPC   C4311993   1.291   4.566   2.833
  240DPPC   C4411994   1.307   4.575   2.985
  240DPPC   C4511995   1.201   4.667   3.046
  240DPPC   C4611996   1.233   4.672   3.195
  240DPPC   C4711997   1.361   4.749   3.230
  240DPPC   C4811998   1.376   4.757   3.382
  240DPPC   C4911999   1.486   4.856   3.416
  240DPPC   C5012000   1.483   4.906   3.561
  241DPPC    C112001   3.034   3.248   1.851
  241DPPC    C212002   3.238   3.288   1.757
  241DPPC    C312003   3.041   3.307   1.625
  241DPPC    N412004   3.100   3.339   1.756
  241DPPC    C512005   3.098   3.484   1.776
  241DPPC    C612006   2.957   3.534   1.807
  241DPPC    O712007   2.960   3.677   1.810
  241DPPC    P812008   2.808   3.714   1.849
  241DPPC    O912009   2.723   3.613   1.784
  241DPPC   O1012010   2.774   3.857   1.830
  241DPPC   O1112011   2.812   3.679   2.006
  241DPPC   C1212012   2.893   3.787   2.053
  241DPPC   C1312013   2.891   3.795   2.206
  241DPPC   O1412014   2.972   3.905   2.249
  241DPPC   C1512015   2.912   4.024   2.277
  241DPPC   O1612016   2.837   4.071   2.192
  241DPPC   C1712017   2.984   4.109   2.381
  241DPPC   C1812018   3.073   4.044   2.488
  241DPPC   C1912019   3.130   4.158   2.572
  241DPPC   C2012020   3.248   4.116   2.659
  241DPPC   C2112021   3.210   4.021   2.773
  241DPPC   C2212022   3.331   4.012   2.867
  241DPPC   C2312023   3.357   3.866   2.904
  241DPPC   C2412024   3.476   3.872   3.000
  241DPPC   C2512025   3.521   3.738   3.059
  241DPPC   C2612026   3.641   3.758   3.151
  241DPPC   C2712027   3.688   3.620   3.198
  241DPPC   C2812028   3.700   3.519   3.084
  241DPPC   C2912029   3.757   3.391   3.146
  241DPPC   C3012030   3.781   3.288   3.035
  241DPPC   C3112031   3.654   3.281   2.950
  241DPPC   C3212032   2.953   3.662   2.250
  241DPPC   O3312033   2.950   3.629   2.389
  241DPPC   C3412034   3.053   3.670   2.467
  241DPPC   O3512035   3.165   3.708   2.432
  241DPPC   C3612036   3.021   3.633   2.612
  241DPPC   C3712037   3.131   3.551   2.679
  241DPPC   C3812038   3.093   3.513   2.822
  241DPPC   C3912039   3.195   3.423   2.892
  241DPPC   C4012040   3.140   3.397   3.032
  241DPPC   C4112041   3.231   3.317   3.126
  241DPPC   C4212042   3.157   3.289   3.256
  241DPPC   C4312043   3.247   3.207   3.349
  241DPPC   C4412044   3.202   3.247   3.489
  241DPPC   C4512045   3.188   3.399   3.499
  241DPPC   C4612046   3.091   3.420   3.615
  241DPPC   C4712047   3.051   3.560   3.663
  241DPPC   C4812048   2.926   3.555   3.751
  241DPPC   C4912049   2.889   3.696   3.798
  241DPPC   C5012050   2.761   3.697   3.881
  242DPPC    C112051   5.222   5.196   1.945
  242DPPC    C212052   5.217   5.179   1.715
  242DPPC    C312053   5.043   5.298   1.821
  242DPPC    N412054   5.187   5.273   1.824
  242DPPC    C512055   5.269   5.394   1.819
  242DPPC    C612056   5.241   5.501   1.925
  242DPPC    O712057   5.336   5.608   1.934
  242DPPC    P812058   5.264   5.752   1.934
  242DPPC    O912059   5.132   5.715   1.989
  242DPPC   O1012060   5.276   5.822   1.805
  242DPPC   O1112061   5.368   5.827   2.032
  242DPPC   C1212062   5.433   5.740   2.125
  242DPPC   C1312063   5.528   5.825   2.210
  242DPPC   O1412064   5.618   5.764   2.304
  242DPPC   C1512065   5.725   5.694   2.257
  242DPPC   O1612066   5.760   5.699   2.140
  242DPPC   C1712067   5.799   5.607   2.359
  242DPPC   C1812068   5.730   5.597   2.495
  242DPPC   C1912069   5.813   5.662   2.607
  242DPPC   C2012070   5.753   5.641   2.746
  242DPPC   C2112071   5.864   5.665   2.848
  242DPPC   C2212072   5.809   5.694   2.988
  242DPPC   C2312073   5.905   5.715   3.106
  242DPPC   C2412074   5.991   5.589   3.122
  242DPPC   C2512075   6.051   5.588   3.263
  242DPPC   C2612076   6.144   5.469   3.283
  242DPPC   C2712077   6.067   5.337   3.283
  242DPPC   C2812078   6.161   5.222   3.322
  242DPPC   C2912079   6.085   5.089   3.327
  242DPPC   C3012080   6.182   4.976   3.364
  242DPPC   C3112081   6.102   4.845   3.371
  242DPPC   C3212082   5.426   5.927   2.261
  242DPPC   O3312083   5.320   5.872   2.340
  242DPPC   C3412084   5.227   5.964   2.378
  242DPPC   O3512085   5.254   6.079   2.342
  242DPPC   C3612086   5.123   5.930   2.485
  242DPPC   C3712087   4.992   5.880   2.424
  242DPPC   C3812088   4.893   5.811   2.518
  242DPPC   C3912089   4.950   5.684   2.582
  242DPPC   C4012090   4.831   5.610   2.643
  242DPPC   C4112091   4.888   5.477   2.694
  242DPPC   C4212092   4.771   5.379   2.699
  242DPPC   C4312093   4.825   5.245   2.749
  242DPPC   C4412094   4.722   5.133   2.760
  242DPPC   C4512095   4.599   5.181   2.838
  242DPPC   C4612096   4.528   5.058   2.893
  242DPPC   C4712097   4.467   4.979   2.776
  242DPPC   C4812098   4.411   4.840   2.808
  242DPPC   C4912099   4.320   4.803   2.690
  242DPPC   C5012100   4.209   4.907   2.674
  243DPPC    C112101   8.242   6.219   1.631
  243DPPC    C212102   8.397   6.140   1.803
  243DPPC    C312103   8.172   6.045   1.759
  243DPPC    N412104   8.295   6.103   1.703
  243DPPC    C512105   8.344   5.991   1.621
  243DPPC    C612106   8.457   6.022   1.522
  243DPPC    O712107   8.513   5.907   1.458
  243DPPC    P812108   8.651   5.953   1.390
  243DPPC    O912109   8.658   6.089   1.332
  243DPPC   O1012110   8.700   5.833   1.318
  243DPPC   O1112111   8.735   5.979   1.525
  243DPPC   C1212112   8.795   5.856   1.567
  243DPPC   C1312113   8.800   5.825   1.717
  243DPPC   O1412114   8.701   5.732   1.761
  243DPPC   C1512115   8.711   5.597   1.742
  243DPPC   O1612116   8.779   5.554   1.649
  243DPPC   C1712117   8.599   5.525   1.817
  243DPPC   C1812118   8.648   5.508   1.960
  243DPPC   C1912119   8.545   5.457   2.061
  243DPPC   C2012120   8.426   5.553   2.076
  243DPPC   C2112121   8.357   5.484   2.194
  243DPPC   C2212122   8.451   5.463   2.313
  243DPPC   C2312123   8.432   5.328   2.381
  243DPPC   C2412124   8.505   5.304   2.514
  243DPPC   C2512125   8.498   5.152   2.524
  243DPPC   C2612126   8.576   5.105   2.647
  243DPPC   C2712127   8.510   5.168   2.770
  243DPPC   C2812128   8.577   5.133   2.904
  243DPPC   C2912129   8.521   5.198   3.030
  243DPPC   C3012130   8.607   5.150   3.147
  243DPPC   C3112131   8.562   5.216   3.278
  243DPPC   C3212132   8.795   5.963   1.784
  243DPPC   O3312133   8.787   5.965   1.926
  243DPPC   C3412134   8.749   6.086   1.978
  243DPPC   O3512135   8.721   6.180   1.905
  243DPPC   C3612136   8.718   6.078   2.128
  243DPPC   C3712137   8.804   5.974   2.200
  243DPPC   C3812138   8.762   5.955   2.346
  243DPPC   C3912139   8.789   6.085   2.421
  243DPPC   C4012140   8.769   6.055   2.570
  243DPPC   C4112141   8.804   6.176   2.656
  243DPPC   C4212142   8.723   6.296   2.605
  243DPPC   C4312143   8.746   6.401   2.714
  243DPPC   C4412144   8.894   6.439   2.702
  243DPPC   C4512145   8.929   6.551   2.801
  243DPPC   C4612146   9.078   6.571   2.828
  243DPPC   C4712147   9.117   6.426   2.860
  243DPPC   C4812148   9.242   6.418   2.949
  243DPPC   C4912149   9.311   6.283   2.970
  243DPPC   C5012150   9.245   6.197   3.078
  244DPPC    C112151   6.684   3.066   1.659
  244DPPC    C212152   6.808   2.882   1.575
  244DPPC    C312153   6.861   3.101   1.496
  244DPPC    N412154   6.817   3.023   1.613
  244DPPC    C512155   6.912   3.053   1.721
  244DPPC    C612156   7.051   2.990   1.731
  244DPPC    O712157   7.048   2.867   1.804
  244DPPC    P812158   7.186   2.787   1.787
  244DPPC    O912159   7.290   2.871   1.723
  244DPPC   O1012160   7.134   2.669   1.714
  244DPPC   O1112161   7.209   2.749   1.942
  244DPPC   C1212162   7.111   2.654   1.984
  244DPPC   C1312163   7.122   2.624   2.133
  244DPPC   O1412164   7.064   2.732   2.207
  244DPPC   C1512165   6.945   2.703   2.266
  244DPPC   O1612166   6.873   2.616   2.218
  244DPPC   C1712167   6.886   2.808   2.361
  244DPPC   C1812168   6.860   2.763   2.504
  244DPPC   C1912169   6.994   2.743   2.574
  244DPPC   C2012170   6.979   2.702   2.720
  244DPPC   C2112171   7.112   2.694   2.796
  244DPPC   C2212172   7.084   2.655   2.941
  244DPPC   C2312173   7.216   2.623   3.012
  244DPPC   C2412174   7.203   2.636   3.163
  244DPPC   C2512175   7.130   2.766   3.198
  244DPPC   C2612176   7.109   2.787   3.349
  244DPPC   C2712177   7.239   2.789   3.430
  244DPPC   C2812178   7.215   2.798   3.581
  244DPPC   C2912179   7.344   2.790   3.663
  244DPPC   C3012180   7.316   2.779   3.813
  244DPPC   C3112181   7.240   2.899   3.870
  244DPPC   C3212182   7.269   2.598   2.166
  244DPPC   O3312183   7.305   2.546   2.294
  244DPPC   C3412184   7.354   2.642   2.376
  244DPPC   O3512185   7.363   2.761   2.343
  244DPPC   C3612186   7.397   2.588   2.513
  244DPPC   C3712187   7.542   2.542   2.497
  244DPPC   C3812188   7.596   2.459   2.614
  244DPPC   C3912189   7.607   2.523   2.753
  244DPPC   C4012190   7.714   2.450   2.834
  244DPPC   C4112191   7.760   2.529   2.956
  244DPPC   C4212192   7.710   2.469   3.087
  244DPPC   C4312193   7.774   2.548   3.202
  244DPPC   C4412194   7.712   2.501   3.334
  244DPPC   C4512195   7.560   2.521   3.330
  244DPPC   C4612196   7.479   2.475   3.452
  244DPPC   C4712197   7.509   2.334   3.502
  244DPPC   C4812198   7.443   2.305   3.637
  244DPPC   C4912199   7.509   2.395   3.742
  244DPPC   C5012200   7.419   2.369   3.864
  245DPPC    C112201   5.390   3.608   1.623
  245DPPC    C212202   5.455   3.500   1.823
  245DPPC    C312203   5.594   3.669   1.742
  245DPPC    N412204   5.452   3.630   1.755
  245DPPC    C512205   5.389   3.734   1.838
  245DPPC    C612206   5.341   3.863   1.772
  245DPPC    O712207   5.439   3.966   1.763
  245DPPC    P812208   5.351   4.097   1.726
  245DPPC    O912209   5.269   4.058   1.609
  245DPPC   O1012210   5.431   4.220   1.711
  245DPPC   O1112211   5.258   4.105   1.858
  245DPPC   C1212212   5.330   4.151   1.973
  245DPPC   C1312213   5.239   4.191   2.089
  245DPPC   O1412214   5.302   4.260   2.198
  245DPPC   C1512215   5.312   4.396   2.199
  245DPPC   O1612216   5.301   4.461   2.095
  245DPPC   C1712217   5.387   4.441   2.324
  245DPPC   C1812218   5.296   4.429   2.447
  245DPPC   C1912219   5.360   4.507   2.561
  245DPPC   C2012220   5.282   4.503   2.693
  245DPPC   C2112221   5.346   4.588   2.803
  245DPPC   C2212222   5.242   4.587   2.914
  245DPPC   C2312223   5.314   4.648   3.035
  245DPPC   C2412224   5.212   4.639   3.149
  245DPPC   C2512225   5.275   4.684   3.281
  245DPPC   C2612226   5.193   4.628   3.397
  245DPPC   C2712227   5.278   4.617   3.524
  245DPPC   C2812228   5.198   4.579   3.649
  245DPPC   C2912229   5.279   4.580   3.779
  245DPPC   C3012230   5.203   4.527   3.901
  245DPPC   C3112231   5.301   4.522   4.019
  245DPPC   C3212232   5.158   4.066   2.120
  245DPPC   O3312233   5.244   3.965   2.174
  245DPPC   C3412234   5.181   3.844   2.177
  245DPPC   O3512235   5.068   3.837   2.131
  245DPPC   C3612236   5.270   3.726   2.217
  245DPPC   C3712237   5.264   3.676   2.361
  245DPPC   C3812238   5.384   3.587   2.394
  245DPPC   C3912239   5.392   3.551   2.542
  245DPPC   C4012240   5.513   3.464   2.579
  245DPPC   C4112241   5.501   3.406   2.720
  245DPPC   C4212242   5.638   3.365   2.774
  245DPPC   C4312243   5.618   3.352   2.925
  245DPPC   C4412244   5.573   3.491   2.972
  245DPPC   C4512245   5.581   3.494   3.125
  245DPPC   C4612246   5.505   3.381   3.194
  245DPPC   C4712247   5.513   3.390   3.347
  245DPPC   C4812248   5.428   3.287   3.421
  245DPPC   C4912249   5.447   3.312   3.571
  245DPPC   C5012250   5.594   3.316   3.612
  246DPPC    C112251   9.244   7.972   1.468
  246DPPC    C212252   9.414   8.099   1.555
  246DPPC    C312253   9.245   8.011   1.700
  246DPPC    N412254   9.332   7.981   1.585
  246DPPC    C512255   9.422   7.865   1.582
  246DPPC    C612256   9.495   7.810   1.704
  246DPPC    O712257   9.593   7.909   1.737
  246DPPC    P812258   9.686   7.845   1.851
  246DPPC    O912259   9.803   7.935   1.866
  246DPPC   O1012260   9.695   7.698   1.845
  246DPPC   O1112261   9.573   7.883   1.959
  246DPPC   C1212262   9.583   8.020   1.998
  246DPPC   C1312263   9.452   8.098   2.009
  246DPPC   O1412264   9.482   8.235   2.041
  246DPPC   C1512265   9.526   8.327   1.952
  246DPPC   O1612266   9.513   8.294   1.834
  246DPPC   C1712267   9.602   8.451   2.001
  246DPPC   C1812268   9.550   8.528   2.122
  246DPPC   C1912269   9.636   8.650   2.158
  246DPPC   C2012270   9.785   8.623   2.177
  246DPPC   C2112271   9.840   8.581   2.314
  246DPPC   C2212272   9.993   8.578   2.315
  246DPPC   C2312273  10.054   8.567   2.455
  246DPPC   C2412274   9.985   8.448   2.522
  246DPPC   C2512275   9.994   8.451   2.675
  246DPPC   C2612276   9.908   8.342   2.739
  246DPPC   C2712277   9.927   8.337   2.891
  246DPPC   C2812278  10.062   8.285   2.939
  246DPPC   C2912279  10.069   8.146   2.875
  246DPPC   C3012280  10.191   8.075   2.934
  246DPPC   C3112281  10.191   7.940   2.862
  246DPPC   C3212282   9.342   8.049   2.103
  246DPPC   O3312283   9.264   7.943   2.048
  246DPPC   C3412284   9.180   7.891   2.142
  246DPPC   O3512285   9.196   7.918   2.261
  246DPPC   C3612286   9.097   7.778   2.081
  246DPPC   C3712287   8.949   7.778   2.121
  246DPPC   C3812288   8.928   7.705   2.254
  246DPPC   C3912289   8.783   7.707   2.304
  246DPPC   C4012290   8.772   7.642   2.442
  246DPPC   C4112291   8.822   7.743   2.546
  246DPPC   C4212292   8.790   7.694   2.688
  246DPPC   C4312293   8.874   7.769   2.791
  246DPPC   C4412294   8.832   7.726   2.932
  246DPPC   C4512295   8.953   7.698   3.021
  246DPPC   C4612296   9.027   7.829   3.048
  246DPPC   C4712297   9.145   7.821   3.146
  246DPPC   C4812298   9.225   7.950   3.158
  246DPPC   C4912299   9.275   8.001   3.023
  246DPPC   C5012300   9.369   8.122   3.023
  247DPPC    C112301   7.027   1.286   1.088
  247DPPC    C212302   7.269   1.304   1.105
  247DPPC    C312303   7.154   1.168   1.261
  247DPPC    N412304   7.153   1.216   1.122
  247DPPC    C512305   7.142   1.101   1.031
  247DPPC    C612306   7.258   1.002   1.022
  247DPPC    O712307   7.291   0.937   1.145
  247DPPC    P812308   7.451   0.948   1.155
  247DPPC    O912309   7.469   1.053   1.258
  247DPPC   O1012310   7.518   0.959   1.024
  247DPPC   O1112311   7.477   0.804   1.222
  247DPPC   C1212312   7.466   0.828   1.363
  247DPPC   C1312313   7.474   0.705   1.453
  247DPPC   O1412314   7.437   0.736   1.589
  247DPPC   C1512315   7.306   0.727   1.623
  247DPPC   O1612316   7.209   0.721   1.548
  247DPPC   C1712317   7.284   0.757   1.772
  247DPPC   C1812318   7.366   0.880   1.809
  247DPPC   C1912319   7.351   0.908   1.959
  247DPPC   C2012320   7.436   1.020   2.020
  247DPPC   C2112321   7.389   1.064   2.159
  247DPPC   C2212322   7.384   0.946   2.256
  247DPPC   C2312323   7.304   0.978   2.383
  247DPPC   C2412324   7.362   1.108   2.439
  247DPPC   C2512325   7.362   1.105   2.592
  247DPPC   C2612326   7.429   1.216   2.673
  247DPPC   C2712327   7.422   1.185   2.823
  247DPPC   C2812328   7.503   1.286   2.905
  247DPPC   C2912329   7.468   1.287   3.054
  247DPPC   C3012330   7.537   1.179   3.137
  247DPPC   C3112331   7.512   1.194   3.287
  247DPPC   C3212332   7.621   0.674   1.425
  247DPPC   O3312333   7.711   0.636   1.529
  247DPPC   C3412334   7.684   0.513   1.580
  247DPPC   O3512335   7.626   0.427   1.514
  247DPPC   C3612336   7.746   0.482   1.716
  247DPPC   C3712337   7.706   0.593   1.814
  247DPPC   C3812338   7.805   0.617   1.928
  247DPPC   C3912339   7.748   0.727   2.018
  247DPPC   C4012340   7.824   0.743   2.150
  247DPPC   C4112341   7.778   0.848   2.251
  247DPPC   C4212342   7.859   0.863   2.380
  247DPPC   C4312343   7.823   0.997   2.444
  247DPPC   C4412344   7.885   1.011   2.583
  247DPPC   C4512345   7.869   1.155   2.632
  247DPPC   C4612346   7.923   1.157   2.775
  247DPPC   C4712347   7.903   1.286   2.854
  247DPPC   C4812348   7.935   1.267   3.003
  247DPPC   C4912349   7.889   1.380   3.095
  247DPPC   C5012350   7.929   1.354   3.240
  248DPPC    C112351   6.300   1.288   1.783
  248DPPC    C212352   6.438   1.459   1.894
  248DPPC    C312353   6.211   1.470   1.899
  248DPPC    N412354   6.320   1.371   1.903
  248DPPC    C512355   6.328   1.299   2.031
  248DPPC    C612356   6.222   1.192   2.055
  248DPPC    O712357   6.090   1.236   2.085
  248DPPC    P812358   5.978   1.127   2.045
  248DPPC    O912359   5.998   1.085   1.905
  248DPPC   O1012360   5.851   1.192   2.083
  248DPPC   O1112361   6.012   1.009   2.150
  248DPPC   C1212362   5.988   1.056   2.283
  248DPPC   C1312363   6.039   0.957   2.387
  248DPPC   O1412364   5.961   0.951   2.507
  248DPPC   C1512365   5.836   0.898   2.506
  248DPPC   O1612366   5.782   0.859   2.403
  248DPPC   C1712367   5.767   0.882   2.642
  248DPPC   C1812368   5.688   1.012   2.665
  248DPPC   C1912369   5.606   1.008   2.794
  248DPPC   C2012370   5.689   0.985   2.919
  248DPPC   C2112371   5.616   0.998   3.053
  248DPPC   C2212372   5.705   1.043   3.169
  248DPPC   C2312373   5.649   0.989   3.300
  248DPPC   C2412374   5.732   1.013   3.426
  248DPPC   C2512375   5.654   0.957   3.545
  248DPPC   C2612376   5.740   0.982   3.669
  248DPPC   C2712377   5.655   0.967   3.796
  248DPPC   C2812378   5.540   1.067   3.782
  248DPPC   C2912379   5.451   1.082   3.905
  248DPPC   C3012380   5.393   1.220   3.940
  248DPPC   C3112381   5.304   1.277   3.830
  248DPPC   C3212382   6.190   0.961   2.412
  248DPPC   O3312383   6.230   1.097   2.433
  248DPPC   C3412384   6.357   1.129   2.471
  248DPPC   O3512385   6.460   1.065   2.454
  248DPPC   C3612386   6.354   1.277   2.510
  248DPPC   C3712387   6.475   1.315   2.596
  248DPPC   C3812388   6.487   1.238   2.728
  248DPPC   C3912389   6.524   1.331   2.843
  248DPPC   C4012390   6.523   1.229   2.956
  248DPPC   C4112391   6.586   1.305   3.074
  248DPPC   C4212392   6.553   1.223   3.198
  248DPPC   C4312393   6.613   1.275   3.329
  248DPPC   C4412394   6.656   1.167   3.428
  248DPPC   C4512395   6.759   1.224   3.526
  248DPPC   C4612396   6.801   1.142   3.648
  248DPPC   C4712397   6.922   1.208   3.714
  248DPPC   C4812398   7.005   1.129   3.816
  248DPPC   C4912399   7.083   1.007   3.766
  248DPPC   C5012400   7.146   0.921   3.876
  249DPPC    C112401   1.825   5.613   1.679
  249DPPC    C212402   1.997   5.728   1.556
  249DPPC    C312403   1.987   5.493   1.557
  249DPPC    N412404   1.904   5.614   1.555
  249DPPC    C512405   1.828   5.626   1.429
  249DPPC    C612406   1.769   5.760   1.388
  249DPPC    O712407   1.656   5.807   1.463
  249DPPC    P812408   1.641   5.965   1.434
  249DPPC    O912409   1.500   6.003   1.458
  249DPPC   O1012410   1.738   6.012   1.333
  249DPPC   O1112411   1.713   5.988   1.576
  249DPPC   C1212412   1.630   5.945   1.684
  249DPPC   C1312413   1.705   5.924   1.816
  249DPPC   O1412414   1.616   5.915   1.929
  249DPPC   C1512415   1.551   5.797   1.945
  249DPPC   O1612416   1.572   5.706   1.865
  249DPPC   C1712417   1.463   5.771   2.068
  249DPPC   C1812418   1.542   5.766   2.199
  249DPPC   C1912419   1.614   5.631   2.211
  249DPPC   C2012420   1.696   5.642   2.339
  249DPPC   C2112421   1.599   5.667   2.456
  249DPPC   C2212422   1.663   5.675   2.595
  249DPPC   C2312423   1.725   5.544   2.645
  249DPPC   C2412424   1.796   5.579   2.776
  249DPPC   C2512425   1.891   5.469   2.823
  249DPPC   C2612426   1.933   5.503   2.966
  249DPPC   C2712427   1.959   5.379   3.052
  249DPPC   C2812428   1.966   5.424   3.199
  249DPPC   C2912429   1.954   5.297   3.283
  249DPPC   C3012430   1.817   5.230   3.293
  249DPPC   C3112431   1.820   5.084   3.340
  249DPPC   C3212432   1.800   6.044   1.824
  249DPPC   O3312433   1.901   6.051   1.925
  249DPPC   C3412434   1.993   5.951   1.930
  249DPPC   O3512435   2.004   5.863   1.844
  249DPPC   C3612436   2.096   5.960   2.043
  249DPPC   C3712437   2.057   5.860   2.152
  249DPPC   C3812438   2.162   5.825   2.256
  249DPPC   C3912439   2.106   5.752   2.379
  249DPPC   C4012440   2.211   5.763   2.490
  249DPPC   C4112441   2.149   5.691   2.610
  249DPPC   C4212442   2.256   5.677   2.719
  249DPPC   C4312443   2.308   5.814   2.761
  249DPPC   C4412444   2.213   5.887   2.857
  249DPPC   C4512445   2.250   5.851   3.001
  249DPPC   C4612446   2.393   5.867   3.054
  249DPPC   C4712447   2.396   5.884   3.206
  249DPPC   C4812448   2.542   5.893   3.249
  249DPPC   C4912449   2.569   5.925   3.396
  249DPPC   C5012450   2.470   5.840   3.475
  250DPPC    C112451   8.687   8.137   1.175
  250DPPC    C212452   8.875   8.191   1.306
  250DPPC    C312453   8.917   8.162   1.078
  250DPPC    N412454   8.815   8.210   1.173
  250DPPC    C512455   8.806   8.351   1.133
  250DPPC    C612456   8.791   8.467   1.231
  250DPPC    O712457   8.910   8.488   1.308
  250DPPC    P812458   8.879   8.579   1.437
  250DPPC    O912459   8.815   8.700   1.381
  250DPPC   O1012460   9.016   8.585   1.494
  250DPPC   O1112461   8.777   8.463   1.482
  250DPPC   C1212462   8.713   8.497   1.605
  250DPPC   C1312463   8.654   8.383   1.688
  250DPPC   O1412464   8.568   8.426   1.794
  250DPPC   C1512465   8.438   8.385   1.793
  250DPPC   O1612466   8.392   8.315   1.703
  250DPPC   C1712467   8.346   8.439   1.902
  250DPPC   C1812468   8.342   8.351   2.027
  250DPPC   C1912469   8.291   8.440   2.141
  250DPPC   C2012470   8.281   8.360   2.271
  250DPPC   C2112471   8.169   8.258   2.259
  250DPPC   C2212472   8.142   8.210   2.402
  250DPPC   C2312473   8.035   8.102   2.386
  250DPPC   C2412474   8.011   8.019   2.511
  250DPPC   C2512475   7.884   7.933   2.504
  250DPPC   C2612476   7.849   7.872   2.639
  250DPPC   C2712477   7.714   7.799   2.634
  250DPPC   C2812478   7.711   7.728   2.770
  250DPPC   C2912479   7.749   7.820   2.886
  250DPPC   C3012480   7.762   7.728   3.008
  250DPPC   C3112481   7.803   7.826   3.118
  250DPPC   C3212482   8.771   8.288   1.718
  250DPPC   O3312483   8.873   8.360   1.787
  250DPPC   C3412484   8.978   8.282   1.826
  250DPPC   O3512485   8.983   8.163   1.795
  250DPPC   C3612486   9.087   8.339   1.917
  250DPPC   C3712487   9.029   8.357   2.058
  250DPPC   C3812488   9.121   8.446   2.141
  250DPPC   C3912489   9.061   8.463   2.281
  250DPPC   C4012490   9.164   8.531   2.370
  250DPPC   C4112491   9.120   8.533   2.517
  250DPPC   C4212492   9.223   8.601   2.607
  250DPPC   C4312493   9.353   8.521   2.609
  250DPPC   C4412494   9.351   8.380   2.670
  250DPPC   C4512495   9.494   8.325   2.669
  250DPPC   C4612496   9.517   8.259   2.534
  250DPPC   C4712497   9.656   8.196   2.532
  250DPPC   C4812498   9.687   8.134   2.395
  250DPPC   C4912499   9.833   8.088   2.386
  250DPPC   C5012500   9.870   7.991   2.498
  251DPPC    C112501   6.512   5.708   1.550
  251DPPC    C212502   6.731   5.695   1.463
  251DPPC    C312503   6.578   5.850   1.372
  251DPPC    N412504   6.623   5.789   1.497
  251DPPC    C512505   6.666   5.890   1.595
  251DPPC    C612506   6.582   6.013   1.630
  251DPPC    O712507   6.466   5.986   1.710
  251DPPC    P812508   6.387   6.103   1.788
  251DPPC    O912509   6.282   6.021   1.852
  251DPPC   O1012510   6.351   6.212   1.695
  251DPPC   O1112511   6.491   6.162   1.896
  251DPPC   C1212512   6.538   6.043   1.959
  251DPPC   C1312513   6.630   6.073   2.078
  251DPPC   O1412514   6.690   5.952   2.125
  251DPPC   C1512515   6.825   5.941   2.120
  251DPPC   O1612516   6.894   5.990   2.030
  251DPPC   C1712517   6.880   5.837   2.218
  251DPPC   C1812518   6.926   5.908   2.345
  251DPPC   C1912519   6.981   5.808   2.447
  251DPPC   C2012520   7.103   5.734   2.391
  251DPPC   C2112521   7.216   5.832   2.363
  251DPPC   C2212522   7.336   5.756   2.305
  251DPPC   C2312523   7.467   5.830   2.278
  251DPPC   C2412524   7.568   5.730   2.221
  251DPPC   C2512525   7.705   5.798   2.222
  251DPPC   C2612526   7.784   5.729   2.333
  251DPPC   C2712527   7.910   5.816   2.343
  251DPPC   C2812528   8.000   5.822   2.220
  251DPPC   C2912529   8.130   5.893   2.257
  251DPPC   C3012530   8.230   5.902   2.142
  251DPPC   C3112531   8.367   5.939   2.199
  251DPPC   C3212532   6.552   6.164   2.173
  251DPPC   O3312533   6.638   6.254   2.243
  251DPPC   C3412534   6.564   6.339   2.320
  251DPPC   O3512535   6.442   6.342   2.307
  251DPPC   C3612536   6.629   6.435   2.419
  251DPPC   C3712537   6.533   6.442   2.538
  251DPPC   C3812538   6.607   6.516   2.651
  251DPPC   C3912539   6.553   6.481   2.790
  251DPPC   C4012540   6.594   6.577   2.902
  251DPPC   C4112541   6.555   6.510   3.034
  251DPPC   C4212542   6.597   6.603   3.149
  251DPPC   C4312543   6.583   6.544   3.289
  251DPPC   C4412544   6.444   6.485   3.312
  251DPPC   C4512545   6.423   6.435   3.456
  251DPPC   C4612546   6.440   6.565   3.535
  251DPPC   C4712547   6.442   6.538   3.686
  251DPPC   C4812548   6.303   6.524   3.747
  251DPPC   C4912549   6.230   6.659   3.744
  251DPPC   C5012550   6.086   6.655   3.795
  252DPPC    C112551   4.421   2.611   1.790
  252DPPC    C212552   4.618   2.636   1.937
  252DPPC    C312553   4.426   2.750   1.974
  252DPPC    N412554   4.472   2.619   1.927
  252DPPC    C512555   4.422   2.495   1.989
  252DPPC    C612556   4.276   2.456   2.013
  252DPPC    O712557   4.204   2.557   2.083
  252DPPC    P812558   4.070   2.490   2.143
  252DPPC    O912559   4.112   2.374   2.225
  252DPPC   O1012560   3.980   2.472   2.027
  252DPPC   O1112561   4.032   2.616   2.234
  252DPPC   C1212562   4.132   2.634   2.335
  252DPPC   C1312563   4.193   2.774   2.337
  252DPPC   O1412564   4.303   2.793   2.428
  252DPPC   C1512565   4.414   2.868   2.407
  252DPPC   O1612566   4.432   2.936   2.306
  252DPPC   C1712567   4.505   2.872   2.530
  252DPPC   C1812568   4.594   2.748   2.537
  252DPPC   C1912569   4.649   2.737   2.679
  252DPPC   C2012570   4.755   2.628   2.699
  252DPPC   C2112571   4.778   2.591   2.846
  252DPPC   C2212572   4.820   2.446   2.869
  252DPPC   C2312573   4.820   2.418   3.020
  252DPPC   C2412574   4.865   2.274   3.041
  252DPPC   C2512575   4.912   2.237   3.182
  252DPPC   C2612576   4.966   2.095   3.195
  252DPPC   C2712577   4.851   2.003   3.156
  252DPPC   C2812578   4.896   1.865   3.106
  252DPPC   C2912579   5.011   1.876   3.006
  252DPPC   C3012580   5.099   1.751   2.992
  252DPPC   C3112581   5.229   1.783   2.918
  252DPPC   C3212582   4.079   2.874   2.360
  252DPPC   O3312583   3.997   2.854   2.475
  252DPPC   C3412584   3.889   2.936   2.471
  252DPPC   O3512585   3.866   2.999   2.368
  252DPPC   C3612586   3.805   2.946   2.599
  252DPPC   C3712587   3.692   2.844   2.582
  252DPPC   C3812588   3.591   2.839   2.697
  252DPPC   C3912589   3.670   2.797   2.821
  252DPPC   C4012590   3.585   2.791   2.948
  252DPPC   C4112591   3.662   2.725   3.062
  252DPPC   C4212592   3.709   2.581   3.038
  252DPPC   C4312593   3.793   2.530   3.156
  252DPPC   C4412594   3.843   2.390   3.119
  252DPPC   C4512595   3.988   2.377   3.166
  252DPPC   C4612596   4.053   2.240   3.148
  252DPPC   C4712597   4.058   2.205   2.999
  252DPPC   C4812598   4.140   2.076   2.996
  252DPPC   C4912599   4.064   1.979   3.088
  252DPPC   C5012600   4.116   1.835   3.082
  253DPPC    C112601   3.768   7.549   1.836
  253DPPC    C212602   3.739   7.781   1.784
  253DPPC    C312603   3.561   7.619   1.737
  253DPPC    N412604   3.670   7.658   1.827
  253DPPC    C512605   3.611   7.672   1.961
  253DPPC    C612606   3.691   7.687   2.091
  253DPPC    O712607   3.748   7.813   2.129
  253DPPC    P812608   3.905   7.801   2.162
  253DPPC    O912609   3.976   7.930   2.152
  253DPPC   O1012610   3.957   7.697   2.070
  253DPPC   O1112611   3.898   7.754   2.316
  253DPPC   C1212612   3.824   7.849   2.393
  253DPPC   C1312613   3.747   7.780   2.506
  253DPPC   O1412614   3.651   7.857   2.580
  253DPPC   C1512615   3.520   7.858   2.541
  253DPPC   O1612616   3.484   7.798   2.440
  253DPPC   C1712617   3.422   7.933   2.631
  253DPPC   C1812618   3.278   7.893   2.600
  253DPPC   C1912619   3.191   7.977   2.695
  253DPPC   C2012620   3.047   7.929   2.713
  253DPPC   C2112621   3.004   7.991   2.845
  253DPPC   C2212622   2.865   7.936   2.880
  253DPPC   C2312623   2.816   8.018   2.999
  253DPPC   C2412624   2.665   8.020   3.022
  253DPPC   C2512625   2.622   8.075   3.158
  253DPPC   C2612626   2.477   8.040   3.195
  253DPPC   C2712627   2.380   8.110   3.099
  253DPPC   C2812628   2.327   8.249   3.135
  253DPPC   C2912629   2.256   8.311   3.014
  253DPPC   C3012630   2.211   8.447   3.068
  253DPPC   C3112631   2.130   8.541   2.980
  253DPPC   C3212632   3.854   7.718   2.595
  253DPPC   O3312633   3.957   7.793   2.660
  253DPPC   C3412634   4.056   7.727   2.725
  253DPPC   O3512635   4.052   7.604   2.734
  253DPPC   C3612636   4.176   7.807   2.777
  253DPPC   C3712637   4.165   7.869   2.917
  253DPPC   C3812638   4.294   7.947   2.937
  253DPPC   C3912639   4.306   8.084   2.869
  253DPPC   C4012640   4.434   8.156   2.914
  253DPPC   C4112641   4.560   8.070   2.902
  253DPPC   C4212642   4.667   8.126   2.996
  253DPPC   C4312643   4.770   8.014   3.007
  253DPPC   C4412644   4.883   8.065   3.098
  253DPPC   C4512645   5.010   7.985   3.069
  253DPPC   C4612646   5.124   8.031   3.159
  253DPPC   C4712647   5.243   7.940   3.128
  253DPPC   C4812648   5.352   7.968   3.231
  253DPPC   C4912649   5.469   7.870   3.251
  253DPPC   C5012650   5.558   7.897   3.372
  254DPPC    C112651   3.071   1.469   2.481
  254DPPC    C212652   2.978   1.689   2.462
  254DPPC    C312653   3.093   1.586   2.285
  254DPPC    N412654   2.996   1.561   2.392
  254DPPC    C512655   2.873   1.499   2.340
  254DPPC    C612656   2.796   1.555   2.220
  254DPPC    O712657   2.661   1.589   2.251
  254DPPC    P812658   2.611   1.659   2.115
  254DPPC    O912659   2.668   1.580   2.004
  254DPPC   O1012660   2.637   1.802   2.145
  254DPPC   O1112661   2.463   1.625   2.167
  254DPPC   C1212662   2.418   1.719   2.266
  254DPPC   C1312663   2.272   1.717   2.311
  254DPPC   O1412664   2.228   1.801   2.418
  254DPPC   C1512665   2.248   1.935   2.409
  254DPPC   O1612666   2.297   2.000   2.317
  254DPPC   C1712667   2.188   2.012   2.527
  254DPPC   C1812668   2.294   2.076   2.617
  254DPPC   C1912669   2.230   2.119   2.749
  254DPPC   C2012670   2.345   2.152   2.843
  254DPPC   C2112671   2.290   2.232   2.961
  254DPPC   C2212672   2.369   2.198   3.087
  254DPPC   C2312673   2.378   2.054   3.137
  254DPPC   C2412674   2.268   2.014   3.236
  254DPPC   C2512675   2.293   1.872   3.288
  254DPPC   C2612676   2.185   1.844   3.392
  254DPPC   C2712677   2.192   1.713   3.470
  254DPPC   C2812678   2.329   1.723   3.539
  254DPPC   C2912679   2.362   1.599   3.623
  254DPPC   C3012680   2.248   1.562   3.719
  254DPPC   C3112681   2.304   1.453   3.810
  254DPPC   C3212682   2.256   1.566   2.335
  254DPPC   O3312683   2.326   1.515   2.449
  254DPPC   C3412684   2.352   1.382   2.441
  254DPPC   O3512685   2.314   1.315   2.345
  254DPPC   C3612686   2.437   1.327   2.556
  254DPPC   C3712687   2.356   1.230   2.642
  254DPPC   C3812688   2.450   1.171   2.747
  254DPPC   C3912689   2.383   1.069   2.838
  254DPPC   C4012690   2.486   1.018   2.939
  254DPPC   C4112691   2.433   0.904   3.026
  254DPPC   C4212692   2.558   0.834   3.078
  254DPPC   C4312693   2.642   0.900   3.187
  254DPPC   C4412694   2.745   0.796   3.231
  254DPPC   C4512695   2.819   0.829   3.361
  254DPPC   C4612696   2.732   0.838   3.487
  254DPPC   C4712697   2.825   0.828   3.609
  254DPPC   C4812698   2.754   0.815   3.744
  254DPPC   C4912699   2.856   0.804   3.857
  254DPPC   C5012700   2.808   0.865   3.989
  255DPPC    C112701   1.499   7.703   1.800
  255DPPC    C212702   1.507   7.474   1.725
  255DPPC    C312703   1.343   7.611   1.644
  255DPPC    N412704   1.484   7.613   1.685
  255DPPC    C512705   1.566   7.663   1.574
  255DPPC    C612706   1.718   7.677   1.577
  255DPPC    O712707   1.808   7.566   1.574
  255DPPC    P812708   1.963   7.604   1.554
  255DPPC    O912709   1.967   7.725   1.470
  255DPPC   O1012710   2.032   7.477   1.521
  255DPPC   O1112711   1.972   7.631   1.713
  255DPPC   C1212712   1.956   7.504   1.778
  255DPPC   C1312713   1.975   7.506   1.929
  255DPPC   O1412714   1.983   7.376   1.988
  255DPPC   C1512715   2.108   7.323   2.002
  255DPPC   O1612716   2.208   7.367   1.947
  255DPPC   C1712717   2.117   7.190   2.078
  255DPPC   C1812718   2.002   7.149   2.169
  255DPPC   C1912719   2.042   7.035   2.263
  255DPPC   C2012720   1.919   6.971   2.328
  255DPPC   C2112721   1.848   6.877   2.230
  255DPPC   C2212722   1.719   6.820   2.288
  255DPPC   C2312723   1.740   6.718   2.401
  255DPPC   C2412724   1.610   6.694   2.479
  255DPPC   C2512725   1.641   6.570   2.563
  255DPPC   C2612726   1.532   6.542   2.666
  255DPPC   C2712727   1.541   6.394   2.705
  255DPPC   C2812728   1.423   6.354   2.794
  255DPPC   C2912729   1.429   6.437   2.922
  255DPPC   C3012730   1.354   6.345   3.018
  255DPPC   C3112731   1.419   6.211   3.052
  255DPPC   C3212732   1.869   7.606   1.977
  255DPPC   O3312733   1.877   7.672   2.104
  255DPPC   C3412734   1.755   7.721   2.139
  255DPPC   O3512735   1.660   7.704   2.063
  255DPPC   C3612736   1.722   7.772   2.279
  255DPPC   C3712737   1.794   7.904   2.304
  255DPPC   C3812738   1.750   7.962   2.438
  255DPPC   C3912739   1.820   8.095   2.467
  255DPPC   C4012740   1.784   8.129   2.612
  255DPPC   C4112741   1.841   8.269   2.635
  255DPPC   C4212742   1.818   8.321   2.777
  255DPPC   C4312743   1.909   8.239   2.869
  255DPPC   C4412744   1.834   8.173   2.985
  255DPPC   C4512745   1.943   8.092   3.056
  255DPPC   C4612746   1.893   8.030   3.186
  255DPPC   C4712747   1.994   7.937   3.253
  255DPPC   C4812748   1.960   7.790   3.228
  255DPPC   C4912749   2.069   7.705   3.293
  255DPPC   C5012750   2.064   7.734   3.443
  256DPPC    C112751   2.695   6.745   1.832
  256DPPC    C212752   2.657   6.519   1.882
  256DPPC    C312753   2.546   6.633   1.694
  256DPPC    N412754   2.670   6.614   1.771
  256DPPC    C512755   2.781   6.587   1.679
  256DPPC    C612756   2.822   6.440   1.669
  256DPPC    O712757   2.722   6.368   1.596
  256DPPC    P812758   2.768   6.215   1.581
  256DPPC    O912759   2.915   6.222   1.566
  256DPPC   O1012760   2.670   6.172   1.479
  256DPPC   O1112761   2.715   6.179   1.729
  256DPPC   C1212762   2.575   6.172   1.703
  256DPPC   C1312763   2.497   6.119   1.824
  256DPPC   O1412764   2.451   6.222   1.913
  256DPPC   C1512765   2.326   6.273   1.901
  256DPPC   O1612766   2.259   6.266   1.798
  256DPPC   C1712767   2.293   6.377   2.008
  256DPPC   C1812768   2.218   6.304   2.120
  256DPPC   C1912769   2.172   6.419   2.210
  256DPPC   C2012770   2.088   6.353   2.320
  256DPPC   C2112771   2.065   6.458   2.428
  256DPPC   C2212772   2.183   6.518   2.505
  256DPPC   C2312773   2.132   6.602   2.622
  256DPPC   C2412774   2.093   6.739   2.565
  256DPPC   C2512775   2.047   6.817   2.689
  256DPPC   C2612776   1.939   6.749   2.773
  256DPPC   C2712777   1.909   6.807   2.911
  256DPPC   C2812778   1.781   6.749   2.970
  256DPPC   C2912779   1.808   6.604   3.012
  256DPPC   C3012780   1.709   6.563   3.121
  256DPPC   C3112781   1.764   6.434   3.183
  256DPPC   C3212782   2.581   6.003   1.877
  256DPPC   O3312783   2.524   5.919   1.977
  256DPPC   C3412784   2.598   5.814   2.023
  256DPPC   O3512785   2.717   5.802   1.996
  256DPPC   C3612786   2.509   5.710   2.092
  256DPPC   C3712787   2.580   5.647   2.213
  256DPPC   C3812788   2.486   5.584   2.315
  256DPPC   C3912789   2.439   5.448   2.262
  256DPPC   C4012790   2.332   5.394   2.357
  256DPPC   C4112791   2.400   5.376   2.493
  256DPPC   C4212792   2.286   5.345   2.591
  256DPPC   C4312793   2.217   5.216   2.547
  256DPPC   C4412794   2.113   5.161   2.644
  256DPPC   C4512795   2.063   5.023   2.598
  256DPPC   C4612796   1.949   4.983   2.691
  256DPPC   C4712797   1.997   4.973   2.836
  256DPPC   C4812798   1.875   4.969   2.929
  256DPPC   C4912799   1.864   4.823   2.974
  256DPPC   C5012800   1.740   4.815   3.063
  257SOL     OW12801   0.230   0.628   0.113
  257SOL    HW112802   0.137   0.626   0.150
  257SOL    HW212803   0.231   0.589   0.021
  258SOL     OW12804   0.225   0.275   0.996
  258SOL    HW112805   0.260   0.258   1.088
  258SOL    HW212806   0.137   0.230   0.984
  259SOL     OW12807   0.019   0.368   0.647
  259SOL    HW112808  -0.063   0.411   0.686
  259SOL    HW212809  -0.009   0.295   0.584
  260SOL     OW12810   0.569   1.275   1.165
  260SOL    HW112811   0.476   1.268   1.128
  260SOL    HW212812   0.580   1.364   1.209
  261SOL     OW12813   1.555   1.511   0.703
  261SOL    HW112814   1.498   1.495   0.784
  261SOL    HW212815   1.496   1.521   0.623
  262SOL     OW12816   1.135   0.703   0.717
  262SOL    HW112817   1.192   0.781   0.692
  262SOL    HW212818   1.075   0.729   0.793
  263SOL     OW12819   1.755   0.607   0.231
  263SOL    HW112820   1.743   0.594   0.132
  263SOL    HW212821   1.725   0.526   0.280
  264SOL     OW12822   0.768   1.144   1.023
  264SOL    HW112823   0.690   1.161   1.083
  264SOL    HW212824   0.802   1.231   0.987
  265SOL     OW12825   0.850   0.798   1.823
  265SOL    HW112826   0.846   0.874   1.888
  265SOL    HW212827   0.872   0.834   1.732
  266SOL     OW12828   0.685   1.012   0.665
  266SOL    HW112829   0.754   0.996   0.735
  266SOL    HW212830   0.612   1.069   0.703
  267SOL     OW12831   0.686   1.161   1.803
  267SOL    HW112832   0.746   1.240   1.817
  267SOL    HW212833   0.600   1.192   1.762
  268SOL     OW12834   0.335   1.435   1.061
  268SOL    HW112835   0.257   1.404   1.008
  268SOL    HW212836   0.393   1.493   1.004
  269SOL     OW12837   1.460   1.505   1.339
  269SOL    HW112838   1.484   1.599   1.365
  269SOL    HW212839   1.444   1.451   1.421
  270SOL     OW12840   1.603   0.447   0.737
  270SOL    HW112841   1.529   0.493   0.687
  270SOL    HW212842   1.654   0.515   0.790
  271SOL     OW12843   0.231   1.713   0.483
  271SOL    HW112844   0.265   1.790   0.537
  271SOL    HW212845   0.275   1.713   0.393
  272SOL     OW12846   0.230   1.434   0.538
  272SOL    HW112847   0.204   1.530   0.538
  272SOL    HW212848   0.159   1.380   0.583
  273SOL     OW12849   0.240   1.091   0.886
  273SOL    HW112850   0.254   1.007   0.938
  273SOL    HW212851   0.185   1.155   0.941
  274SOL     OW12852   0.606   0.964   0.123
  274SOL    HW112853   0.613   1.048   0.069
  274SOL    HW212854   0.652   0.977   0.211
  275SOL     OW12855   1.594   0.114   1.480
  275SOL    HW112856   1.576   0.181   1.408
  275SOL    HW212857   1.591   0.160   1.569
  276SOL     OW12858   0.122   0.643   0.563
  276SOL    HW112859   0.077   0.555   0.580
  276SOL    HW212860   0.121   0.697   0.647
  277SOL     OW12861   1.842   1.767   0.359
  277SOL    HW112862   1.896   1.738   0.439
  277SOL    HW212863   1.872   1.857   0.330
  278SOL     OW12864   0.027   1.596   0.117
  278SOL    HW112865   0.008   1.500   0.138
  278SOL    HW212866  -0.006   1.654   0.192
  279SOL     OW12867   1.689   0.922   0.612
  279SOL    HW112868   1.784   0.893   0.620
  279SOL    HW212869   1.681   0.987   0.537
  280SOL     OW12870   1.641   1.108   0.432
  280SOL    HW112871   1.727   1.110   0.380
  280SOL    HW212872   1.655   1.155   0.520
  281SOL     OW12873   0.613   1.365   0.726
  281SOL    HW112874   0.564   1.278   0.735
  281SOL    HW212875   0.590   1.408   0.639
  282SOL     OW12876   0.809   0.004   0.502
  282SOL    HW112877   0.849   0.095   0.493
  282SOL    HW212878   0.709   0.012   0.508
  283SOL     OW12879   0.197   0.976   1.264
  283SOL    HW112880   0.286   0.931   1.250
  283SOL    HW212881   0.124   0.911   1.245
  284SOL     OW12882   1.525   0.999   0.190
  284SOL    HW112883   1.462   0.923   0.203
  284SOL    HW212884   1.573   1.017   0.276
  285SOL     OW12885   1.187   1.792   1.616
  285SOL    HW112886   1.211   1.852   1.540
  285SOL    HW212887   1.194   1.697   1.586
  286SOL     OW12888   1.466   1.417   0.953
  286SOL    HW112889   1.407   1.423   1.033
  286SOL    HW212890   1.451   1.329   0.907
  287SOL     OW12891   1.667   1.714   0.572
  287SOL    HW112892   1.626   1.691   0.484
  287SOL    HW212893   1.649   1.640   0.637
  288SOL     OW12894   0.598   0.729   0.270
  288SOL    HW112895   0.622   0.798   0.202
  288SOL    HW212896   0.520   0.762   0.324
  289SOL     OW12897   1.281   0.345   0.944
  289SOL    HW112898   1.195   0.295   0.931
  289SOL    HW212899   1.343   0.291   1.000
  290SOL     OW12900   1.576   1.662   0.307
  290SOL    HW112901   1.665   1.708   0.310
  290SOL    HW212902   1.555   1.638   0.212
  291SOL     OW12903   0.807   0.605   1.465
  291SOL    HW112904   0.760   0.602   1.554
  291SOL    HW212905   0.756   0.550   1.399
  292SOL     OW12906   1.394   0.469   1.674
  292SOL    HW112907   1.374   0.512   1.762
  292SOL    HW212908   1.472   0.407   1.683
  293SOL     OW12909   0.973   0.890   1.572
  293SOL    HW112910   1.019   0.806   1.543
  293SOL    HW212911   0.917   0.924   1.497
  294SOL     OW12912   0.991   0.410   1.242
  294SOL    HW112913   0.914   0.444   1.296
  294SOL    HW212914   0.957   0.359   1.163
  295SOL     OW12915   1.041   0.701   0.429
  295SOL    HW112916   1.067   0.697   0.525
  295SOL    HW212917   0.956   0.650   0.415
  296SOL     OW12918   0.076   0.811   0.789
  296SOL    HW112919   0.175   0.799   0.798
  296SOL    HW212920   0.052   0.906   0.810
  297SOL     OW12921   0.865   0.348   0.195
  297SOL    HW112922   0.924   0.411   0.146
  297SOL    HW212923   0.884   0.254   0.166
  298SOL     OW12924   1.719   0.585   1.831
  298SOL    HW112925   1.693   0.674   1.795
  298SOL    HW212926   1.717   0.517   1.758
  299SOL     OW12927   1.362   1.144   0.545
  299SOL    HW112928   1.445   1.115   0.497
  299SOL    HW212929   1.313   1.211   0.489
  300SOL     OW12930   0.550   0.196   0.885
  300SOL    HW112931   0.545   0.191   0.985
  300SOL    HW212932   0.552   0.292   0.856
  301SOL     OW12933   1.008   1.456   0.477
  301SOL    HW112934   0.962   1.528   0.425
  301SOL    HW212935   1.004   1.476   0.575
  302SOL     OW12936   0.351   1.801   0.853
  302SOL    HW112937   0.401   1.715   0.859
  302SOL    HW212938   0.416   1.878   0.850
  303SOL     OW12939   1.795   1.066   0.873
  303SOL    HW112940   1.733   1.051   0.797
  303SOL    HW212941   1.743   1.077   0.958
  304SOL     OW12942   0.321   0.943   0.242
  304SOL    HW112943   0.403   0.982   0.200
  304SOL    HW212944   0.294   0.861   0.193
  305SOL     OW12945   1.458   0.735   0.728
  305SOL    HW112946   1.453   0.670   0.803
  305SOL    HW212947   1.538   0.794   0.741
  306SOL     OW12948   0.461   1.266   1.727
  306SOL    HW112949   0.411   1.267   1.641
  306SOL    HW212950   0.398   1.248   1.803
  307SOL     OW12951   1.111   1.776   0.237
  307SOL    HW112952   1.051   1.714   0.287
  307SOL    HW212953   1.142   1.732   0.152
  308SOL     OW12954   1.632   1.377   0.081
  308SOL    HW112955   1.600   1.471   0.071
  308SOL    HW212956   1.556   1.314   0.069
  309SOL     OW12957   0.464   1.743   0.323
  309SOL    HW112958   0.497   1.782   0.409
  309SOL    HW212959   0.540   1.736   0.258
  310SOL     OW12960   1.400   0.107   0.426
  310SOL    HW112961   1.376   0.070   0.336
  310SOL    HW212962   1.499   0.123   0.430
  311SOL     OW12963   0.940   1.698   0.904
  311SOL    HW112964   1.020   1.641   0.925
  311SOL    HW212965   0.891   1.658   0.827
  312SOL     OW12966   0.382   0.700   0.480
  312SOL    HW112967   0.427   0.610   0.477
  312SOL    HW212968   0.288   0.689   0.513
  313SOL     OW12969   1.547   0.222   1.729
  313SOL    HW112970   1.542   0.259   1.821
  313SOL    HW212971   1.475   0.153   1.717
  314SOL     OW12972   0.614   0.122   0.117
  314SOL    HW112973   0.712   0.100   0.124
  314SOL    HW212974   0.583   0.105   0.024
  315SOL     OW12975   0.888   1.514   1.195
  315SOL    HW112976   0.865   1.489   1.101
  315SOL    HW212977   0.949   1.445   1.234
  316SOL     OW12978   1.351   0.590   1.433
  316SOL    HW112979   1.379   0.547   1.518
  316SOL    HW212980   1.376   0.686   1.434
  317SOL     OW12981   0.803   1.402   0.924
  317SOL    HW112982   0.893   1.416   0.882
  317SOL    HW212983   0.732   1.404   0.853
  318SOL     OW12984   0.922   0.503   0.899
  318SOL    HW112985   0.897   0.494   0.803
  318SOL    HW212986   0.970   0.421   0.930
  319SOL     OW12987   0.539   0.064   0.512
  319SOL    HW112988   0.458   0.065   0.570
  319SOL    HW212989   0.542   0.147   0.457
  320SOL     OW12990   1.434   1.188   0.041
  320SOL    HW112991   1.466   1.112   0.098
  320SOL    HW212992   1.342   1.215   0.071
  321SOL     OW12993   0.297   0.035   0.171
  321SOL    HW112994   0.346   0.119   0.150
  321SOL    HW212995   0.359  -0.030   0.216
  322SOL     OW12996   0.935   0.236   0.480
  322SOL    HW112997   0.887   0.277   0.402
  322SOL    HW212998   1.034   0.234   0.461
  323SOL     OW12999   1.076   0.683   1.464
  323SOL    HW113000   0.996   0.622   1.467
  323SOL    HW213001   1.157   0.630   1.440
  324SOL     OW13002   1.227   1.570   0.793
  324SOL    HW113003   1.248   1.644   0.728
  324SOL    HW213004   1.295   1.570   0.866
  325SOL     OW13005   0.459   1.152   0.741
  325SOL    HW113006   0.388   1.125   0.806
  325SOL    HW213007   0.433   1.124   0.648
  326SOL     OW13008   1.271   1.797   0.591
  326SOL    HW113009   1.315   1.861   0.527
  326SOL    HW213010   1.221   1.849   0.661
  327SOL     OW13011   1.032   0.549   0.016
  327SOL    HW113012   0.991   0.631  -0.023
  327SOL    HW213013   1.096   0.575   0.089
  328SOL     OW13014   0.561   0.222   1.147
  328SOL    HW113015   0.599   0.138   1.184
  328SOL    HW213016   0.473   0.241   1.191
  329SOL     OW13017   0.866   0.454   0.642
  329SOL    HW113018   0.834   0.526   0.580
  329SOL    HW213019   0.890   0.373   0.589
  330SOL     OW13020   1.017   0.039   0.753
  330SOL    HW113021   0.945   0.044   0.684
  330SOL    HW213022   0.993  -0.030   0.822
  331SOL     OW13023   1.429   1.173   0.867
  331SOL    HW113024   1.374   1.089   0.860
  331SOL    HW213025   1.455   1.202   0.775
  332SOL     OW13026   1.466   0.590   0.992
  332SOL    HW113027   1.436   0.495   0.999
  332SOL    HW213028   1.539   0.606   1.058
  333SOL     OW13029   1.857   0.833   0.377
  333SOL    HW113030   1.899   0.769   0.441
  333SOL    HW213031   1.819   0.782   0.299
  334SOL     OW13032   0.488   1.385   0.174
  334SOL    HW113033   0.401   1.370   0.221
  334SOL    HW213034   0.471   1.411   0.079
  335SOL     OW13035   1.664   1.280   0.657
  335SOL    HW113036   1.763   1.288   0.671
  335SOL    HW213037   1.619   1.364   0.688
  336SOL     OW13038   1.390   0.575   0.078
  336SOL    HW113039   1.336   0.554   0.159
  336SOL    HW213040   1.481   0.534   0.087
  337SOL     OW13041   0.527   0.256   0.328
  337SOL    HW113042   0.554   0.197   0.253
  337SOL    HW213043   0.527   0.351   0.297
  338SOL     OW13044   1.064   1.347   1.340
  338SOL    HW113045   0.984   1.324   1.395
  338SOL    HW213046   1.147   1.321   1.389
  339SOL     OW13047   1.111   1.195   1.100
  339SOL    HW113048   1.071   1.239   1.181
  339SOL    HW213049   1.070   1.232   1.017
  340SOL     OW13050   1.638   1.099   1.079
  340SOL    HW113051   1.643   1.180   1.138
  340SOL    HW213052   1.552   1.101   1.028
  341SOL     OW13053   0.915   0.089   1.402
  341SOL    HW113054   0.940   0.069   1.307
  341SOL    HW213055   0.987   0.145   1.444
  342SOL     OW13056   0.980   1.116   1.719
  342SOL    HW113057   0.881   1.122   1.729
  342SOL    HW213058   1.003   1.036   1.663
  343SOL     OW13059   0.705   1.050   0.368
  343SOL    HW113060   0.691   1.057   0.467
  343SOL    HW213061   0.789   0.999   0.350
  344SOL     OW13062   0.410   0.813   1.251
  344SOL    HW113063   0.496   0.825   1.301
  344SOL    HW213064   0.368   0.726   1.278
  345SOL     OW13065   1.274   0.386   1.262
  345SOL    HW113066   1.295   0.460   1.326
  345SOL    HW213067   1.185   0.403   1.219
  346SOL     OW13068   0.367   1.100   0.501
  346SOL    HW113069   0.360   1.183   0.445
  346SOL    HW213070   0.371   1.020   0.441
  347SOL     OW13071   0.566   0.537   0.865
  347SOL    HW113072   0.578   0.603   0.791
  347SOL    HW213073   0.612   0.571   0.948
  348SOL     OW13074   1.252   1.348   0.388
  348SOL    HW113075   1.302   1.425   0.428
  348SOL    HW213076   1.157   1.350   0.420
  349SOL     OW13077   1.272   1.445   1.142
  349SOL    HW113078   1.319   1.458   1.229
  349SOL    HW213079   1.206   1.371   1.151
  350SOL     OW13080   1.582   0.639   0.472
  350SOL    HW113081   1.551   0.700   0.545
  350SOL    HW213082   1.632   0.691   0.403
  351SOL     OW13083   0.573   0.870   1.029
  351SOL    HW113084   0.617   0.959   1.020
  351SOL    HW213085   0.510   0.870   1.106
  352SOL     OW13086   1.360   0.862   1.045
  352SOL    HW113087   1.285   0.862   0.979
  352SOL    HW213088   1.397   0.770   1.054
  353SOL     OW13089   1.209   0.525   0.275
  353SOL    HW113090   1.222   0.441   0.329
  353SOL    HW213091   1.180   0.599   0.335
  354SOL     OW13092   0.307   0.213   1.231
  354SOL    HW113093   0.284   0.250   1.321
  354SOL    HW213094   0.277   0.118   1.225
  355SOL     OW13095   0.732   0.634   1.064
  355SOL    HW113096   0.791   0.608   0.988
  355SOL    HW213097   0.704   0.730   1.053
  356SOL     OW13098   1.728   0.935   1.854
  356SOL    HW113099   1.682   0.928   1.765
  356SOL    HW213100   1.666   0.979   1.920
  357SOL     OW13101   0.307   0.063   0.618
  357SOL    HW113102   0.296   0.157   0.651
  357SOL    HW213103   0.302   0.000   0.695
  358SOL     OW13104   1.622   0.367   0.374
  358SOL    HW113105   1.624   0.291   0.438
  358SOL    HW213106   1.574   0.444   0.414
  359SOL     OW13107   1.023   0.766   0.966
  359SOL    HW113108   1.038   0.787   1.062
  359SOL    HW213109   0.993   0.671   0.957
  360SOL     OW13110   1.859   1.518   1.605
  360SOL    HW113111   1.873   1.545   1.510
  360SOL    HW213112   1.942   1.540   1.658
  361SOL     OW13113   1.540   0.274   0.125
  361SOL    HW113114   1.479   0.199   0.148
  361SOL    HW213115   1.562   0.326   0.208
  362SOL     OW13116   1.303   0.838   0.042
  362SOL    HW113117   1.337   0.745   0.057
  362SOL    HW213118   1.321   0.865  -0.053
  363SOL     OW13119   1.068   1.333   0.849
  363SOL    HW113120   1.075   1.249   0.794
  363SOL    HW213121   1.130   1.402   0.813
  364SOL     OW13122   0.319   0.810   0.949
  364SOL    HW113123   0.412   0.846   0.954
  364SOL    HW213124   0.313   0.725   1.001
  365SOL     OW13125   0.339   0.509   1.006
  365SOL    HW113126   0.287   0.426   0.989
  365SOL    HW213127   0.416   0.514   0.942
  366SOL     OW13128   0.008   1.326   0.200
  366SOL    HW113129  -0.085   1.347   0.169
  366SOL    HW213130   0.018   1.227   0.213
  367SOL     OW13131   0.088   1.801   0.927
  367SOL    HW113132   0.046   1.715   0.900
  367SOL    HW213133   0.182   1.804   0.893
  368SOL     OW13134   0.504   1.568   0.910
  368SOL    HW113135   0.570   1.642   0.919
  368SOL    HW213136   0.548   1.489   0.868
  369SOL     OW13137   1.002   0.796   1.238
  369SOL    HW113138   1.043   0.764   1.324
  369SOL    HW213139   0.906   0.769   1.235
  370SOL     OW13140   0.040   0.544   1.114
  370SOL    HW113141   0.125   0.511   1.073
  370SOL    HW213142   0.053   0.559   1.212
  371SOL     OW13143   0.815   0.572   0.325
  371SOL    HW113144   0.822   0.483   0.279
  371SOL    HW213145   0.721   0.606   0.317
  372SOL     OW13146   1.657   0.604   1.206
  372SOL    HW113147   1.619   0.535   1.268
  372SOL    HW213148   1.739   0.568   1.162
  373SOL     OW13149   0.671   0.464   1.269
  373SOL    HW113150   0.637   0.375   1.239
  373SOL    HW213151   0.697   0.518   1.189
  374SOL     OW13152   0.473   0.500   0.191
  374SOL    HW113153   0.534   0.580   0.195
  374SOL    HW213154   0.378   0.531   0.198
  375SOL     OW13155   0.159   1.137   1.466
  375SOL    HW113156   0.181   1.076   1.542
  375SOL    HW213157   0.169   1.088   1.380
  376SOL     OW13158   1.347   1.059   1.234
  376SOL    HW113159   1.371   0.996   1.160
  376SOL    HW213160   1.257   1.099   1.216
  377SOL     OW13161   1.302   0.855   0.309
  377SOL    HW113162   1.216   0.824   0.351
  377SOL    HW213163   1.298   0.841   0.210
  378SOL     OW13164   1.759   1.747   1.154
  378SOL    HW113165   1.820   1.777   1.081
  378SOL    HW213166   1.721   1.658   1.132
  379SOL     OW13167   1.252   1.731   1.128
  379SOL    HW113168   1.336   1.736   1.074
  379SOL    HW213169   1.229   1.635   1.146
  380SOL     OW13170   0.903   0.086   0.133
  380SOL    HW113171   0.954   0.087   0.047
  380SOL    HW213172   0.959   0.044   0.204
  381SOL     OW13173   1.726   0.135   0.523
  381SOL    HW113174   1.799   0.118   0.456
  381SOL    HW213175   1.695   0.048   0.561
  382SOL     OW13176   1.388   1.573   0.477
  382SOL    HW113177   1.455   1.585   0.403
  382SOL    HW213178   1.348   1.662   0.500
  383SOL     OW13179   0.130   1.794   1.851
  383SOL    HW113180   0.089   1.720   1.904
  383SOL    HW213181   0.194   1.845   1.909
  384SOL     OW13182   1.280   0.927   0.672
  384SOL    HW113183   1.340   0.846   0.674
  384SOL    HW213184   1.320   0.996   0.612
  385SOL     OW13185   0.830   1.273   1.422
  385SOL    HW113186   0.825   1.306   1.517
  385SOL    HW213187   0.744   1.292   1.376
  386SOL     OW13188   0.672   1.616   0.154
  386SOL    HW113189   0.681   1.626   0.055
  386SOL    HW213190   0.632   1.527   0.175
  387SOL     OW13191   1.650   1.720   1.394
  387SOL    HW113192   1.703   1.730   1.310
  387SOL    HW213193   1.623   1.810   1.428
  388SOL     OW13194   1.841   0.175   0.963
  388SOL    HW113195   1.880   0.090   0.927
  388SOL    HW213196   1.743   0.177   0.944
  389SOL     OW13197   0.263   0.326   0.720
  389SOL    HW113198   0.184   0.377   0.686
  389SOL    HW213199   0.254   0.311   0.818
  390SOL     OW13200   1.194   1.612   0.031
  390SOL    HW113201   1.200   1.519   0.068
  390SOL    HW213202   1.135   1.612  -0.049
  391SOL     OW13203   0.822   1.002   1.372
  391SOL    HW113204   0.862   1.001   1.280
  391SOL    HW213205   0.832   1.094   1.412
  392SOL     OW13206   0.916   0.910   0.291
  392SOL    HW113207   0.979   0.948   0.223
  392SOL    HW213208   0.956   0.827   0.330
  393SOL     OW13209   1.504   1.607   0.044
  393SOL    HW113210   1.412   1.644   0.051
  393SOL    HW213211   1.542   1.627  -0.046
  394SOL     OW13212   1.614   1.292   1.289
  394SOL    HW113213   1.674   1.295   1.369
  394SOL    HW213214   1.539   1.356   1.302
  395SOL     OW13215   1.039   1.098   0.696
  395SOL    HW113216   0.969   1.051   0.750
  395SOL    HW213217   1.098   1.030   0.653
  396SOL     OW13218   1.014   0.236   0.971
  396SOL    HW113219   1.006   0.200   0.878
  396SOL    HW213220   1.012   0.160   1.036
  397SOL     OW13221   0.590   1.487   0.491
  397SOL    HW113222   0.632   1.429   0.421
  397SOL    HW213223   0.546   1.566   0.447
  398SOL     OW13224   1.709   0.385   1.381
  398SOL    HW113225   1.782   0.454   1.385
  398SOL    HW213226   1.737   0.310   1.322
  399SOL     OW13227   0.255   1.348   0.290
  399SOL    HW113228   0.159   1.349   0.263
  399SOL    HW213229   0.267   1.401   0.374
  400SOL     OW13230   0.075   0.345   0.033
  400SOL    HW113231  -0.017   0.317   0.004
  400SOL    HW213232   0.106   0.422  -0.023
  401SOL     OW13233   1.440   0.856   1.398
  401SOL    HW113234   1.383   0.908   1.335
  401SOL    HW213235   1.536   0.868   1.374
  402SOL     OW13236   0.072   0.166   0.318
  402SOL    HW113237   0.055   0.249   0.264
  402SOL    HW213238   0.162   0.129   0.296
  403SOL     OW13239   1.183   1.335   0.119
  403SOL    HW113240   1.084   1.324   0.121
  403SOL    HW213241   1.217   1.350   0.212
  404SOL     OW13242   0.613   0.842   1.431
  404SOL    HW113243   0.669   0.923   1.414
  404SOL    HW213244   0.672   0.762   1.434
  405SOL     OW13245   1.493   1.767   0.959
  405SOL    HW113246   1.526   1.831   0.890
  405SOL    HW213247   1.559   1.761   1.034
  406SOL     OW13248   1.674   0.883   1.254
  406SOL    HW113249   1.647   0.794   1.217
  406SOL    HW213250   1.675   0.951   1.181
  407SOL     OW13251   1.225   0.325   0.449
  407SOL    HW113252   1.290   0.251   0.438
  407SOL    HW213253   1.245   0.375   0.533
  408SOL     OW13254   0.594   0.745   0.652
  408SOL    HW113255   0.644   0.830   0.633
  408SOL    HW213256   0.506   0.747   0.604
  409SOL     OW13257   1.777   0.342   1.642
  409SOL    HW113258   1.760   0.373   1.548
  409SOL    HW213259   1.693   0.305   1.680
  410SOL     OW13260   0.859   1.374   0.016
  410SOL    HW113261   0.813   1.389   0.104
  410SOL    HW213262   0.903   1.459  -0.014
  411SOL     OW13263   0.661   1.790   0.953
  411SOL    HW113264   0.615   1.878   0.940
  411SOL    HW213265   0.760   1.802   0.946
  412SOL     OW13266   0.859   0.956   0.861
  412SOL    HW113267   0.913   0.887   0.909
  412SOL    HW213268   0.827   1.025   0.927
  413SOL     OW13269   1.083   0.984   0.087
  413SOL    HW113270   1.060   1.037   0.005
  413SOL    HW213271   1.164   0.928   0.068
  414SOL     OW13272   1.861   1.569   0.851
  414SOL    HW113273   1.790   1.557   0.781
  414SOL    HW213274   1.862   1.490   0.911
  415SOL     OW13275   0.079   1.240   0.653
  415SOL    HW113276   0.078   1.193   0.741
  415SOL    HW213277   0.161   1.212   0.602
  416SOL     OW13278   1.824   0.192   1.227
  416SOL    HW113279   1.820   0.102   1.271
  416SOL    HW213280   1.827   0.181   1.128
  417SOL     OW13281   0.428   0.424   0.520
  417SOL    HW113282   0.458   0.352   0.458
  417SOL    HW213283   0.389   0.384   0.603
  418SOL     OW13284   1.705   1.487   1.104
  418SOL    HW113285   1.612   1.462   1.077
  418SOL    HW213286   1.731   1.437   1.186
  419SOL     OW13287   0.317   0.547   1.280
  419SOL    HW113288   0.355   0.488   1.352
  419SOL    HW213289   0.357   0.521   1.192
  420SOL     OW13290   0.812   1.586   0.687
  420SOL    HW113291   0.844   1.596   0.593
  420SOL    HW213292   0.733   1.524   0.689
  421SOL     OW13293   1.424   0.214   1.112
  421SOL    HW113294   1.476   0.149   1.167
  421SOL    HW213295   1.375   0.277   1.173
  422SOL     OW13296   1.001   0.034   1.154
  422SOL    HW113297   0.938  -0.038   1.123
  422SOL    HW213298   1.094  -0.002   1.154
  423SOL     OW13299   0.770   1.330   0.301
  423SOL    HW113300   0.724   1.243   0.318
  423SOL    HW213301   0.861   1.327   0.342
  424SOL     OW13302   1.352   0.052   0.168
  424SOL    HW113303   1.387   0.011   0.084
  424SOL    HW213304   1.262   0.014   0.188
  425SOL     OW13305   1.300   0.453   0.691
  425SOL    HW113306   1.241   0.533   0.695
  425SOL    HW213307   1.315   0.418   0.784
  426SOL     OW13308   1.593   0.221   0.882
  426SOL    HW113309   1.509   0.220   0.936
  426SOL    HW213310   1.595   0.304   0.826
  427SOL     OW13311   0.039   1.077   0.300
  427SOL    HW113312   0.138   1.066   0.291
  427SOL    HW213313  -0.001   0.991   0.332
  428SOL     OW13314   0.875   1.646   0.337
  428SOL    HW113315   0.798   1.611   0.283
  428SOL    HW213316   0.843   1.717   0.399
  429SOL     OW13317   0.230   0.628   1.975
  429SOL    HW113318   0.137   0.626   2.012
  429SOL    HW213319   0.231   0.589   1.883
  430SOL     OW13320   0.850   0.798   3.685
  430SOL    HW113321   0.846   0.874   3.750
  430SOL    HW213322   0.872   0.834   3.594
  431SOL     OW13323   0.335   1.435   2.923
  431SOL    HW113324   0.257   1.404   2.870
  431SOL    HW213325   0.393   1.493   2.866
  432SOL     OW13326   1.603   0.447   2.599
  432SOL    HW113327   1.529   0.493   2.549
  432SOL    HW213328   1.654   0.515   2.652
  433SOL     OW13329   0.231   1.713   2.345
  433SOL    HW113330   0.265   1.790   2.399
  433SOL    HW213331   0.275   1.713   2.255
  434SOL     OW13332   1.127   1.341   3.552
  434SOL    HW113333   1.174   1.341   3.640
  434SOL    HW213334   1.079   1.254   3.541
  435SOL     OW13335   0.240   1.091   2.748
  435SOL    HW113336   0.254   1.007   2.800
  435SOL    HW213337   0.185   1.155   2.803
  436SOL     OW13338   0.620   1.786   3.301
  436SOL    HW113339   0.528   1.769   3.336
  436SOL    HW213340   0.648   1.878   3.327
  437SOL     OW13341   0.027   1.596   1.979
  437SOL    HW113342   0.008   1.500   2.000
  437SOL    HW213343  -0.006   1.654   2.054
  438SOL     OW13344   0.809   0.004   2.364
  438SOL    HW113345   0.849   0.095   2.355
  438SOL    HW213346   0.709   0.012   2.370
  439SOL     OW13347   1.525   0.999   2.052
  439SOL    HW113348   1.462   0.923   2.065
  439SOL    HW213349   1.573   1.017   2.138
  440SOL     OW13350   1.466   1.417   2.815
  440SOL    HW113351   1.407   1.423   2.895
  440SOL    HW213352   1.451   1.329   2.769
  441SOL     OW13353   1.576   1.662   2.169
  441SOL    HW113354   1.665   1.708   2.172
  441SOL    HW213355   1.555   1.638   2.074
  442SOL     OW13356   1.394   0.469   3.536
  442SOL    HW113357   1.374   0.512   3.624
  442SOL    HW213358   1.472   0.407   3.545
  443SOL     OW13359   0.973   0.890   3.434
  443SOL    HW113360   1.019   0.806   3.405
  443SOL    HW213361   0.917   0.924   3.359
  444SOL     OW13362   1.041   0.701   2.291
  444SOL    HW113363   1.067   0.697   2.387
  444SOL    HW213364   0.956   0.650   2.277
  445SOL     OW13365   0.076   0.811   2.651
  445SOL    HW113366   0.175   0.799   2.660
  445SOL    HW213367   0.052   0.906   2.672
  446SOL     OW13368   0.130   1.821   3.433
  446SOL    HW113369   0.120   1.806   3.532
  446SOL    HW213370   0.044   1.857   3.397
  447SOL     OW13371   0.865   0.348   2.057
  447SOL    HW113372   0.924   0.411   2.008
  447SOL    HW213373   0.884   0.254   2.028
  448SOL     OW13374   0.550   0.196   2.747
  448SOL    HW113375   0.545   0.191   2.847
  448SOL    HW213376   0.552   0.292   2.718
  449SOL     OW13377   1.008   1.456   2.339
  449SOL    HW113378   0.962   1.528   2.287
  449SOL    HW213379   1.004   1.476   2.437
  450SOL     OW13380   1.795   1.066   2.735
  450SOL    HW113381   1.733   1.051   2.659
  450SOL    HW213382   1.743   1.077   2.820
  451SOL     OW13383   1.227   1.550   3.368
  451SOL    HW113384   1.233   1.473   3.432
  451SOL    HW213385   1.175   1.524   3.288
  452SOL     OW13386   1.111   1.776   2.099
  452SOL    HW113387   1.051   1.714   2.149
  452SOL    HW213388   1.142   1.732   2.014
  453SOL     OW13389   0.202   0.285   3.360
  453SOL    HW113390   0.122   0.345   3.347
  453SOL    HW213391   0.192   0.236   3.446
  454SOL     OW13392   1.547   0.222   3.591
  454SOL    HW113393   1.542   0.259   3.683
  454SOL    HW213394   1.475   0.153   3.579
  455SOL     OW13395   0.614   0.122   1.979
  455SOL    HW113396   0.712   0.100   1.986
  455SOL    HW213397   0.583   0.105   1.886
  456SOL     OW13398   0.781   0.264   3.611
  456SOL    HW113399   0.848   0.203   3.654
  456SOL    HW213400   0.708   0.283   3.676
  457SOL     OW13401   0.888   1.514   3.057
  457SOL    HW113402   0.865   1.489   2.963
  457SOL    HW213403   0.949   1.445   3.096
  458SOL     OW13404   1.351   0.590   3.295
  458SOL    HW113405   1.379   0.547   3.380
  458SOL    HW213406   1.376   0.686   3.296
  459SOL     OW13407   0.459   1.152   2.603
  459SOL    HW113408   0.388   1.125   2.668
  459SOL    HW213409   0.433   1.124   2.510
  460SOL     OW13410   1.032   0.549   1.878
  460SOL    HW113411   0.991   0.631   1.839
  460SOL    HW213412   1.096   0.575   1.951
  461SOL     OW13413   0.561   0.222   3.009
  461SOL    HW113414   0.599   0.138   3.046
  461SOL    HW213415   0.473   0.241   3.053
  462SOL     OW13416   1.017   0.039   2.615
  462SOL    HW113417   0.945   0.044   2.546
  462SOL    HW213418   0.993  -0.030   2.684
  463SOL     OW13419   1.466   0.590   2.854
  463SOL    HW113420   1.436   0.495   2.861
  463SOL    HW213421   1.539   0.606   2.920
  464SOL     OW13422   0.527   0.256   2.190
  464SOL    HW113423   0.554   0.197   2.115
  464SOL    HW213424   0.527   0.351   2.159
  465SOL     OW13425   1.754   1.223   3.450
  465SOL    HW113426   1.845   1.184   3.437
  465SOL    HW213427   1.762   1.319   3.474
  466SOL     OW13428   0.980   1.116   3.581
  466SOL    HW113429   0.881   1.122   3.591
  466SOL    HW213430   1.003   1.036   3.525
  467SOL     OW13431   0.367   1.100   2.363
  467SOL    HW113432   0.360   1.183   2.307
  467SOL    HW213433   0.371   1.020   2.303
  468SOL     OW13434   1.252   1.348   2.250
  468SOL    HW113435   1.302   1.425   2.290
  468SOL    HW213436   1.157   1.350   2.282
  469SOL     OW13437   0.354   1.510   3.191
  469SOL    HW113438   0.333   1.466   3.104
  469SOL    HW213439   0.451   1.536   3.194
  470SOL     OW13440   0.402   0.751   3.460
  470SOL    HW113441   0.470   0.806   3.413
  470SOL    HW213442   0.442   0.663   3.487
  471SOL     OW13443   1.013   0.105   3.632
  471SOL    HW113444   1.019   0.190   3.580
  471SOL    HW213445   1.045   0.029   3.575
  472SOL     OW13446   1.360   0.862   2.907
  472SOL    HW113447   1.285   0.862   2.841
  472SOL    HW213448   1.397   0.770   2.916
  473SOL     OW13449   0.037   1.310   3.144
  473SOL    HW113450   0.090   1.261   3.212
  473SOL    HW213451   0.059   1.408   3.149
  474SOL     OW13452   1.622   0.367   2.236
  474SOL    HW113453   1.624   0.291   2.300
  474SOL    HW213454   1.574   0.444   2.276
  475SOL     OW13455   1.023   0.766   2.828
  475SOL    HW113456   1.038   0.787   2.924
  475SOL    HW213457   0.993   0.671   2.819
  476SOL     OW13458   0.980   1.573   3.562
  476SOL    HW113459   0.960   1.617   3.474
  476SOL    HW213460   1.019   1.482   3.546
  477SOL     OW13461   1.540   0.274   1.987
  477SOL    HW113462   1.479   0.199   2.010
  477SOL    HW213463   1.562   0.326   2.070
  478SOL     OW13464   1.068   1.333   2.711
  478SOL    HW113465   1.075   1.249   2.656
  478SOL    HW213466   1.130   1.402   2.675
  479SOL     OW13467   0.319   0.810   2.811
  479SOL    HW113468   0.412   0.846   2.816
  479SOL    HW213469   0.313   0.725   2.863
  480SOL     OW13470   0.339   0.509   2.868
  480SOL    HW113471   0.287   0.426   2.851
  480SOL    HW213472   0.416   0.514   2.804
  481SOL     OW13473   1.138   0.380   3.540
  481SOL    HW113474   1.093   0.443   3.604
  481SOL    HW213475   1.231   0.411   3.523
  482SOL     OW13476   0.040   0.544   2.976
  482SOL    HW113477   0.125   0.511   2.935
  482SOL    HW213478   0.053   0.559   3.074
  483SOL     OW13479   0.815   0.572   2.187
  483SOL    HW113480   0.822   0.483   2.141
  483SOL    HW213481   0.721   0.606   2.179
  484SOL     OW13482   1.657   0.604   3.068
  484SOL    HW113483   1.619   0.535   3.130
  484SOL    HW213484   1.739   0.568   3.024
  485SOL     OW13485   0.930   1.678   3.327
  485SOL    HW113486   0.906   1.660   3.232
  485SOL    HW213487   0.960   1.772   3.337
  486SOL     OW13488   1.252   1.731   2.990
  486SOL    HW113489   1.336   1.736   2.936
  486SOL    HW213490   1.229   1.635   3.008
  487SOL     OW13491   0.130   1.794   3.713
  487SOL    HW113492   0.089   1.720   3.766
  487SOL    HW213493   0.194   1.845   3.771
  488SOL     OW13494   0.830   1.273   3.284
  488SOL    HW113495   0.825   1.306   3.379
  488SOL    HW213496   0.744   1.292   3.238
  489SOL     OW13497   1.841   0.175   2.825
  489SOL    HW113498   1.880   0.090   2.789
  489SOL    HW213499   1.743   0.177   2.806
  490SOL     OW13500   0.822   1.002   3.234
  490SOL    HW113501   0.862   1.001   3.142
  490SOL    HW213502   0.832   1.094   3.274
  491SOL     OW13503   0.916   0.910   2.153
  491SOL    HW113504   0.979   0.948   2.085
  491SOL    HW213505   0.956   0.827   2.192
  492SOL     OW13506   1.504   1.607   1.906
  492SOL    HW113507   1.412   1.644   1.913
  492SOL    HW213508   1.542   1.627   1.816
  493SOL     OW13509   0.590   1.487   2.353
  493SOL    HW113510   0.632   1.429   2.283
  493SOL    HW213511   0.546   1.566   2.309
  494SOL     OW13512   1.709   0.385   3.243
  494SOL    HW113513   1.782   0.454   3.247
  494SOL    HW213514   1.737   0.310   3.184
  495SOL     OW13515   0.075   0.345   1.895
  495SOL    HW113516  -0.017   0.317   1.866
  495SOL    HW213517   0.106   0.422   1.839
  496SOL     OW13518   0.390   1.741   3.422
  496SOL    HW113519   0.299   1.782   3.420
  496SOL    HW213520   0.383   1.647   3.454
  497SOL     OW13521   1.777   0.342   3.504
  497SOL    HW113522   1.760   0.373   3.410
  497SOL    HW213523   1.693   0.305   3.542
  498SOL     OW13524   0.661   1.790   2.815
  498SOL    HW113525   0.615   1.878   2.802
  498SOL    HW213526   0.760   1.802   2.808
  499SOL     OW13527   0.428   0.424   2.382
  499SOL    HW113528   0.458   0.352   2.320
  499SOL    HW213529   0.389   0.384   2.465
  500SOL     OW13530   1.001   0.034   3.016
  500SOL    HW113531   0.938  -0.038   2.985
  500SOL    HW213532   1.094  -0.002   3.016
  501SOL     OW13533   0.618   1.567   3.146
  501SOL    HW113534   0.613   1.649   3.203
  501SOL    HW213535   0.707   1.564   3.101
  502SOL     OW13536   1.352   0.052   2.030
  502SOL    HW113537   1.387   0.011   1.946
  502SOL    HW213538   1.262   0.014   2.050
  503SOL     OW13539   0.875   1.646   2.199
  503SOL    HW113540   0.798   1.611   2.145
  503SOL    HW213541   0.843   1.717   2.261
  504SOL     OW13542   0.230   0.628   3.837
  504SOL    HW113543   0.137   0.626   3.874
  504SOL    HW213544   0.231   0.589   3.745
  505SOL     OW13545   0.225   0.275   4.720
  505SOL    HW113546   0.260   0.258   4.812
  505SOL    HW213547   0.137   0.230   4.708
  506SOL     OW13548   0.019   0.368   4.371
  506SOL    HW113549  -0.063   0.411   4.410
  506SOL    HW213550  -0.009   0.295   4.308
  507SOL     OW13551   0.569   1.275   4.889
  507SOL    HW113552   0.476   1.268   4.852
  507SOL    HW213553   0.580   1.364   4.933
  508SOL     OW13554   1.555   1.511   4.427
  508SOL    HW113555   1.498   1.495   4.508
  508SOL    HW213556   1.496   1.521   4.347
  509SOL     OW13557   1.135   0.703   4.441
  509SOL    HW113558   1.192   0.781   4.416
  509SOL    HW213559   1.075   0.729   4.517
  510SOL     OW13560   1.755   0.607   3.955
  510SOL    HW113561   1.743   0.594   3.856
  510SOL    HW213562   1.725   0.526   4.004
  511SOL     OW13563   0.768   1.144   4.747
  511SOL    HW113564   0.690   1.161   4.807
  511SOL    HW213565   0.802   1.231   4.711
  512SOL     OW13566   0.850   0.798   5.547
  512SOL    HW113567   0.846   0.874   5.612
  512SOL    HW213568   0.872   0.834   5.456
  513SOL     OW13569   0.685   1.012   4.389
  513SOL    HW113570   0.754   0.996   4.459
  513SOL    HW213571   0.612   1.069   4.427
  514SOL     OW13572   0.686   1.161   5.527
  514SOL    HW113573   0.746   1.240   5.541
  514SOL    HW213574   0.600   1.192   5.486
  515SOL     OW13575   0.231   1.713   4.207
  515SOL    HW113576   0.265   1.790   4.261
  515SOL    HW213577   0.275   1.713   4.117
  516SOL     OW13578   1.594   0.114   5.204
  516SOL    HW113579   1.576   0.181   5.132
  516SOL    HW213580   1.591   0.160   5.293
  517SOL     OW13581   1.842   1.767   4.083
  517SOL    HW113582   1.896   1.738   4.163
  517SOL    HW213583   1.872   1.857   4.054
  518SOL     OW13584   1.525   0.999   3.914
  518SOL    HW113585   1.462   0.923   3.927
  518SOL    HW213586   1.573   1.017   4.000
  519SOL     OW13587   1.187   1.792   5.340
  519SOL    HW113588   1.211   1.852   5.264
  519SOL    HW213589   1.194   1.697   5.310
  520SOL     OW13590   1.281   0.345   4.668
  520SOL    HW113591   1.195   0.295   4.655
  520SOL    HW213592   1.343   0.291   4.724
  521SOL     OW13593   0.991   0.410   4.966
  521SOL    HW113594   0.914   0.444   5.020
  521SOL    HW213595   0.957   0.359   4.887
  522SOL     OW13596   0.940   1.698   4.628
  522SOL    HW113597   1.020   1.641   4.649
  522SOL    HW213598   0.891   1.658   4.551
  523SOL     OW13599   0.382   0.700   4.204
  523SOL    HW113600   0.427   0.610   4.201
  523SOL    HW213601   0.288   0.689   4.237
  524SOL     OW13602   1.547   0.222   5.453
  524SOL    HW113603   1.542   0.259   5.545
  524SOL    HW213604   1.475   0.153   5.441
  525SOL     OW13605   0.781   0.264   5.473
  525SOL    HW113606   0.848   0.203   5.516
  525SOL    HW213607   0.708   0.283   5.538
  526SOL     OW13608   0.888   1.514   4.919
  526SOL    HW113609   0.865   1.489   4.825
  526SOL    HW213610   0.949   1.445   4.958
  527SOL     OW13611   0.803   1.402   4.648
  527SOL    HW113612   0.893   1.416   4.606
  527SOL    HW213613   0.732   1.404   4.577
  528SOL     OW13614   0.297   0.035   3.895
  528SOL    HW113615   0.346   0.119   3.874
  528SOL    HW213616   0.359  -0.030   3.940
  529SOL     OW13617   1.271   1.797   4.315
  529SOL    HW113618   1.315   1.861   4.251
  529SOL    HW213619   1.221   1.849   4.385
  530SOL     OW13620   0.561   0.222   4.871
  530SOL    HW113621   0.599   0.138   4.908
  530SOL    HW213622   0.473   0.241   4.915
  531SOL     OW13623   1.017   0.039   4.477
  531SOL    HW113624   0.945   0.044   4.408
  531SOL    HW213625   0.993  -0.030   4.546
  532SOL     OW13626   1.466   0.590   4.716
  532SOL    HW113627   1.436   0.495   4.723
  532SOL    HW213628   1.539   0.606   4.782
  533SOL     OW13629   0.488   1.385   3.898
  533SOL    HW113630   0.401   1.370   3.945
  533SOL    HW213631   0.471   1.411   3.803
  534SOL     OW13632   1.664   1.280   4.381
  534SOL    HW113633   1.763   1.288   4.395
  534SOL    HW213634   1.619   1.364   4.412
  535SOL     OW13635   1.754   1.223   5.312
  535SOL    HW113636   1.845   1.184   5.299
  535SOL    HW213637   1.762   1.319   5.336
  536SOL     OW13638   0.980   1.116   5.443
  536SOL    HW113639   0.881   1.122   5.453
  536SOL    HW213640   1.003   1.036   5.387
  537SOL     OW13641   1.274   0.386   4.986
  537SOL    HW113642   1.295   0.460   5.050
  537SOL    HW213643   1.185   0.403   4.943
  538SOL     OW13644   1.252   1.348   4.112
  538SOL    HW113645   1.302   1.425   4.152
  538SOL    HW213646   1.157   1.350   4.144
  539SOL     OW13647   1.013   0.105   5.494
  539SOL    HW113648   1.019   0.190   5.442
  539SOL    HW213649   1.045   0.029   5.437
  540SOL     OW13650   0.504   0.050   5.464
  540SOL    HW113651   0.462  -0.007   5.394
  540SOL    HW213652   0.438   0.119   5.496
  541SOL     OW13653   1.360   0.862   4.769
  541SOL    HW113654   1.285   0.862   4.703
  541SOL    HW213655   1.397   0.770   4.778
  542SOL     OW13656   0.037   1.310   5.006
  542SOL    HW113657   0.090   1.261   5.074
  542SOL    HW213658   0.059   1.408   5.011
  543SOL     OW13659   1.728   0.935   5.578
  543SOL    HW113660   1.682   0.928   5.489
  543SOL    HW213661   1.666   0.979   5.644
  544SOL     OW13662   0.350   0.898   5.528
  544SOL    HW113663   0.426   0.942   5.576
  544SOL    HW213664   0.385   0.851   5.446
  545SOL     OW13665   1.303   0.838   3.766
  545SOL    HW113666   1.337   0.745   3.781
  545SOL    HW213667   1.321   0.865   3.671
  546SOL     OW13668   0.339   0.509   4.730
  546SOL    HW113669   0.287   0.426   4.713
  546SOL    HW213670   0.416   0.514   4.666
  547SOL     OW13671   1.138   0.380   5.402
  547SOL    HW113672   1.093   0.443   5.466
  547SOL    HW213673   1.231   0.411   5.385
  548SOL     OW13674   1.160   0.207   5.201
  548SOL    HW113675   1.160   0.271   5.278
  548SOL    HW213676   1.188   0.255   5.118
  549SOL     OW13677   1.302   0.855   4.033
  549SOL    HW113678   1.216   0.824   4.075
  549SOL    HW213679   1.298   0.841   3.934
  550SOL     OW13680   0.688   1.662   5.440
  550SOL    HW113681   0.632   1.743   5.449
  550SOL    HW213682   0.740   1.666   5.354
  551SOL     OW13683   0.130   1.794   5.575
  551SOL    HW113684   0.089   1.720   5.628
  551SOL    HW213685   0.194   1.845   5.633
  552SOL     OW13686   1.280   0.927   4.396
  552SOL    HW113687   1.340   0.846   4.398
  552SOL    HW213688   1.320   0.996   4.336
  553SOL     OW13689   0.830   1.273   5.146
  553SOL    HW113690   0.825   1.306   5.241
  553SOL    HW213691   0.744   1.292   5.100
  554SOL     OW13692   0.672   1.616   3.878
  554SOL    HW113693   0.681   1.626   3.779
  554SOL    HW213694   0.632   1.527   3.899
  555SOL     OW13695   1.841   0.175   4.687
  555SOL    HW113696   1.880   0.090   4.651
  555SOL    HW213697   1.743   0.177   4.668
  556SOL     OW13698   1.614   1.292   5.013
  556SOL    HW113699   1.674   1.295   5.093
  556SOL    HW213700   1.539   1.356   5.026
  557SOL     OW13701   0.672   0.203   5.213
  557SOL    HW113702   0.762   0.187   5.173
  557SOL    HW213703   0.680   0.208   5.312
  558SOL     OW13704   1.493   1.767   4.683
  558SOL    HW113705   1.526   1.831   4.614
  558SOL    HW213706   1.559   1.761   4.758
  559SOL     OW13707   0.716   0.565   5.432
  559SOL    HW113708   0.735   0.630   5.506
  559SOL    HW213709   0.776   0.485   5.441
  560SOL     OW13710   1.674   0.883   4.978
  560SOL    HW113711   1.647   0.794   4.941
  560SOL    HW213712   1.675   0.951   4.905
  561SOL     OW13713   0.594   0.745   4.376
  561SOL    HW113714   0.644   0.830   4.357
  561SOL    HW213715   0.506   0.747   4.328
  562SOL     OW13716   1.777   0.342   5.366
  562SOL    HW113717   1.760   0.373   5.272
  562SOL    HW213718   1.693   0.305   5.404
  563SOL     OW13719   1.730   0.934   5.241
  563SOL    HW113720   1.768   1.025   5.256
  563SOL    HW213721   1.722   0.917   5.142
  564SOL     OW13722   1.083   0.984   3.811
  564SOL    HW113723   1.060   1.037   3.729
  564SOL    HW213724   1.164   0.928   3.792
  565SOL     OW13725   0.079   1.240   4.377
  565SOL    HW113726   0.078   1.193   4.465
  565SOL    HW213727   0.161   1.212   4.326
  566SOL     OW13728   0.672   1.391   5.348
  566SOL    HW113729   0.594   1.341   5.386
  566SOL    HW213730   0.669   1.486   5.379
  567SOL     OW13731   0.317   0.547   5.004
  567SOL    HW113732   0.355   0.488   5.076
  567SOL    HW213733   0.357   0.521   4.916
  568SOL     OW13734   1.424   0.214   4.836
  568SOL    HW113735   1.476   0.149   4.891
  568SOL    HW213736   1.375   0.277   4.897
  569SOL     OW13737   0.618   1.567   5.008
  569SOL    HW113738   0.613   1.649   5.065
  569SOL    HW213739   0.707   1.564   4.963
  570SOL     OW13740   0.875   1.646   4.061
  570SOL    HW113741   0.798   1.611   4.007
  570SOL    HW213742   0.843   1.717   4.123
  571SOL     OW13743   0.230   0.628   5.699
  571SOL    HW113744   0.137   0.626   5.736
  571SOL    HW213745   0.231   0.589   5.607
  572SOL     OW13746   0.225   0.275   6.582
  572SOL    HW113747   0.260   0.258   6.674
  572SOL    HW213748   0.137   0.230   6.570
  573SOL     OW13749   0.019   0.368   6.233
  573SOL    HW113750  -0.063   0.411   6.272
  573SOL    HW213751  -0.009   0.295   6.170
  574SOL     OW13752   0.569   1.275   6.751
  574SOL    HW113753   0.476   1.268   6.714
  574SOL    HW213754   0.580   1.364   6.795
  575SOL     OW13755   1.555   1.511   6.289
  575SOL    HW113756   1.498   1.495   6.370
  575SOL    HW213757   1.496   1.521   6.209
  576SOL     OW13758   1.135   0.703   6.303
  576SOL    HW113759   1.192   0.781   6.278
  576SOL    HW213760   1.075   0.729   6.379
  577SOL     OW13761   1.755   0.607   5.817
  577SOL    HW113762   1.743   0.594   5.718
  577SOL    HW213763   1.725   0.526   5.866
  578SOL     OW13764   0.768   1.144   6.609
  578SOL    HW113765   0.690   1.161   6.669
  578SOL    HW213766   0.802   1.231   6.573
  579SOL     OW13767   0.685   1.012   6.251
  579SOL    HW113768   0.754   0.996   6.321
  579SOL    HW213769   0.612   1.069   6.289
  580SOL     OW13770   0.335   1.435   6.647
  580SOL    HW113771   0.257   1.404   6.594
  580SOL    HW213772   0.393   1.493   6.590
  581SOL     OW13773   1.460   1.505   6.925
  581SOL    HW113774   1.484   1.599   6.951
  581SOL    HW213775   1.444   1.451   7.007
  582SOL     OW13776   0.438   0.392   7.085
  582SOL    HW113777   0.520   0.336   7.094
  582SOL    HW213778   0.357   0.334   7.089
  583SOL     OW13779   1.603   0.447   6.323
  583SOL    HW113780   1.529   0.493   6.273
  583SOL    HW213781   1.654   0.515   6.376
  584SOL     OW13782   0.231   1.713   6.069
  584SOL    HW113783   0.265   1.790   6.123
  584SOL    HW213784   0.275   1.713   5.979
  585SOL     OW13785   0.230   1.434   6.124
  585SOL    HW113786   0.204   1.530   6.124
  585SOL    HW213787   0.159   1.380   6.169
  586SOL     OW13788   0.240   1.091   6.472
  586SOL    HW113789   0.254   1.007   6.524
  586SOL    HW213790   0.185   1.155   6.527
  587SOL     OW13791   0.620   1.786   7.025
  587SOL    HW113792   0.528   1.769   7.060
  587SOL    HW213793   0.648   1.878   7.051
  588SOL     OW13794   0.606   0.964   5.709
  588SOL    HW113795   0.613   1.048   5.655
  588SOL    HW213796   0.652   0.977   5.797
  589SOL     OW13797   1.594   0.114   7.066
  589SOL    HW113798   1.576   0.181   6.994
  589SOL    HW213799   1.591   0.160   7.155
  590SOL     OW13800   0.122   0.643   6.149
  590SOL    HW113801   0.077   0.555   6.166
  590SOL    HW213802   0.121   0.697   6.233
  591SOL     OW13803   1.842   1.767   5.945
  591SOL    HW113804   1.896   1.738   6.025
  591SOL    HW213805   1.872   1.857   5.916
  592SOL     OW13806   0.027   1.596   5.703
  592SOL    HW113807   0.008   1.500   5.724
  592SOL    HW213808  -0.006   1.654   5.778
  593SOL     OW13809   1.689   0.922   6.198
  593SOL    HW113810   1.784   0.893   6.206
  593SOL    HW213811   1.681   0.987   6.123
  594SOL     OW13812   1.641   1.108   6.018
  594SOL    HW113813   1.727   1.110   5.966
  594SOL    HW213814   1.655   1.155   6.106
  595SOL     OW13815   0.613   1.365   6.312
  595SOL    HW113816   0.564   1.278   6.321
  595SOL    HW213817   0.590   1.408   6.225
  596SOL     OW13818   0.809   0.004   6.088
  596SOL    HW113819   0.849   0.095   6.079
  596SOL    HW213820   0.709   0.012   6.094
  597SOL     OW13821   0.197   0.976   6.850
  597SOL    HW113822   0.286   0.931   6.836
  597SOL    HW213823   0.124   0.911   6.831
  598SOL     OW13824   1.525   0.999   5.776
  598SOL    HW113825   1.462   0.923   5.789
  598SOL    HW213826   1.573   1.017   5.862
  599SOL     OW13827   1.466   1.417   6.539
  599SOL    HW113828   1.407   1.423   6.619
  599SOL    HW213829   1.451   1.329   6.493
  600SOL     OW13830   1.667   1.714   6.158
  600SOL    HW113831   1.626   1.691   6.070
  600SOL    HW213832   1.649   1.640   6.223
  601SOL     OW13833   0.598   0.729   5.856
  601SOL    HW113834   0.622   0.798   5.788
  601SOL    HW213835   0.520   0.762   5.910
  602SOL     OW13836   1.281   0.345   6.530
  602SOL    HW113837   1.195   0.295   6.517
  602SOL    HW213838   1.343   0.291   6.586
  603SOL     OW13839   1.576   1.662   5.893
  603SOL    HW113840   1.665   1.708   5.896
  603SOL    HW213841   1.555   1.638   5.798
  604SOL     OW13842   0.807   0.605   7.051
  604SOL    HW113843   0.760   0.602   7.140
  604SOL    HW213844   0.756   0.550   6.985
  605SOL     OW13845   0.991   0.410   6.828
  605SOL    HW113846   0.914   0.444   6.882
  605SOL    HW213847   0.957   0.359   6.749
  606SOL     OW13848   1.041   0.701   6.015
  606SOL    HW113849   1.067   0.697   6.111
  606SOL    HW213850   0.956   0.650   6.001
  607SOL     OW13851   0.076   0.811   6.375
  607SOL    HW113852   0.175   0.799   6.384
  607SOL    HW213853   0.052   0.906   6.396
  608SOL     OW13854   0.130   1.821   7.157
  608SOL    HW113855   0.120   1.806   7.256
  608SOL    HW213856   0.044   1.857   7.121
  609SOL     OW13857   0.865   0.348   5.781
  609SOL    HW113858   0.924   0.411   5.732
  609SOL    HW213859   0.884   0.254   5.752
  610SOL     OW13860   1.362   1.144   6.131
  610SOL    HW113861   1.445   1.115   6.083
  610SOL    HW213862   1.313   1.211   6.075
  611SOL     OW13863   0.550   0.196   6.471
  611SOL    HW113864   0.545   0.191   6.571
  611SOL    HW213865   0.552   0.292   6.442
  612SOL     OW13866   1.008   1.456   6.063
  612SOL    HW113867   0.962   1.528   6.011
  612SOL    HW213868   1.004   1.476   6.161
  613SOL     OW13869   0.351   1.801   6.439
  613SOL    HW113870   0.401   1.715   6.445
  613SOL    HW213871   0.416   1.878   6.436
  614SOL     OW13872   1.795   1.066   6.459
  614SOL    HW113873   1.733   1.051   6.383
  614SOL    HW213874   1.743   1.077   6.544
  615SOL     OW13875   0.321   0.943   5.828
  615SOL    HW113876   0.403   0.982   5.786
  615SOL    HW213877   0.294   0.861   5.779
  616SOL     OW13878   1.458   0.735   6.314
  616SOL    HW113879   1.453   0.670   6.389
  616SOL    HW213880   1.538   0.794   6.327
  617SOL     OW13881   1.111   1.776   5.823
  617SOL    HW113882   1.051   1.714   5.873
  617SOL    HW213883   1.142   1.732   5.738
  618SOL     OW13884   1.632   1.377   5.667
  618SOL    HW113885   1.600   1.471   5.657
  618SOL    HW213886   1.556   1.314   5.655
  619SOL     OW13887   0.464   1.743   5.909
  619SOL    HW113888   0.497   1.782   5.995
  619SOL    HW213889   0.540   1.736   5.844
  620SOL     OW13890   1.400   0.107   6.012
  620SOL    HW113891   1.376   0.070   5.922
  620SOL    HW213892   1.499   0.123   6.016
  621SOL     OW13893   0.249   1.785   6.827
  621SOL    HW113894   0.306   1.720   6.877
  621SOL    HW213895   0.233   1.752   6.734
  622SOL     OW13896   0.940   1.698   6.490
  622SOL    HW113897   1.020   1.641   6.511
  622SOL    HW213898   0.891   1.658   6.413
  623SOL     OW13899   0.382   0.700   6.066
  623SOL    HW113900   0.427   0.610   6.063
  623SOL    HW213901   0.288   0.689   6.099
  624SOL     OW13902   0.614   0.122   5.703
  624SOL    HW113903   0.712   0.100   5.710
  624SOL    HW213904   0.583   0.105   5.610
  625SOL     OW13905   0.888   1.514   6.781
  625SOL    HW113906   0.865   1.489   6.687
  625SOL    HW213907   0.949   1.445   6.820
  626SOL     OW13908   0.803   1.402   6.510
  626SOL    HW113909   0.893   1.416   6.468
  626SOL    HW213910   0.732   1.404   6.439
  627SOL     OW13911   0.922   0.503   6.485
  627SOL    HW113912   0.897   0.494   6.389
  627SOL    HW213913   0.970   0.421   6.516
  628SOL     OW13914   0.539   0.064   6.098
  628SOL    HW113915   0.458   0.065   6.156
  628SOL    HW213916   0.542   0.147   6.043
  629SOL     OW13917   1.434   1.188   5.627
  629SOL    HW113918   1.466   1.112   5.684
  629SOL    HW213919   1.342   1.215   5.657
  630SOL     OW13920   0.297   0.035   5.757
  630SOL    HW113921   0.346   0.119   5.736
  630SOL    HW213922   0.359  -0.030   5.802
  631SOL     OW13923   0.935   0.236   6.066
  631SOL    HW113924   0.887   0.277   5.988
  631SOL    HW213925   1.034   0.234   6.047
  632SOL     OW13926   1.227   1.570   6.379
  632SOL    HW113927   1.248   1.644   6.314
  632SOL    HW213928   1.295   1.570   6.452
  633SOL     OW13929   0.459   1.152   6.327
  633SOL    HW113930   0.388   1.125   6.392
  633SOL    HW213931   0.433   1.124   6.234
  634SOL     OW13932   1.271   1.797   6.177
  634SOL    HW113933   1.315   1.861   6.113
  634SOL    HW213934   1.221   1.849   6.247
  635SOL     OW13935   1.032   0.549   5.602
  635SOL    HW113936   0.991   0.631   5.563
  635SOL    HW213937   1.096   0.575   5.675
  636SOL     OW13938   0.078   0.556   6.972
  636SOL    HW113939   0.170   0.555   6.931
  636SOL    HW213940   0.072   0.630   7.039
  637SOL     OW13941   0.561   0.222   6.733
  637SOL    HW113942   0.599   0.138   6.770
  637SOL    HW213943   0.473   0.241   6.777
  638SOL     OW13944   0.866   0.454   6.228
  638SOL    HW113945   0.834   0.526   6.166
  638SOL    HW213946   0.890   0.373   6.175
  639SOL     OW13947   1.017   0.039   6.339
  639SOL    HW113948   0.945   0.044   6.270
  639SOL    HW213949   0.993  -0.030   6.408
  640SOL     OW13950   1.429   1.173   6.453
  640SOL    HW113951   1.374   1.089   6.446
  640SOL    HW213952   1.455   1.202   6.361
  641SOL     OW13953   1.466   0.590   6.578
  641SOL    HW113954   1.436   0.495   6.585
  641SOL    HW213955   1.539   0.606   6.644
  642SOL     OW13956   1.857   0.833   5.963
  642SOL    HW113957   1.899   0.769   6.027
  642SOL    HW213958   1.819   0.782   5.885
  643SOL     OW13959   0.488   1.385   5.760
  643SOL    HW113960   0.401   1.370   5.807
  643SOL    HW213961   0.471   1.411   5.665
  644SOL     OW13962   1.664   1.280   6.243
  644SOL    HW113963   1.763   1.288   6.257
  644SOL    HW213964   1.619   1.364   6.274
  645SOL     OW13965   1.390   0.575   5.664
  645SOL    HW113966   1.336   0.554   5.745
  645SOL    HW213967   1.481   0.534   5.673
  646SOL     OW13968   0.527   0.256   5.914
  646SOL    HW113969   0.554   0.197   5.839
  646SOL    HW213970   0.527   0.351   5.883
  647SOL     OW13971   1.064   1.347   6.926
  647SOL    HW113972   0.984   1.324   6.981
  647SOL    HW213973   1.147   1.321   6.975
  648SOL     OW13974   1.111   1.195   6.686
  648SOL    HW113975   1.071   1.239   6.767
  648SOL    HW213976   1.070   1.232   6.603
  649SOL     OW13977   1.638   1.099   6.665
  649SOL    HW113978   1.643   1.180   6.724
  649SOL    HW213979   1.552   1.101   6.614
  650SOL     OW13980   0.915   0.089   6.988
  650SOL    HW113981   0.940   0.069   6.893
  650SOL    HW213982   0.987   0.145   7.030
  651SOL     OW13983   0.705   1.050   5.954
  651SOL    HW113984   0.691   1.057   6.053
  651SOL    HW213985   0.789   0.999   5.936
  652SOL     OW13986   0.410   0.813   6.837
  652SOL    HW113987   0.496   0.825   6.887
  652SOL    HW213988   0.368   0.726   6.864
  653SOL     OW13989   1.274   0.386   6.848
  653SOL    HW113990   1.295   0.460   6.912
  653SOL    HW213991   1.185   0.403   6.805
  654SOL     OW13992   0.064   1.564   6.917
  654SOL    HW113993   0.018   1.646   6.883
  654SOL    HW213994   0.162   1.583   6.926
  655SOL     OW13995   0.367   1.100   6.087
  655SOL    HW113996   0.360   1.183   6.031
  655SOL    HW213997   0.371   1.020   6.027
  656SOL     OW13998   0.566   0.537   6.451
  656SOL    HW113999   0.578   0.603   6.377
  656SOL    HW214000   0.612   0.571   6.534
  657SOL     OW14001   1.252   1.348   5.974
  657SOL    HW114002   1.302   1.425   6.014
  657SOL    HW214003   1.157   1.350   6.006
  658SOL     OW14004   1.272   1.445   6.728
  658SOL    HW114005   1.319   1.458   6.815
  658SOL    HW214006   1.206   1.371   6.737
  659SOL     OW14007   1.582   0.639   6.058
  659SOL    HW114008   1.551   0.700   6.131
  659SOL    HW214009   1.632   0.691   5.989
  660SOL     OW14010   0.354   1.510   6.915
  660SOL    HW114011   0.333   1.466   6.828
  660SOL    HW214012   0.451   1.536   6.918
  661SOL     OW14013   0.402   0.751   7.184
  661SOL    HW114014   0.470   0.806   7.137
  661SOL    HW214015   0.442   0.663   7.211
  662SOL     OW14016   1.587   0.779   7.256
  662SOL    HW114017   1.495   0.817   7.251
  662SOL    HW214018   1.647   0.826   7.191
  663SOL     OW14019   0.573   0.870   6.615
  663SOL    HW114020   0.617   0.959   6.606
  663SOL    HW214021   0.510   0.870   6.692
  664SOL     OW14022   1.360   0.862   6.631
  664SOL    HW114023   1.285   0.862   6.565
  664SOL    HW214024   1.397   0.770   6.640
  665SOL     OW14025   1.209   0.525   5.861
  665SOL    HW114026   1.222   0.441   5.915
  665SOL    HW214027   1.180   0.599   5.921
  666SOL     OW14028   0.307   0.213   6.817
  666SOL    HW114029   0.284   0.250   6.907
  666SOL    HW214030   0.277   0.118   6.811
  667SOL     OW14031   0.037   1.310   6.868
  667SOL    HW114032   0.090   1.261   6.936
  667SOL    HW214033   0.059   1.408   6.873
  668SOL     OW14034   0.732   0.634   6.650
  668SOL    HW114035   0.791   0.608   6.574
  668SOL    HW214036   0.704   0.730   6.639
  669SOL     OW14037   0.307   0.063   6.204
  669SOL    HW114038   0.296   0.157   6.237
  669SOL    HW214039   0.302   0.000   6.281
  670SOL     OW14040   1.622   0.367   5.960
  670SOL    HW114041   1.624   0.291   6.024
  670SOL    HW214042   1.574   0.444   6.000
  671SOL     OW14043   1.023   0.766   6.552
  671SOL    HW114044   1.038   0.787   6.648
  671SOL    HW214045   0.993   0.671   6.543
  672SOL     OW14046   0.980   1.573   7.286
  672SOL    HW114047   0.960   1.617   7.198
  672SOL    HW214048   1.019   1.482   7.270
  673SOL     OW14049   1.540   0.274   5.711
  673SOL    HW114050   1.479   0.199   5.734
  673SOL    HW214051   1.562   0.326   5.794
  674SOL     OW14052   1.303   0.838   5.628
  674SOL    HW114053   1.337   0.745   5.643
  674SOL    HW214054   1.321   0.865   5.533
  675SOL     OW14055   1.068   1.333   6.435
  675SOL    HW114056   1.075   1.249   6.380
  675SOL    HW214057   1.130   1.402   6.399
  676SOL     OW14058   0.319   0.810   6.535
  676SOL    HW114059   0.412   0.846   6.540
  676SOL    HW214060   0.313   0.725   6.587
  677SOL     OW14061   0.339   0.509   6.592
  677SOL    HW114062   0.287   0.426   6.575
  677SOL    HW214063   0.416   0.514   6.528
  678SOL     OW14064   1.138   0.380   7.264
  678SOL    HW114065   1.093   0.443   7.328
  678SOL    HW214066   1.231   0.411   7.247
  679SOL     OW14067   1.160   0.207   7.063
  679SOL    HW114068   1.160   0.271   7.140
  679SOL    HW214069   1.188   0.255   6.980
  680SOL     OW14070   0.008   1.326   5.786
  680SOL    HW114071  -0.085   1.347   5.755
  680SOL    HW214072   0.018   1.227   5.799
  681SOL     OW14073   0.088   1.801   6.513
  681SOL    HW114074   0.046   1.715   6.486
  681SOL    HW214075   0.182   1.804   6.479
  682SOL     OW14076   0.504   1.568   6.496
  682SOL    HW114077   0.570   1.642   6.505
  682SOL    HW214078   0.548   1.489   6.454
  683SOL     OW14079   1.002   0.796   6.824
  683SOL    HW114080   1.043   0.764   6.910
  683SOL    HW214081   0.906   0.769   6.821
  684SOL     OW14082   0.040   0.544   6.700
  684SOL    HW114083   0.125   0.511   6.659
  684SOL    HW214084   0.053   0.559   6.798
  685SOL     OW14085   0.815   0.572   5.911
  685SOL    HW114086   0.822   0.483   5.865
  685SOL    HW214087   0.721   0.606   5.903
  686SOL     OW14088   1.657   0.604   6.792
  686SOL    HW114089   1.619   0.535   6.854
  686SOL    HW214090   1.739   0.568   6.748
  687SOL     OW14091   0.671   0.464   6.855
  687SOL    HW114092   0.637   0.375   6.825
  687SOL    HW214093   0.697   0.518   6.775
  688SOL     OW14094   0.930   1.678   7.051
  688SOL    HW114095   0.906   1.660   6.956
  688SOL    HW214096   0.960   1.772   7.061
  689SOL     OW14097   0.473   0.500   5.777
  689SOL    HW114098   0.534   0.580   5.781
  689SOL    HW214099   0.378   0.531   5.784
  690SOL     OW14100   0.159   1.137   7.052
  690SOL    HW114101   0.181   1.076   7.128
  690SOL    HW214102   0.169   1.088   6.966
  691SOL     OW14103   1.347   1.059   6.820
  691SOL    HW114104   1.371   0.996   6.746
  691SOL    HW214105   1.257   1.099   6.802
  692SOL     OW14106   1.302   0.855   5.895
  692SOL    HW114107   1.216   0.824   5.937
  692SOL    HW214108   1.298   0.841   5.796
  693SOL     OW14109   1.759   1.747   6.740
  693SOL    HW114110   1.820   1.777   6.667
  693SOL    HW214111   1.721   1.658   6.718
  694SOL     OW14112   1.252   1.731   6.714
  694SOL    HW114113   1.336   1.736   6.660
  694SOL    HW214114   1.229   1.635   6.732
  695SOL     OW14115   0.083   1.258   6.608
  695SOL    HW114116   0.078   1.257   6.708
  695SOL    HW214117   0.000   1.217   6.570
  696SOL     OW14118   1.726   0.135   6.109
  696SOL    HW114119   1.799   0.118   6.042
  696SOL    HW214120   1.695   0.048   6.147
  697SOL     OW14121   1.388   1.573   6.063
  697SOL    HW114122   1.455   1.585   5.989
  697SOL    HW214123   1.348   1.662   6.086
  698SOL     OW14124   1.280   0.927   6.258
  698SOL    HW114125   1.340   0.846   6.260
  698SOL    HW214126   1.320   0.996   6.198
  699SOL     OW14127   0.672   1.616   5.740
  699SOL    HW114128   0.681   1.626   5.641
  699SOL    HW214129   0.632   1.527   5.761
  700SOL     OW14130   1.650   1.720   6.980
  700SOL    HW114131   1.703   1.730   6.896
  700SOL    HW214132   1.623   1.810   7.014
  701SOL     OW14133   1.841   0.175   6.549
  701SOL    HW114134   1.880   0.090   6.513
  701SOL    HW214135   1.743   0.177   6.530
  702SOL     OW14136   0.263   0.326   6.306
  702SOL    HW114137   0.184   0.377   6.272
  702SOL    HW214138   0.254   0.311   6.404
  703SOL     OW14139   1.194   1.612   5.617
  703SOL    HW114140   1.200   1.519   5.654
  703SOL    HW214141   1.135   1.612   5.537
  704SOL     OW14142   0.822   1.002   6.958
  704SOL    HW114143   0.862   1.001   6.866
  704SOL    HW214144   0.832   1.094   6.998
  705SOL     OW14145   0.916   0.910   5.877
  705SOL    HW114146   0.979   0.948   5.809
  705SOL    HW214147   0.956   0.827   5.916
  706SOL     OW14148   0.372   1.288   7.076
  706SOL    HW114149   0.359   1.381   7.042
  706SOL    HW214150   0.288   1.236   7.063
  707SOL     OW14151   1.614   1.292   6.875
  707SOL    HW114152   1.674   1.295   6.955
  707SOL    HW214153   1.539   1.356   6.888
  708SOL     OW14154   1.039   1.098   6.282
  708SOL    HW114155   0.969   1.051   6.336
  708SOL    HW214156   1.098   1.030   6.239
  709SOL     OW14157   1.014   0.236   6.557
  709SOL    HW114158   1.006   0.200   6.464
  709SOL    HW214159   1.012   0.160   6.622
  710SOL     OW14160   0.590   1.487   6.077
  710SOL    HW114161   0.632   1.429   6.007
  710SOL    HW214162   0.546   1.566   6.033
  711SOL     OW14163   1.709   0.385   6.967
  711SOL    HW114164   1.782   0.454   6.971
  711SOL    HW214165   1.737   0.310   6.908
  712SOL     OW14166   0.255   1.348   5.876
  712SOL    HW114167   0.159   1.349   5.849
  712SOL    HW214168   0.267   1.401   5.960
  713SOL     OW14169   0.075   0.345   5.619
  713SOL    HW114170  -0.017   0.317   5.590
  713SOL    HW214171   0.106   0.422   5.563
  714SOL     OW14172   1.440   0.856   6.984
  714SOL    HW114173   1.383   0.908   6.921
  714SOL    HW214174   1.536   0.868   6.960
  715SOL     OW14175   0.072   0.166   5.904
  715SOL    HW114176   0.055   0.249   5.850
  715SOL    HW214177   0.162   0.129   5.882
  716SOL     OW14178   1.183   1.335   5.705
  716SOL    HW114179   1.084   1.324   5.707
  716SOL    HW214180   1.217   1.350   5.798
  717SOL     OW14181   0.613   0.842   7.017
  717SOL    HW114182   0.669   0.923   7.000
  717SOL    HW214183   0.672   0.762   7.020
  718SOL     OW14184   1.493   1.767   6.545
  718SOL    HW114185   1.526   1.831   6.476
  718SOL    HW214186   1.559   1.761   6.620
  719SOL     OW14187   0.390   1.741   7.146
  719SOL    HW114188   0.299   1.782   7.144
  719SOL    HW214189   0.383   1.647   7.178
  720SOL     OW14190   1.674   0.883   6.840
  720SOL    HW114191   1.647   0.794   6.803
  720SOL    HW214192   1.675   0.951   6.767
  721SOL     OW14193   1.225   0.325   6.035
  721SOL    HW114194   1.290   0.251   6.024
  721SOL    HW214195   1.245   0.375   6.119
  722SOL     OW14196   0.594   0.745   6.238
  722SOL    HW114197   0.644   0.830   6.219
  722SOL    HW214198   0.506   0.747   6.190
  723SOL     OW14199   1.777   0.342   7.228
  723SOL    HW114200   1.760   0.373   7.134
  723SOL    HW214201   1.693   0.305   7.266
  724SOL     OW14202   1.730   0.934   7.103
  724SOL    HW114203   1.768   1.025   7.118
  724SOL    HW214204   1.722   0.917   7.004
  725SOL     OW14205   0.859   1.374   5.602
  725SOL    HW114206   0.813   1.389   5.690
  725SOL    HW214207   0.903   1.459   5.572
  726SOL     OW14208   0.661   1.790   6.539
  726SOL    HW114209   0.615   1.878   6.526
  726SOL    HW214210   0.760   1.802   6.532
  727SOL     OW14211   0.859   0.956   6.447
  727SOL    HW114212   0.913   0.887   6.495
  727SOL    HW214213   0.827   1.025   6.513
  728SOL     OW14214   1.083   0.984   5.673
  728SOL    HW114215   1.060   1.037   5.591
  728SOL    HW214216   1.164   0.928   5.654
  729SOL     OW14217   1.861   1.569   6.437
  729SOL    HW114218   1.790   1.557   6.367
  729SOL    HW214219   1.862   1.490   6.497
  730SOL     OW14220   0.079   1.240   6.239
  730SOL    HW114221   0.078   1.193   6.327
  730SOL    HW214222   0.161   1.212   6.188
  731SOL     OW14223   1.824   0.192   6.813
  731SOL    HW114224   1.820   0.102   6.857
  731SOL    HW214225   1.827   0.181   6.714
  732SOL     OW14226   0.428   0.424   6.106
  732SOL    HW114227   0.458   0.352   6.044
  732SOL    HW214228   0.389   0.384   6.189
  733SOL     OW14229   1.705   1.487   6.690
  733SOL    HW114230   1.612   1.462   6.663
  733SOL    HW214231   1.731   1.437   6.772
  734SOL     OW14232   0.317   0.547   6.866
  734SOL    HW114233   0.355   0.488   6.938
  734SOL    HW214234   0.357   0.521   6.778
  735SOL     OW14235   0.812   1.586   6.273
  735SOL    HW114236   0.844   1.596   6.179
  735SOL    HW214237   0.733   1.524   6.275
  736SOL     OW14238   1.424   0.214   6.698
  736SOL    HW114239   1.476   0.149   6.753
  736SOL    HW214240   1.375   0.277   6.759
  737SOL     OW14241   1.001   0.034   6.740
  737SOL    HW114242   0.938  -0.038   6.709
  737SOL    HW214243   1.094  -0.002   6.740
  738SOL     OW14244   0.770   1.330   5.887
  738SOL    HW114245   0.724   1.243   5.904
  738SOL    HW214246   0.861   1.327   5.928
  739SOL     OW14247   0.618   1.567   6.870
  739SOL    HW114248   0.613   1.649   6.927
  739SOL    HW214249   0.707   1.564   6.825
  740SOL     OW14250   1.352   0.052   5.754
  740SOL    HW114251   1.387   0.011   5.670
  740SOL    HW214252   1.262   0.014   5.774
  741SOL     OW14253   1.300   0.453   6.277
  741SOL    HW114254   1.241   0.533   6.281
  741SOL    HW214255   1.315   0.418   6.370
  742SOL     OW14256   1.593   0.221   6.468
  742SOL    HW114257   1.509   0.220   6.522
  742SOL    HW214258   1.595   0.304   6.412
  743SOL     OW14259   0.039   1.077   5.886
  743SOL    HW114260   0.138   1.066   5.877
  743SOL    HW214261  -0.001   0.991   5.918
  744SOL     OW14262   0.875   1.646   5.923
  744SOL    HW114263   0.798   1.611   5.869
  744SOL    HW214264   0.843   1.717   5.985
  745SOL     OW14265   0.230   2.490   0.113
  745SOL    HW114266   0.137   2.488   0.150
  745SOL    HW214267   0.231   2.451   0.021
  746SOL     OW14268   0.225   2.137   0.996
  746SOL    HW114269   0.260   2.120   1.088
  746SOL    HW214270   0.137   2.092   0.984
  747SOL     OW14271   0.019   2.230   0.647
  747SOL    HW114272  -0.063   2.273   0.686
  747SOL    HW214273  -0.009   2.157   0.584
  748SOL     OW14274   0.569   3.137   1.165
  748SOL    HW114275   0.476   3.130   1.128
  748SOL    HW214276   0.580   3.226   1.209
  749SOL     OW14277   1.555   3.373   0.703
  749SOL    HW114278   1.498   3.357   0.784
  749SOL    HW214279   1.496   3.383   0.623
  750SOL     OW14280   1.135   2.565   0.717
  750SOL    HW114281   1.192   2.643   0.692
  750SOL    HW214282   1.075   2.591   0.793
  751SOL     OW14283   1.755   2.469   0.231
  751SOL    HW114284   1.743   2.456   0.132
  751SOL    HW214285   1.725   2.388   0.280
  752SOL     OW14286   0.768   3.006   1.023
  752SOL    HW114287   0.690   3.023   1.083
  752SOL    HW214288   0.802   3.093   0.987
  753SOL     OW14289   0.685   2.874   0.665
  753SOL    HW114290   0.754   2.858   0.735
  753SOL    HW214291   0.612   2.931   0.703
  754SOL     OW14292   0.335   3.297   1.061
  754SOL    HW114293   0.257   3.266   1.008
  754SOL    HW214294   0.393   3.355   1.004
  755SOL     OW14295   1.460   3.367   1.339
  755SOL    HW114296   1.484   3.461   1.365
  755SOL    HW214297   1.444   3.313   1.421
  756SOL     OW14298   0.438   2.254   1.499
  756SOL    HW114299   0.520   2.198   1.508
  756SOL    HW214300   0.357   2.196   1.503
  757SOL     OW14301   1.603   2.309   0.737
  757SOL    HW114302   1.529   2.355   0.687
  757SOL    HW214303   1.654   2.377   0.790
  758SOL     OW14304   0.231   3.575   0.483
  758SOL    HW114305   0.265   3.652   0.537
  758SOL    HW214306   0.275   3.575   0.393
  759SOL     OW14307   0.230   3.296   0.538
  759SOL    HW114308   0.204   3.392   0.538
  759SOL    HW214309   0.159   3.242   0.583
  760SOL     OW14310   0.240   2.953   0.886
  760SOL    HW114311   0.254   2.869   0.938
  760SOL    HW214312   0.185   3.017   0.941
  761SOL     OW14313   0.606   2.826   0.123
  761SOL    HW114314   0.613   2.910   0.069
  761SOL    HW214315   0.652   2.839   0.211
  762SOL     OW14316   0.122   2.505   0.563
  762SOL    HW114317   0.077   2.417   0.580
  762SOL    HW214318   0.121   2.559   0.647
  763SOL     OW14319   1.842   3.629   0.359
  763SOL    HW114320   1.896   3.600   0.439
  763SOL    HW214321   1.872   3.719   0.330
  764SOL     OW14322   0.027   3.458   0.117
  764SOL    HW114323   0.008   3.362   0.138
  764SOL    HW214324  -0.006   3.516   0.192
  765SOL     OW14325   1.689   2.784   0.612
  765SOL    HW114326   1.784   2.755   0.620
  765SOL    HW214327   1.681   2.849   0.537
  766SOL     OW14328   1.641   2.970   0.432
  766SOL    HW114329   1.727   2.972   0.380
  766SOL    HW214330   1.655   3.017   0.520
  767SOL     OW14331   0.613   3.227   0.726
  767SOL    HW114332   0.564   3.140   0.735
  767SOL    HW214333   0.590   3.270   0.639
  768SOL     OW14334   0.809   1.866   0.502
  768SOL    HW114335   0.849   1.957   0.493
  768SOL    HW214336   0.709   1.874   0.508
  769SOL     OW14337   1.525   2.861   0.190
  769SOL    HW114338   1.462   2.785   0.203
  769SOL    HW214339   1.573   2.879   0.276
  770SOL     OW14340   1.466   3.279   0.953
  770SOL    HW114341   1.407   3.285   1.033
  770SOL    HW214342   1.451   3.191   0.907
  771SOL     OW14343   1.667   3.576   0.572
  771SOL    HW114344   1.626   3.553   0.484
  771SOL    HW214345   1.649   3.502   0.637
  772SOL     OW14346   0.598   2.591   0.270
  772SOL    HW114347   0.622   2.660   0.202
  772SOL    HW214348   0.520   2.624   0.324
  773SOL     OW14349   1.281   2.207   0.944
  773SOL    HW114350   1.195   2.157   0.931
  773SOL    HW214351   1.343   2.153   1.000
  774SOL     OW14352   1.576   3.524   0.307
  774SOL    HW114353   1.665   3.570   0.310
  774SOL    HW214354   1.555   3.500   0.212
  775SOL     OW14355   0.807   2.467   1.465
  775SOL    HW114356   0.760   2.464   1.554
  775SOL    HW214357   0.756   2.412   1.399
  776SOL     OW14358   0.973   2.752   1.572
  776SOL    HW114359   1.019   2.668   1.543
  776SOL    HW214360   0.917   2.786   1.497
  777SOL     OW14361   1.041   2.563   0.429
  777SOL    HW114362   1.067   2.559   0.525
  777SOL    HW214363   0.956   2.512   0.415
  778SOL     OW14364   0.076   2.673   0.789
  778SOL    HW114365   0.175   2.661   0.798
  778SOL    HW214366   0.052   2.768   0.810
  779SOL     OW14367   0.865   2.210   0.195
  779SOL    HW114368   0.924   2.273   0.146
  779SOL    HW214369   0.884   2.116   0.166
  780SOL     OW14370   1.719   2.447   1.831
  780SOL    HW114371   1.693   2.536   1.795
  780SOL    HW214372   1.717   2.379   1.758
  781SOL     OW14373   1.362   3.006   0.545
  781SOL    HW114374   1.445   2.977   0.497
  781SOL    HW214375   1.313   3.073   0.489
  782SOL     OW14376   0.550   2.058   0.885
  782SOL    HW114377   0.545   2.053   0.985
  782SOL    HW214378   0.552   2.154   0.856
  783SOL     OW14379   1.008   3.318   0.477
  783SOL    HW114380   0.962   3.390   0.425
  783SOL    HW214381   1.004   3.338   0.575
  784SOL     OW14382   0.351   3.663   0.853
  784SOL    HW114383   0.401   3.577   0.859
  784SOL    HW214384   0.416   3.740   0.850
  785SOL     OW14385   1.795   2.928   0.873
  785SOL    HW114386   1.733   2.913   0.797
  785SOL    HW214387   1.743   2.939   0.958
  786SOL     OW14388   0.321   2.805   0.242
  786SOL    HW114389   0.403   2.844   0.200
  786SOL    HW214390   0.294   2.723   0.193
  787SOL     OW14391   1.458   2.597   0.728
  787SOL    HW114392   1.453   2.532   0.803
  787SOL    HW214393   1.538   2.656   0.741
  788SOL     OW14394   1.111   3.638   0.237
  788SOL    HW114395   1.051   3.576   0.287
  788SOL    HW214396   1.142   3.594   0.152
  789SOL     OW14397   0.202   2.147   1.498
  789SOL    HW114398   0.122   2.207   1.485
  789SOL    HW214399   0.192   2.098   1.584
  790SOL     OW14400   1.632   3.239   0.081
  790SOL    HW114401   1.600   3.333   0.071
  790SOL    HW214402   1.556   3.176   0.069
  791SOL     OW14403   0.464   3.605   0.323
  791SOL    HW114404   0.497   3.644   0.409
  791SOL    HW214405   0.540   3.598   0.258
  792SOL     OW14406   1.400   1.969   0.426
  792SOL    HW114407   1.376   1.932   0.336
  792SOL    HW214408   1.499   1.985   0.430
  793SOL     OW14409   0.249   3.647   1.241
  793SOL    HW114410   0.306   3.582   1.291
  793SOL    HW214411   0.233   3.614   1.148
  794SOL     OW14412   0.940   3.560   0.904
  794SOL    HW114413   1.020   3.503   0.925
  794SOL    HW214414   0.891   3.520   0.827
  795SOL     OW14415   0.382   2.562   0.480
  795SOL    HW114416   0.427   2.472   0.477
  795SOL    HW214417   0.288   2.551   0.513
  796SOL     OW14418   0.614   1.984   0.117
  796SOL    HW114419   0.712   1.962   0.124
  796SOL    HW214420   0.583   1.967   0.024
  797SOL     OW14421   0.888   3.376   1.195
  797SOL    HW114422   0.865   3.351   1.101
  797SOL    HW214423   0.949   3.307   1.234
  798SOL     OW14424   1.351   2.452   1.433
  798SOL    HW114425   1.379   2.409   1.518
  798SOL    HW214426   1.376   2.548   1.434
  799SOL     OW14427   0.803   3.264   0.924
  799SOL    HW114428   0.893   3.278   0.882
  799SOL    HW214429   0.732   3.266   0.853
  800SOL     OW14430   0.922   2.365   0.899
  800SOL    HW114431   0.897   2.356   0.803
  800SOL    HW214432   0.970   2.283   0.930
  801SOL     OW14433   0.539   1.926   0.512
  801SOL    HW114434   0.458   1.927   0.570
  801SOL    HW214435   0.542   2.009   0.457
  802SOL     OW14436   1.434   3.050   0.041
  802SOL    HW114437   1.466   2.974   0.098
  802SOL    HW214438   1.342   3.077   0.071
  803SOL     OW14439   0.297   1.897   0.171
  803SOL    HW114440   0.346   1.981   0.150
  803SOL    HW214441   0.359   1.832   0.216
  804SOL     OW14442   0.935   2.098   0.480
  804SOL    HW114443   0.887   2.139   0.402
  804SOL    HW214444   1.034   2.096   0.461
  805SOL     OW14445   1.076   2.545   1.464
  805SOL    HW114446   0.996   2.484   1.467
  805SOL    HW214447   1.157   2.492   1.440
  806SOL     OW14448   0.459   3.014   0.741
  806SOL    HW114449   0.388   2.987   0.806
  806SOL    HW214450   0.433   2.986   0.648
  807SOL     OW14451   1.271   3.659   0.591
  807SOL    HW114452   1.315   3.723   0.527
  807SOL    HW214453   1.221   3.711   0.661
  808SOL     OW14454   1.032   2.411   0.016
  808SOL    HW114455   0.991   2.493  -0.023
  808SOL    HW214456   1.096   2.437   0.089
  809SOL     OW14457   0.561   2.084   1.147
  809SOL    HW114458   0.599   2.000   1.184
  809SOL    HW214459   0.473   2.103   1.191
  810SOL     OW14460   0.866   2.316   0.642
  810SOL    HW114461   0.834   2.388   0.580
  810SOL    HW214462   0.890   2.235   0.589
  811SOL     OW14463   1.017   1.901   0.753
  811SOL    HW114464   0.945   1.906   0.684
  811SOL    HW214465   0.993   1.832   0.822
  812SOL     OW14466   1.429   3.035   0.867
  812SOL    HW114467   1.374   2.951   0.860
  812SOL    HW214468   1.455   3.064   0.775
  813SOL     OW14469   1.466   2.452   0.992
  813SOL    HW114470   1.436   2.357   0.999
  813SOL    HW214471   1.539   2.468   1.058
  814SOL     OW14472   1.857   2.695   0.377
  814SOL    HW114473   1.899   2.631   0.441
  814SOL    HW214474   1.819   2.644   0.299
  815SOL     OW14475   0.488   3.247   0.174
  815SOL    HW114476   0.401   3.232   0.221
  815SOL    HW214477   0.471   3.273   0.079
  816SOL     OW14478   1.664   3.142   0.657
  816SOL    HW114479   1.763   3.150   0.671
  816SOL    HW214480   1.619   3.226   0.688
  817SOL     OW14481   1.390   2.437   0.078
  817SOL    HW114482   1.336   2.416   0.159
  817SOL    HW214483   1.481   2.396   0.087
  818SOL     OW14484   0.527   2.118   0.328
  818SOL    HW114485   0.554   2.059   0.253
  818SOL    HW214486   0.527   2.213   0.297
  819SOL     OW14487   1.064   3.209   1.340
  819SOL    HW114488   0.984   3.186   1.395
  819SOL    HW214489   1.147   3.183   1.389
  820SOL     OW14490   1.111   3.057   1.100
  820SOL    HW114491   1.071   3.101   1.181
  820SOL    HW214492   1.070   3.094   1.017
  821SOL     OW14493   1.638   2.961   1.079
  821SOL    HW114494   1.643   3.042   1.138
  821SOL    HW214495   1.552   2.963   1.028
  822SOL     OW14496   0.980   2.978   1.719
  822SOL    HW114497   0.881   2.984   1.729
  822SOL    HW214498   1.003   2.898   1.663
  823SOL     OW14499   0.705   2.912   0.368
  823SOL    HW114500   0.691   2.919   0.467
  823SOL    HW214501   0.789   2.861   0.350
  824SOL     OW14502   0.367   2.962   0.501
  824SOL    HW114503   0.360   3.045   0.445
  824SOL    HW214504   0.371   2.882   0.441
  825SOL     OW14505   0.566   2.399   0.865
  825SOL    HW114506   0.578   2.465   0.791
  825SOL    HW214507   0.612   2.433   0.948
  826SOL     OW14508   1.252   3.210   0.388
  826SOL    HW114509   1.302   3.287   0.428
  826SOL    HW214510   1.157   3.212   0.420
  827SOL     OW14511   1.272   3.307   1.142
  827SOL    HW114512   1.319   3.320   1.229
  827SOL    HW214513   1.206   3.233   1.151
  828SOL     OW14514   1.582   2.501   0.472
  828SOL    HW114515   1.551   2.562   0.545
  828SOL    HW214516   1.632   2.553   0.403
  829SOL     OW14517   0.354   3.372   1.329
  829SOL    HW114518   0.333   3.328   1.242
  829SOL    HW214519   0.451   3.398   1.332
  830SOL     OW14520   1.013   1.967   1.770
  830SOL    HW114521   1.019   2.052   1.718
  830SOL    HW214522   1.045   1.891   1.713
  831SOL     OW14523   0.573   2.732   1.029
  831SOL    HW114524   0.617   2.821   1.020
  831SOL    HW214525   0.510   2.732   1.106
  832SOL     OW14526   1.360   2.724   1.045
  832SOL    HW114527   1.285   2.724   0.979
  832SOL    HW214528   1.397   2.632   1.054
  833SOL     OW14529   1.209   2.387   0.275
  833SOL    HW114530   1.222   2.303   0.329
  833SOL    HW214531   1.180   2.461   0.335
  834SOL     OW14532   0.307   2.075   1.231
  834SOL    HW114533   0.284   2.112   1.321
  834SOL    HW214534   0.277   1.980   1.225
  835SOL     OW14535   0.732   2.496   1.064
  835SOL    HW114536   0.791   2.470   0.988
  835SOL    HW214537   0.704   2.592   1.053
  836SOL     OW14538   0.307   1.925   0.618
  836SOL    HW114539   0.296   2.019   0.651
  836SOL    HW214540   0.302   1.862   0.695
  837SOL     OW14541   1.622   2.229   0.374
  837SOL    HW114542   1.624   2.153   0.438
  837SOL    HW214543   1.574   2.306   0.414
  838SOL     OW14544   1.023   2.628   0.966
  838SOL    HW114545   1.038   2.649   1.062
  838SOL    HW214546   0.993   2.533   0.957
  839SOL     OW14547   1.540   2.136   0.125
  839SOL    HW114548   1.479   2.061   0.148
  839SOL    HW214549   1.562   2.188   0.208
  840SOL     OW14550   1.303   2.700   0.042
  840SOL    HW114551   1.337   2.607   0.057
  840SOL    HW214552   1.321   2.727  -0.053
  841SOL     OW14553   1.068   3.195   0.849
  841SOL    HW114554   1.075   3.111   0.794
  841SOL    HW214555   1.130   3.264   0.813
  842SOL     OW14556   0.319   2.672   0.949
  842SOL    HW114557   0.412   2.708   0.954
  842SOL    HW214558   0.313   2.587   1.001
  843SOL     OW14559   0.339   2.371   1.006
  843SOL    HW114560   0.287   2.288   0.989
  843SOL    HW214561   0.416   2.376   0.942
  844SOL     OW14562   0.008   3.188   0.200
  844SOL    HW114563  -0.085   3.209   0.169
  844SOL    HW214564   0.018   3.089   0.213
  845SOL     OW14565   0.088   3.663   0.927
  845SOL    HW114566   0.046   3.577   0.900
  845SOL    HW214567   0.182   3.666   0.893
  846SOL     OW14568   0.504   3.430   0.910
  846SOL    HW114569   0.570   3.504   0.919
  846SOL    HW214570   0.548   3.351   0.868
  847SOL     OW14571   1.002   2.658   1.238
  847SOL    HW114572   1.043   2.626   1.324
  847SOL    HW214573   0.906   2.631   1.235
  848SOL     OW14574   0.040   2.406   1.114
  848SOL    HW114575   0.125   2.373   1.073
  848SOL    HW214576   0.053   2.421   1.212
  849SOL     OW14577   0.815   2.434   0.325
  849SOL    HW114578   0.822   2.345   0.279
  849SOL    HW214579   0.721   2.468   0.317
  850SOL     OW14580   1.657   2.466   1.206
  850SOL    HW114581   1.619   2.397   1.268
  850SOL    HW214582   1.739   2.430   1.162
  851SOL     OW14583   0.671   2.326   1.269
  851SOL    HW114584   0.637   2.237   1.239
  851SOL    HW214585   0.697   2.380   1.189
  852SOL     OW14586   0.473   2.362   0.191
  852SOL    HW114587   0.534   2.442   0.195
  852SOL    HW214588   0.378   2.393   0.198
  853SOL     OW14589   1.347   2.921   1.234
  853SOL    HW114590   1.371   2.858   1.160
  853SOL    HW214591   1.257   2.961   1.216
  854SOL     OW14592   1.302   2.717   0.309
  854SOL    HW114593   1.216   2.686   0.351
  854SOL    HW214594   1.298   2.703   0.210
  855SOL     OW14595   1.759   3.609   1.154
  855SOL    HW114596   1.820   3.639   1.081
  855SOL    HW214597   1.721   3.520   1.132
  856SOL     OW14598   0.083   3.120   1.022
  856SOL    HW114599   0.078   3.119   1.122
  856SOL    HW214600   0.000   3.079   0.984
  857SOL     OW14601   0.903   1.948   0.133
  857SOL    HW114602   0.954   1.949   0.047
  857SOL    HW214603   0.959   1.906   0.204
  858SOL     OW14604   1.726   1.997   0.523
  858SOL    HW114605   1.799   1.980   0.456
  858SOL    HW214606   1.695   1.910   0.561
  859SOL     OW14607   1.388   3.435   0.477
  859SOL    HW114608   1.455   3.447   0.403
  859SOL    HW214609   1.348   3.524   0.500
  860SOL     OW14610   1.280   2.789   0.672
  860SOL    HW114611   1.340   2.708   0.674
  860SOL    HW214612   1.320   2.858   0.612
  861SOL     OW14613   0.830   3.135   1.422
  861SOL    HW114614   0.825   3.168   1.517
  861SOL    HW214615   0.744   3.154   1.376
  862SOL     OW14616   0.672   3.478   0.154
  862SOL    HW114617   0.681   3.488   0.055
  862SOL    HW214618   0.632   3.389   0.175
  863SOL     OW14619   1.650   3.582   1.394
  863SOL    HW114620   1.703   3.592   1.310
  863SOL    HW214621   1.623   3.672   1.428
  864SOL     OW14622   1.841   2.037   0.963
  864SOL    HW114623   1.880   1.952   0.927
  864SOL    HW214624   1.743   2.039   0.944
  865SOL     OW14625   0.263   2.188   0.720
  865SOL    HW114626   0.184   2.239   0.686
  865SOL    HW214627   0.254   2.173   0.818
  866SOL     OW14628   1.194   3.474   0.031
  866SOL    HW114629   1.200   3.381   0.068
  866SOL    HW214630   1.135   3.474  -0.049
  867SOL     OW14631   0.822   2.864   1.372
  867SOL    HW114632   0.862   2.863   1.280
  867SOL    HW214633   0.832   2.956   1.412
  868SOL     OW14634   0.916   2.772   0.291
  868SOL    HW114635   0.979   2.810   0.223
  868SOL    HW214636   0.956   2.689   0.330
  869SOL     OW14637   1.504   3.469   0.044
  869SOL    HW114638   1.412   3.506   0.051
  869SOL    HW214639   1.542   3.489  -0.046
  870SOL     OW14640   1.039   2.960   0.696
  870SOL    HW114641   0.969   2.913   0.750
  870SOL    HW214642   1.098   2.892   0.653
  871SOL     OW14643   1.014   2.098   0.971
  871SOL    HW114644   1.006   2.062   0.878
  871SOL    HW214645   1.012   2.022   1.036
  872SOL     OW14646   0.590   3.349   0.491
  872SOL    HW114647   0.632   3.291   0.421
  872SOL    HW214648   0.546   3.428   0.447
  873SOL     OW14649   1.709   2.247   1.381
  873SOL    HW114650   1.782   2.316   1.385
  873SOL    HW214651   1.737   2.172   1.322
  874SOL     OW14652   0.255   3.210   0.290
  874SOL    HW114653   0.159   3.211   0.263
  874SOL    HW214654   0.267   3.263   0.374
  875SOL     OW14655   0.075   2.207   0.033
  875SOL    HW114656  -0.017   2.179   0.004
  875SOL    HW214657   0.106   2.284  -0.023
  876SOL     OW14658   0.072   2.028   0.318
  876SOL    HW114659   0.055   2.111   0.264
  876SOL    HW214660   0.162   1.991   0.296
  877SOL     OW14661   1.183   3.197   0.119
  877SOL    HW114662   1.084   3.186   0.121
  877SOL    HW214663   1.217   3.212   0.212
  878SOL     OW14664   0.716   2.427   1.708
  878SOL    HW114665   0.735   2.492   1.782
  878SOL    HW214666   0.776   2.347   1.717
  879SOL     OW14667   1.674   2.745   1.254
  879SOL    HW114668   1.647   2.656   1.217
  879SOL    HW214669   1.675   2.813   1.181
  880SOL     OW14670   1.225   2.187   0.449
  880SOL    HW114671   1.290   2.113   0.438
  880SOL    HW214672   1.245   2.237   0.533
  881SOL     OW14673   0.594   2.607   0.652
  881SOL    HW114674   0.644   2.692   0.633
  881SOL    HW214675   0.506   2.609   0.604
  882SOL     OW14676   0.859   3.236   0.016
  882SOL    HW114677   0.813   3.251   0.104
  882SOL    HW214678   0.903   3.321  -0.014
  883SOL     OW14679   0.661   3.652   0.953
  883SOL    HW114680   0.615   3.740   0.940
  883SOL    HW214681   0.760   3.664   0.946
  884SOL     OW14682   0.859   2.818   0.861
  884SOL    HW114683   0.913   2.749   0.909
  884SOL    HW214684   0.827   2.887   0.927
  885SOL     OW14685   1.083   2.846   0.087
  885SOL    HW114686   1.060   2.899   0.005
  885SOL    HW214687   1.164   2.790   0.068
  886SOL     OW14688   1.861   3.431   0.851
  886SOL    HW114689   1.790   3.419   0.781
  886SOL    HW214690   1.862   3.352   0.911
  887SOL     OW14691   0.079   3.102   0.653
  887SOL    HW114692   0.078   3.055   0.741
  887SOL    HW214693   0.161   3.074   0.602
  888SOL     OW14694   1.824   2.054   1.227
  888SOL    HW114695   1.820   1.964   1.271
  888SOL    HW214696   1.827   2.043   1.128
  889SOL     OW14697   0.428   2.286   0.520
  889SOL    HW114698   0.458   2.214   0.458
  889SOL    HW214699   0.389   2.246   0.603
  890SOL     OW14700   0.317   2.409   1.280
  890SOL    HW114701   0.355   2.350   1.352
  890SOL    HW214702   0.357   2.383   1.192
  891SOL     OW14703   0.812   3.448   0.687
  891SOL    HW114704   0.844   3.458   0.593
  891SOL    HW214705   0.733   3.386   0.689
  892SOL     OW14706   1.424   2.076   1.112
  892SOL    HW114707   1.476   2.011   1.167
  892SOL    HW214708   1.375   2.139   1.173
  893SOL     OW14709   1.001   1.896   1.154
  893SOL    HW114710   0.938   1.824   1.123
  893SOL    HW214711   1.094   1.860   1.154
  894SOL     OW14712   0.770   3.192   0.301
  894SOL    HW114713   0.724   3.105   0.318
  894SOL    HW214714   0.861   3.189   0.342
  895SOL     OW14715   1.352   1.914   0.168
  895SOL    HW114716   1.387   1.873   0.084
  895SOL    HW214717   1.262   1.876   0.188
  896SOL     OW14718   1.300   2.315   0.691
  896SOL    HW114719   1.241   2.395   0.695
  896SOL    HW214720   1.315   2.280   0.784
  897SOL     OW14721   1.593   2.083   0.882
  897SOL    HW114722   1.509   2.082   0.936
  897SOL    HW214723   1.595   2.166   0.826
  898SOL     OW14724   0.039   2.939   0.300
  898SOL    HW114725   0.138   2.928   0.291
  898SOL    HW214726  -0.001   2.853   0.332
  899SOL     OW14727   0.875   3.508   0.337
  899SOL    HW114728   0.798   3.473   0.283
  899SOL    HW214729   0.843   3.579   0.399
  900SOL     OW14730   0.230   2.490   1.975
  900SOL    HW114731   0.137   2.488   2.012
  900SOL    HW214732   0.231   2.451   1.883
  901SOL     OW14733   0.335   3.297   2.923
  901SOL    HW114734   0.257   3.266   2.870
  901SOL    HW214735   0.393   3.355   2.866
  902SOL     OW14736   0.438   2.254   3.361
  902SOL    HW114737   0.520   2.198   3.370
  902SOL    HW214738   0.357   2.196   3.365
  903SOL     OW14739   0.231   3.575   2.345
  903SOL    HW114740   0.265   3.652   2.399
  903SOL    HW214741   0.275   3.575   2.255
  904SOL     OW14742   1.127   3.203   3.552
  904SOL    HW114743   1.174   3.203   3.640
  904SOL    HW214744   1.079   3.116   3.541
  905SOL     OW14745   0.230   3.296   2.400
  905SOL    HW114746   0.204   3.392   2.400
  905SOL    HW214747   0.159   3.242   2.445
  906SOL     OW14748   1.594   1.976   3.342
  906SOL    HW114749   1.576   2.043   3.270
  906SOL    HW214750   1.591   2.022   3.431
  907SOL     OW14751   1.641   2.970   2.294
  907SOL    HW114752   1.727   2.972   2.242
  907SOL    HW214753   1.655   3.017   2.382
  908SOL     OW14754   1.466   3.279   2.815
  908SOL    HW114755   1.407   3.285   2.895
  908SOL    HW214756   1.451   3.191   2.769
  909SOL     OW14757   1.576   3.524   2.169
  909SOL    HW114758   1.665   3.570   2.172
  909SOL    HW214759   1.555   3.500   2.074
  910SOL     OW14760   1.362   3.006   2.407
  910SOL    HW114761   1.445   2.977   2.359
  910SOL    HW214762   1.313   3.073   2.351
  911SOL     OW14763   0.550   2.058   2.747
  911SOL    HW114764   0.545   2.053   2.847
  911SOL    HW214765   0.552   2.154   2.718
  912SOL     OW14766   0.351   3.663   2.715
  912SOL    HW114767   0.401   3.577   2.721
  912SOL    HW214768   0.416   3.740   2.712
  913SOL     OW14769   0.461   3.128   3.589
  913SOL    HW114770   0.411   3.129   3.503
  913SOL    HW214771   0.398   3.110   3.665
  914SOL     OW14772   0.249   3.647   3.103
  914SOL    HW114773   0.306   3.582   3.153
  914SOL    HW214774   0.233   3.614   3.010
  915SOL     OW14775   0.781   2.126   3.611
  915SOL    HW114776   0.848   2.065   3.654
  915SOL    HW214777   0.708   2.145   3.676
  916SOL     OW14778   0.888   3.376   3.057
  916SOL    HW114779   0.865   3.351   2.963
  916SOL    HW214780   0.949   3.307   3.096
  917SOL     OW14781   0.803   3.264   2.786
  917SOL    HW114782   0.893   3.278   2.744
  917SOL    HW214783   0.732   3.266   2.715
  918SOL     OW14784   1.076   2.545   3.326
  918SOL    HW114785   0.996   2.484   3.329
  918SOL    HW214786   1.157   2.492   3.302
  919SOL     OW14787   1.227   3.432   2.655
  919SOL    HW114788   1.248   3.506   2.590
  919SOL    HW214789   1.295   3.432   2.728
  920SOL     OW14790   0.078   2.418   3.248
  920SOL    HW114791   0.170   2.417   3.207
  920SOL    HW214792   0.072   2.492   3.315
  921SOL     OW14793   0.866   2.316   2.504
  921SOL    HW114794   0.834   2.388   2.442
  921SOL    HW214795   0.890   2.235   2.451
  922SOL     OW14796   1.429   3.035   2.729
  922SOL    HW114797   1.374   2.951   2.722
  922SOL    HW214798   1.455   3.064   2.637
  923SOL     OW14799   0.527   2.118   2.190
  923SOL    HW114800   0.554   2.059   2.115
  923SOL    HW214801   0.527   2.213   2.159
  924SOL     OW14802   1.754   3.085   3.450
  924SOL    HW114803   1.845   3.046   3.437
  924SOL    HW214804   1.762   3.181   3.474
  925SOL     OW14805   0.915   1.951   3.264
  925SOL    HW114806   0.940   1.931   3.169
  925SOL    HW214807   0.987   2.007   3.306
  926SOL     OW14808   0.980   2.978   3.581
  926SOL    HW114809   0.881   2.984   3.591
  926SOL    HW214810   1.003   2.898   3.525
  927SOL     OW14811   0.410   2.675   3.113
  927SOL    HW114812   0.496   2.687   3.163
  927SOL    HW214813   0.368   2.588   3.140
  928SOL     OW14814   0.402   2.613   3.460
  928SOL    HW114815   0.470   2.668   3.413
  928SOL    HW214816   0.442   2.525   3.487
  929SOL     OW14817   1.587   2.641   3.532
  929SOL    HW114818   1.495   2.679   3.527
  929SOL    HW214819   1.647   2.688   3.467
  930SOL     OW14820   1.013   1.967   3.632
  930SOL    HW114821   1.019   2.052   3.580
  930SOL    HW214822   1.045   1.891   3.575
  931SOL     OW14823   0.504   1.912   3.602
  931SOL    HW114824   0.462   1.855   3.532
  931SOL    HW214825   0.438   1.981   3.634
  932SOL     OW14826   0.573   2.732   2.891
  932SOL    HW114827   0.617   2.821   2.882
  932SOL    HW214828   0.510   2.732   2.968
  933SOL     OW14829   1.209   2.387   2.137
  933SOL    HW114830   1.222   2.303   2.191
  933SOL    HW214831   1.180   2.461   2.197
  934SOL     OW14832   0.037   3.172   3.144
  934SOL    HW114833   0.090   3.123   3.212
  934SOL    HW214834   0.059   3.270   3.149
  935SOL     OW14835   1.728   2.797   3.716
  935SOL    HW114836   1.682   2.790   3.627
  935SOL    HW214837   1.666   2.841   3.782
  936SOL     OW14838   0.980   3.435   3.562
  936SOL    HW114839   0.960   3.479   3.474
  936SOL    HW214840   1.019   3.344   3.546
  937SOL     OW14841   0.319   2.672   2.811
  937SOL    HW114842   0.412   2.708   2.816
  937SOL    HW214843   0.313   2.587   2.863
  938SOL     OW14844   0.088   3.663   2.789
  938SOL    HW114845   0.046   3.577   2.762
  938SOL    HW214846   0.182   3.666   2.755
  939SOL     OW14847   0.504   3.430   2.772
  939SOL    HW114848   0.570   3.504   2.781
  939SOL    HW214849   0.548   3.351   2.730
  940SOL     OW14850   1.657   2.466   3.068
  940SOL    HW114851   1.619   2.397   3.130
  940SOL    HW214852   1.739   2.430   3.024
  941SOL     OW14853   0.930   3.540   3.327
  941SOL    HW114854   0.906   3.522   3.232
  941SOL    HW214855   0.960   3.634   3.337
  942SOL     OW14856   0.473   2.362   2.053
  942SOL    HW114857   0.534   2.442   2.057
  942SOL    HW214858   0.378   2.393   2.060
  943SOL     OW14859   1.347   2.921   3.096
  943SOL    HW114860   1.371   2.858   3.022
  943SOL    HW214861   1.257   2.961   3.078
  944SOL     OW14862   0.083   3.120   2.884
  944SOL    HW114863   0.078   3.119   2.984
  944SOL    HW214864   0.000   3.079   2.846
  945SOL     OW14865   1.388   3.435   2.339
  945SOL    HW114866   1.455   3.447   2.265
  945SOL    HW214867   1.348   3.524   2.362
  946SOL     OW14868   1.280   2.789   2.534
  946SOL    HW114869   1.340   2.708   2.536
  946SOL    HW214870   1.320   2.858   2.474
  947SOL     OW14871   0.263   2.188   2.582
  947SOL    HW114872   0.184   2.239   2.548
  947SOL    HW214873   0.254   2.173   2.680
  948SOL     OW14874   0.916   2.772   2.153
  948SOL    HW114875   0.979   2.810   2.085
  948SOL    HW214876   0.956   2.689   2.192
  949SOL     OW14877   0.105   2.875   3.588
  949SOL    HW114878   0.028   2.842   3.642
  949SOL    HW214879   0.190   2.845   3.630
  950SOL     OW14880   0.672   2.065   3.351
  950SOL    HW114881   0.762   2.049   3.311
  950SOL    HW214882   0.680   2.070   3.450
  951SOL     OW14883   0.716   2.427   3.570
  951SOL    HW114884   0.735   2.492   3.644
  951SOL    HW214885   0.776   2.347   3.579
  952SOL     OW14886   0.390   3.603   3.422
  952SOL    HW114887   0.299   3.644   3.420
  952SOL    HW214888   0.383   3.509   3.454
  953SOL     OW14889   0.594   2.607   2.514
  953SOL    HW114890   0.644   2.692   2.495
  953SOL    HW214891   0.506   2.609   2.466
  954SOL     OW14892   0.661   3.652   2.815
  954SOL    HW114893   0.615   3.740   2.802
  954SOL    HW214894   0.760   3.664   2.808
  955SOL     OW14895   0.859   2.818   2.723
  955SOL    HW114896   0.913   2.749   2.771
  955SOL    HW214897   0.827   2.887   2.789
  956SOL     OW14898   1.083   2.846   1.949
  956SOL    HW114899   1.060   2.899   1.867
  956SOL    HW214900   1.164   2.790   1.930
  957SOL     OW14901   1.861   3.431   2.713
  957SOL    HW114902   1.790   3.419   2.643
  957SOL    HW214903   1.862   3.352   2.773
  958SOL     OW14904   0.221   3.176   3.706
  958SOL    HW114905   0.156   3.103   3.685
  958SOL    HW214906   0.225   3.190   3.804
  959SOL     OW14907   0.317   2.409   3.142
  959SOL    HW114908   0.355   2.350   3.214
  959SOL    HW214909   0.357   2.383   3.054
  960SOL     OW14910   1.424   2.076   2.974
  960SOL    HW114911   1.476   2.011   3.029
  960SOL    HW214912   1.375   2.139   3.035
  961SOL     OW14913   0.618   3.429   3.146
  961SOL    HW114914   0.613   3.511   3.203
  961SOL    HW214915   0.707   3.426   3.101
  962SOL     OW14916   0.875   3.508   2.199
  962SOL    HW114917   0.798   3.473   2.145
  962SOL    HW214918   0.843   3.579   2.261
  963SOL     OW14919   0.019   2.230   4.371
  963SOL    HW114920  -0.063   2.273   4.410
  963SOL    HW214921  -0.009   2.157   4.308
  964SOL     OW14922   1.555   3.373   4.427
  964SOL    HW114923   1.498   3.357   4.508
  964SOL    HW214924   1.496   3.383   4.347
  965SOL     OW14925   1.135   2.565   4.441
  965SOL    HW114926   1.192   2.643   4.416
  965SOL    HW214927   1.075   2.591   4.517
  966SOL     OW14928   0.686   3.023   5.527
  966SOL    HW114929   0.746   3.102   5.541
  966SOL    HW214930   0.600   3.054   5.486
  967SOL     OW14931   1.594   1.976   5.204
  967SOL    HW114932   1.576   2.043   5.132
  967SOL    HW214933   1.591   2.022   5.293
  968SOL     OW14934   0.122   2.505   4.287
  968SOL    HW114935   0.077   2.417   4.304
  968SOL    HW214936   0.121   2.559   4.371
  969SOL     OW14937   1.842   3.629   4.083
  969SOL    HW114938   1.896   3.600   4.163
  969SOL    HW214939   1.872   3.719   4.054
  970SOL     OW14940   0.027   3.458   3.841
  970SOL    HW114941   0.008   3.362   3.862
  970SOL    HW214942  -0.006   3.516   3.916
  971SOL     OW14943   1.641   2.970   4.156
  971SOL    HW114944   1.727   2.972   4.104
  971SOL    HW214945   1.655   3.017   4.244
  972SOL     OW14946   0.613   3.227   4.450
  972SOL    HW114947   0.564   3.140   4.459
  972SOL    HW214948   0.590   3.270   4.363
  973SOL     OW14949   1.187   3.654   5.340
  973SOL    HW114950   1.211   3.714   5.264
  973SOL    HW214951   1.194   3.559   5.310
  974SOL     OW14952   0.598   2.591   3.994
  974SOL    HW114953   0.622   2.660   3.926
  974SOL    HW214954   0.520   2.624   4.048
  975SOL     OW14955   1.394   2.331   5.398
  975SOL    HW114956   1.374   2.374   5.486
  975SOL    HW214957   1.472   2.269   5.407
  976SOL     OW14958   0.076   2.673   4.513
  976SOL    HW114959   0.175   2.661   4.522
  976SOL    HW214960   0.052   2.768   4.534
  977SOL     OW14961   1.719   2.447   5.555
  977SOL    HW114962   1.693   2.536   5.519
  977SOL    HW214963   1.717   2.379   5.482
  978SOL     OW14964   0.202   2.147   5.222
  978SOL    HW114965   0.122   2.207   5.209
  978SOL    HW214966   0.192   2.098   5.308
  979SOL     OW14967   1.547   2.084   5.453
  979SOL    HW114968   1.542   2.121   5.545
  979SOL    HW214969   1.475   2.015   5.441
  980SOL     OW14970   0.888   3.376   4.919
  980SOL    HW114971   0.865   3.351   4.825
  980SOL    HW214972   0.949   3.307   4.958
  981SOL     OW14973   0.922   2.365   4.623
  981SOL    HW114974   0.897   2.356   4.527
  981SOL    HW214975   0.970   2.283   4.654
  982SOL     OW14976   0.866   2.316   4.366
  982SOL    HW114977   0.834   2.388   4.304
  982SOL    HW214978   0.890   2.235   4.313
  983SOL     OW14979   0.488   3.247   3.898
  983SOL    HW114980   0.401   3.232   3.945
  983SOL    HW214981   0.471   3.273   3.803
  984SOL     OW14982   1.664   3.142   4.381
  984SOL    HW114983   1.763   3.150   4.395
  984SOL    HW214984   1.619   3.226   4.412
  985SOL     OW14985   1.390   2.437   3.802
  985SOL    HW114986   1.336   2.416   3.883
  985SOL    HW214987   1.481   2.396   3.811
  986SOL     OW14988   0.527   2.118   4.052
  986SOL    HW114989   0.554   2.059   3.977
  986SOL    HW214990   0.527   2.213   4.021
  987SOL     OW14991   1.111   3.057   4.824
  987SOL    HW114992   1.071   3.101   4.905
  987SOL    HW214993   1.070   3.094   4.741
  988SOL     OW14994   1.638   2.961   4.803
  988SOL    HW114995   1.643   3.042   4.862
  988SOL    HW214996   1.552   2.963   4.752
  989SOL     OW14997   0.915   1.951   5.126
  989SOL    HW114998   0.940   1.931   5.031
  989SOL    HW214999   0.987   2.007   5.168
  990SOL     OW15000   0.980   2.978   5.443
  990SOL    HW115001   0.881   2.984   5.453
  990SOL    HW215002   1.003   2.898   5.387
  991SOL     OW15003   0.566   2.399   4.589
  991SOL    HW115004   0.578   2.465   4.515
  991SOL    HW215005   0.612   2.433   4.672
  992SOL     OW15006   1.252   3.210   4.112
  992SOL    HW115007   1.302   3.287   4.152
  992SOL    HW215008   1.157   3.212   4.144
  993SOL     OW15009   1.587   2.641   5.394
  993SOL    HW115010   1.495   2.679   5.389
  993SOL    HW215011   1.647   2.688   5.329
  994SOL     OW15012   0.504   1.912   5.464
  994SOL    HW115013   0.462   1.855   5.394
  994SOL    HW215014   0.438   1.981   5.496
  995SOL     OW15015   0.573   2.732   4.753
  995SOL    HW115016   0.617   2.821   4.744
  995SOL    HW215017   0.510   2.732   4.830
  996SOL     OW15018   1.360   2.724   4.769
  996SOL    HW115019   1.285   2.724   4.703
  996SOL    HW215020   1.397   2.632   4.778
  997SOL     OW15021   1.728   2.797   5.578
  997SOL    HW115022   1.682   2.790   5.489
  997SOL    HW215023   1.666   2.841   5.644
  998SOL     OW15024   1.023   2.628   4.690
  998SOL    HW115025   1.038   2.649   4.786
  998SOL    HW215026   0.993   2.533   4.681
  999SOL     OW15027   1.859   3.380   5.329
  999SOL    HW115028   1.873   3.407   5.234
  999SOL    HW215029   1.942   3.402   5.382
 1000SOL     OW15030   1.303   2.700   3.766
 1000SOL    HW115031   1.337   2.607   3.781
 1000SOL    HW215032   1.321   2.727   3.671
 1001SOL     OW15033   1.068   3.195   4.573
 1001SOL    HW115034   1.075   3.111   4.518
 1001SOL    HW215035   1.130   3.264   4.537
 1002SOL     OW15036   0.339   2.371   4.730
 1002SOL    HW115037   0.287   2.288   4.713
 1002SOL    HW215038   0.416   2.376   4.666
 1003SOL     OW15039   1.160   2.069   5.201
 1003SOL    HW115040   1.160   2.133   5.278
 1003SOL    HW215041   1.188   2.117   5.118
 1004SOL     OW15042   0.088   3.663   4.651
 1004SOL    HW115043   0.046   3.577   4.624
 1004SOL    HW215044   0.182   3.666   4.617
 1005SOL     OW15045   1.369   2.812   5.384
 1005SOL    HW115046   1.408   2.901   5.404
 1005SOL    HW215047   1.379   2.792   5.287
 1006SOL     OW15048   0.815   2.434   4.049
 1006SOL    HW115049   0.822   2.345   4.003
 1006SOL    HW215050   0.721   2.468   4.041
 1007SOL     OW15051   0.252   3.426   5.468
 1007SOL    HW115052   0.222   3.483   5.544
 1007SOL    HW215053   0.245   3.329   5.494
 1008SOL     OW15054   0.930   3.540   5.189
 1008SOL    HW115055   0.906   3.522   5.094
 1008SOL    HW215056   0.960   3.634   5.199
 1009SOL     OW15057   1.302   2.717   4.033
 1009SOL    HW115058   1.216   2.686   4.075
 1009SOL    HW215059   1.298   2.703   3.934
 1010SOL     OW15060   0.083   3.120   4.746
 1010SOL    HW115061   0.078   3.119   4.846
 1010SOL    HW215062   0.000   3.079   4.708
 1011SOL     OW15063   0.688   3.524   5.440
 1011SOL    HW115064   0.632   3.605   5.449
 1011SOL    HW215065   0.740   3.528   5.354
 1012SOL     OW15066   1.726   1.997   4.247
 1012SOL    HW115067   1.799   1.980   4.180
 1012SOL    HW215068   1.695   1.910   4.285
 1013SOL     OW15069   0.130   3.656   5.575
 1013SOL    HW115070   0.089   3.582   5.628
 1013SOL    HW215071   0.194   3.707   5.633
 1014SOL     OW15072   1.280   2.789   4.396
 1014SOL    HW115073   1.340   2.708   4.398
 1014SOL    HW215074   1.320   2.858   4.336
 1015SOL     OW15075   0.830   3.135   5.146
 1015SOL    HW115076   0.825   3.168   5.241
 1015SOL    HW215077   0.744   3.154   5.100
 1016SOL     OW15078   0.672   3.478   3.878
 1016SOL    HW115079   0.681   3.488   3.779
 1016SOL    HW215080   0.632   3.389   3.899
 1017SOL     OW15081   0.263   2.188   4.444
 1017SOL    HW115082   0.184   2.239   4.410
 1017SOL    HW215083   0.254   2.173   4.542
 1018SOL     OW15084   1.039   2.960   4.420
 1018SOL    HW115085   0.969   2.913   4.474
 1018SOL    HW215086   1.098   2.892   4.377
 1019SOL     OW15087   0.075   2.207   3.757
 1019SOL    HW115088  -0.017   2.179   3.728
 1019SOL    HW215089   0.106   2.284   3.701
 1020SOL     OW15090   0.072   2.028   4.042
 1020SOL    HW115091   0.055   2.111   3.988
 1020SOL    HW215092   0.162   1.991   4.020
 1021SOL     OW15093   1.183   3.197   3.843
 1021SOL    HW115094   1.084   3.186   3.845
 1021SOL    HW215095   1.217   3.212   3.936
 1022SOL     OW15096   0.716   2.427   5.432
 1022SOL    HW115097   0.735   2.492   5.506
 1022SOL    HW215098   0.776   2.347   5.441
 1023SOL     OW15099   1.674   2.745   4.978
 1023SOL    HW115100   1.647   2.656   4.941
 1023SOL    HW215101   1.675   2.813   4.905
 1024SOL     OW15102   1.730   2.796   5.241
 1024SOL    HW115103   1.768   2.887   5.256
 1024SOL    HW215104   1.722   2.779   5.142
 1025SOL     OW15105   0.079   3.102   4.377
 1025SOL    HW115106   0.078   3.055   4.465
 1025SOL    HW215107   0.161   3.074   4.326
 1026SOL     OW15108   0.672   3.253   5.348
 1026SOL    HW115109   0.594   3.203   5.386
 1026SOL    HW215110   0.669   3.348   5.379
 1027SOL     OW15111   0.428   2.286   4.244
 1027SOL    HW115112   0.458   2.214   4.182
 1027SOL    HW215113   0.389   2.246   4.327
 1028SOL     OW15114   0.317   2.409   5.004
 1028SOL    HW115115   0.355   2.350   5.076
 1028SOL    HW215116   0.357   2.383   4.916
 1029SOL     OW15117   0.618   3.429   5.008
 1029SOL    HW115118   0.613   3.511   5.065
 1029SOL    HW215119   0.707   3.426   4.963
 1030SOL     OW15120   1.352   1.914   3.892
 1030SOL    HW115121   1.387   1.873   3.808
 1030SOL    HW215122   1.262   1.876   3.912
 1031SOL     OW15123   1.593   2.083   4.606
 1031SOL    HW115124   1.509   2.082   4.660
 1031SOL    HW215125   1.595   2.166   4.550
 1032SOL     OW15126   0.039   2.939   4.024
 1032SOL    HW115127   0.138   2.928   4.015
 1032SOL    HW215128  -0.001   2.853   4.056
 1033SOL     OW15129   0.875   3.508   4.061
 1033SOL    HW115130   0.798   3.473   4.007
 1033SOL    HW215131   0.843   3.579   4.123
 1034SOL     OW15132   0.230   2.490   5.699
 1034SOL    HW115133   0.137   2.488   5.736
 1034SOL    HW215134   0.231   2.451   5.607
 1035SOL     OW15135   0.225   2.137   6.582
 1035SOL    HW115136   0.260   2.120   6.674
 1035SOL    HW215137   0.137   2.092   6.570
 1036SOL     OW15138   0.019   2.230   6.233
 1036SOL    HW115139  -0.063   2.273   6.272
 1036SOL    HW215140  -0.009   2.157   6.170
 1037SOL     OW15141   0.569   3.137   6.751
 1037SOL    HW115142   0.476   3.130   6.714
 1037SOL    HW215143   0.580   3.226   6.795
 1038SOL     OW15144   1.555   3.373   6.289
 1038SOL    HW115145   1.498   3.357   6.370
 1038SOL    HW215146   1.496   3.383   6.209
 1039SOL     OW15147   1.135   2.565   6.303
 1039SOL    HW115148   1.192   2.643   6.278
 1039SOL    HW215149   1.075   2.591   6.379
 1040SOL     OW15150   1.755   2.469   5.817
 1040SOL    HW115151   1.743   2.456   5.718
 1040SOL    HW215152   1.725   2.388   5.866
 1041SOL     OW15153   0.768   3.006   6.609
 1041SOL    HW115154   0.690   3.023   6.669
 1041SOL    HW215155   0.802   3.093   6.573
 1042SOL     OW15156   0.685   2.874   6.251
 1042SOL    HW115157   0.754   2.858   6.321
 1042SOL    HW215158   0.612   2.931   6.289
 1043SOL     OW15159   0.335   3.297   6.647
 1043SOL    HW115160   0.257   3.266   6.594
 1043SOL    HW215161   0.393   3.355   6.590
 1044SOL     OW15162   1.460   3.367   6.925
 1044SOL    HW115163   1.484   3.461   6.951
 1044SOL    HW215164   1.444   3.313   7.007
 1045SOL     OW15165   0.438   2.254   7.085
 1045SOL    HW115166   0.520   2.198   7.094
 1045SOL    HW215167   0.357   2.196   7.089
 1046SOL     OW15168   1.603   2.309   6.323
 1046SOL    HW115169   1.529   2.355   6.273
 1046SOL    HW215170   1.654   2.377   6.376
 1047SOL     OW15171   0.230   3.296   6.124
 1047SOL    HW115172   0.204   3.392   6.124
 1047SOL    HW215173   0.159   3.242   6.169
 1048SOL     OW15174   0.240   2.953   6.472
 1048SOL    HW115175   0.254   2.869   6.524
 1048SOL    HW215176   0.185   3.017   6.527
 1049SOL     OW15177   0.620   3.648   7.025
 1049SOL    HW115178   0.528   3.631   7.060
 1049SOL    HW215179   0.648   3.740   7.051
 1050SOL     OW15180   1.594   1.976   7.066
 1050SOL    HW115181   1.576   2.043   6.994
 1050SOL    HW215182   1.591   2.022   7.155
 1051SOL     OW15183   0.122   2.505   6.149
 1051SOL    HW115184   0.077   2.417   6.166
 1051SOL    HW215185   0.121   2.559   6.233
 1052SOL     OW15186   1.842   3.629   5.945
 1052SOL    HW115187   1.896   3.600   6.025
 1052SOL    HW215188   1.872   3.719   5.916
 1053SOL     OW15189   1.689   2.784   6.198
 1053SOL    HW115190   1.784   2.755   6.206
 1053SOL    HW215191   1.681   2.849   6.123
 1054SOL     OW15192   1.641   2.970   6.018
 1054SOL    HW115193   1.727   2.972   5.966
 1054SOL    HW215194   1.655   3.017   6.106
 1055SOL     OW15195   0.613   3.227   6.312
 1055SOL    HW115196   0.564   3.140   6.321
 1055SOL    HW215197   0.590   3.270   6.225
 1056SOL     OW15198   0.809   1.866   6.088
 1056SOL    HW115199   0.849   1.957   6.079
 1056SOL    HW215200   0.709   1.874   6.094
 1057SOL     OW15201   0.197   2.838   6.850
 1057SOL    HW115202   0.286   2.793   6.836
 1057SOL    HW215203   0.124   2.773   6.831
 1058SOL     OW15204   1.525   2.861   5.776
 1058SOL    HW115205   1.462   2.785   5.789
 1058SOL    HW215206   1.573   2.879   5.862
 1059SOL     OW15207   1.466   3.279   6.539
 1059SOL    HW115208   1.407   3.285   6.619
 1059SOL    HW215209   1.451   3.191   6.493
 1060SOL     OW15210   1.667   3.576   6.158
 1060SOL    HW115211   1.626   3.553   6.070
 1060SOL    HW215212   1.649   3.502   6.223
 1061SOL     OW15213   1.281   2.207   6.530
 1061SOL    HW115214   1.195   2.157   6.517
 1061SOL    HW215215   1.343   2.153   6.586
 1062SOL     OW15216   1.576   3.524   5.893
 1062SOL    HW115217   1.665   3.570   5.896
 1062SOL    HW215218   1.555   3.500   5.798
 1063SOL     OW15219   0.807   2.467   7.051
 1063SOL    HW115220   0.760   2.464   7.140
 1063SOL    HW215221   0.756   2.412   6.985
 1064SOL     OW15222   0.991   2.272   6.828
 1064SOL    HW115223   0.914   2.306   6.882
 1064SOL    HW215224   0.957   2.221   6.749
 1065SOL     OW15225   1.041   2.563   6.015
 1065SOL    HW115226   1.067   2.559   6.111
 1065SOL    HW215227   0.956   2.512   6.001
 1066SOL     OW15228   0.076   2.673   6.375
 1066SOL    HW115229   0.175   2.661   6.384
 1066SOL    HW215230   0.052   2.768   6.396
 1067SOL     OW15231   0.130   3.683   7.157
 1067SOL    HW115232   0.120   3.668   7.256
 1067SOL    HW215233   0.044   3.719   7.121
 1068SOL     OW15234   1.362   3.006   6.131
 1068SOL    HW115235   1.445   2.977   6.083
 1068SOL    HW215236   1.313   3.073   6.075
 1069SOL     OW15237   0.550   2.058   6.471
 1069SOL    HW115238   0.545   2.053   6.571
 1069SOL    HW215239   0.552   2.154   6.442
 1070SOL     OW15240   1.008   3.318   6.063
 1070SOL    HW115241   0.962   3.390   6.011
 1070SOL    HW215242   1.004   3.338   6.161
 1071SOL     OW15243   0.351   3.663   6.439
 1071SOL    HW115244   0.401   3.577   6.445
 1071SOL    HW215245   0.416   3.740   6.436
 1072SOL     OW15246   1.795   2.928   6.459
 1072SOL    HW115247   1.733   2.913   6.383
 1072SOL    HW215248   1.743   2.939   6.544
 1073SOL     OW15249   0.321   2.805   5.828
 1073SOL    HW115250   0.403   2.844   5.786
 1073SOL    HW215251   0.294   2.723   5.779
 1074SOL     OW15252   1.458   2.597   6.314
 1074SOL    HW115253   1.453   2.532   6.389
 1074SOL    HW215254   1.538   2.656   6.327
 1075SOL     OW15255   0.464   3.605   5.909
 1075SOL    HW115256   0.497   3.644   5.995
 1075SOL    HW215257   0.540   3.598   5.844
 1076SOL     OW15258   1.400   1.969   6.012
 1076SOL    HW115259   1.376   1.932   5.922
 1076SOL    HW215260   1.499   1.985   6.016
 1077SOL     OW15261   0.249   3.647   6.827
 1077SOL    HW115262   0.306   3.582   6.877
 1077SOL    HW215263   0.233   3.614   6.734
 1078SOL     OW15264   0.940   3.560   6.490
 1078SOL    HW115265   1.020   3.503   6.511
 1078SOL    HW215266   0.891   3.520   6.413
 1079SOL     OW15267   0.382   2.562   6.066
 1079SOL    HW115268   0.427   2.472   6.063
 1079SOL    HW215269   0.288   2.551   6.099
 1080SOL     OW15270   0.888   3.376   6.781
 1080SOL    HW115271   0.865   3.351   6.687
 1080SOL    HW215272   0.949   3.307   6.820
 1081SOL     OW15273   0.803   3.264   6.510
 1081SOL    HW115274   0.893   3.278   6.468
 1081SOL    HW215275   0.732   3.266   6.439
 1082SOL     OW15276   0.922   2.365   6.485
 1082SOL    HW115277   0.897   2.356   6.389
 1082SOL    HW215278   0.970   2.283   6.516
 1083SOL     OW15279   0.539   1.926   6.098
 1083SOL    HW115280   0.458   1.927   6.156
 1083SOL    HW215281   0.542   2.009   6.043
 1084SOL     OW15282   1.434   3.050   5.627
 1084SOL    HW115283   1.466   2.974   5.684
 1084SOL    HW215284   1.342   3.077   5.657
 1085SOL     OW15285   0.297   1.897   5.757
 1085SOL    HW115286   0.346   1.981   5.736
 1085SOL    HW215287   0.359   1.832   5.802
 1086SOL     OW15288   0.935   2.098   6.066
 1086SOL    HW115289   0.887   2.139   5.988
 1086SOL    HW215290   1.034   2.096   6.047
 1087SOL     OW15291   1.227   3.432   6.379
 1087SOL    HW115292   1.248   3.506   6.314
 1087SOL    HW215293   1.295   3.432   6.452
 1088SOL     OW15294   0.459   3.014   6.327
 1088SOL    HW115295   0.388   2.987   6.392
 1088SOL    HW215296   0.433   2.986   6.234
 1089SOL     OW15297   1.271   3.659   6.177
 1089SOL    HW115298   1.315   3.723   6.113
 1089SOL    HW215299   1.221   3.711   6.247
 1090SOL     OW15300   0.078   2.418   6.972
 1090SOL    HW115301   0.170   2.417   6.931
 1090SOL    HW215302   0.072   2.492   7.039
 1091SOL     OW15303   0.561   2.084   6.733
 1091SOL    HW115304   0.599   2.000   6.770
 1091SOL    HW215305   0.473   2.103   6.777
 1092SOL     OW15306   0.866   2.316   6.228
 1092SOL    HW115307   0.834   2.388   6.166
 1092SOL    HW215308   0.890   2.235   6.175
 1093SOL     OW15309   1.017   1.901   6.339
 1093SOL    HW115310   0.945   1.906   6.270
 1093SOL    HW215311   0.993   1.832   6.408
 1094SOL     OW15312   1.429   3.035   6.453
 1094SOL    HW115313   1.374   2.951   6.446
 1094SOL    HW215314   1.455   3.064   6.361
 1095SOL     OW15315   1.466   2.452   6.578
 1095SOL    HW115316   1.436   2.357   6.585
 1095SOL    HW215317   1.539   2.468   6.644
 1096SOL     OW15318   1.857   2.695   5.963
 1096SOL    HW115319   1.899   2.631   6.027
 1096SOL    HW215320   1.819   2.644   5.885
 1097SOL     OW15321   0.488   3.247   5.760
 1097SOL    HW115322   0.401   3.232   5.807
 1097SOL    HW215323   0.471   3.273   5.665
 1098SOL     OW15324   1.664   3.142   6.243
 1098SOL    HW115325   1.763   3.150   6.257
 1098SOL    HW215326   1.619   3.226   6.274
 1099SOL     OW15327   0.527   2.118   5.914
 1099SOL    HW115328   0.554   2.059   5.839
 1099SOL    HW215329   0.527   2.213   5.883
 1100SOL     OW15330   1.064   3.209   6.926
 1100SOL    HW115331   0.984   3.186   6.981
 1100SOL    HW215332   1.147   3.183   6.975
 1101SOL     OW15333   1.111   3.057   6.686
 1101SOL    HW115334   1.071   3.101   6.767
 1101SOL    HW215335   1.070   3.094   6.603
 1102SOL     OW15336   1.638   2.961   6.665
 1102SOL    HW115337   1.643   3.042   6.724
 1102SOL    HW215338   1.552   2.963   6.614
 1103SOL     OW15339   0.915   1.951   6.988
 1103SOL    HW115340   0.940   1.931   6.893
 1103SOL    HW215341   0.987   2.007   7.030
 1104SOL     OW15342   0.705   2.912   5.954
 1104SOL    HW115343   0.691   2.919   6.053
 1104SOL    HW215344   0.789   2.861   5.936
 1105SOL     OW15345   0.410   2.675   6.837
 1105SOL    HW115346   0.496   2.687   6.887
 1105SOL    HW215347   0.368   2.588   6.864
 1106SOL     OW15348   1.274   2.248   6.848
 1106SOL    HW115349   1.295   2.322   6.912
 1106SOL    HW215350   1.185   2.265   6.805
 1107SOL     OW15351   0.064   3.426   6.917
 1107SOL    HW115352   0.018   3.508   6.883
 1107SOL    HW215353   0.162   3.445   6.926
 1108SOL     OW15354   0.367   2.962   6.087
 1108SOL    HW115355   0.360   3.045   6.031
 1108SOL    HW215356   0.371   2.882   6.027
 1109SOL     OW15357   0.566   2.399   6.451
 1109SOL    HW115358   0.578   2.465   6.377
 1109SOL    HW215359   0.612   2.433   6.534
 1110SOL     OW15360   1.252   3.210   5.974
 1110SOL    HW115361   1.302   3.287   6.014
 1110SOL    HW215362   1.157   3.212   6.006
 1111SOL     OW15363   1.272   3.307   6.728
 1111SOL    HW115364   1.319   3.320   6.815
 1111SOL    HW215365   1.206   3.233   6.737
 1112SOL     OW15366   1.582   2.501   6.058
 1112SOL    HW115367   1.551   2.562   6.131
 1112SOL    HW215368   1.632   2.553   5.989
 1113SOL     OW15369   0.354   3.372   6.915
 1113SOL    HW115370   0.333   3.328   6.828
 1113SOL    HW215371   0.451   3.398   6.918
 1114SOL     OW15372   0.402   2.613   7.184
 1114SOL    HW115373   0.470   2.668   7.137
 1114SOL    HW215374   0.442   2.525   7.211
 1115SOL     OW15375   1.587   2.641   7.256
 1115SOL    HW115376   1.495   2.679   7.251
 1115SOL    HW215377   1.647   2.688   7.191
 1116SOL     OW15378   0.573   2.732   6.615
 1116SOL    HW115379   0.617   2.821   6.606
 1116SOL    HW215380   0.510   2.732   6.692
 1117SOL     OW15381   1.360   2.724   6.631
 1117SOL    HW115382   1.285   2.724   6.565
 1117SOL    HW215383   1.397   2.632   6.640
 1118SOL     OW15384   1.209   2.387   5.861
 1118SOL    HW115385   1.222   2.303   5.915
 1118SOL    HW215386   1.180   2.461   5.921
 1119SOL     OW15387   0.307   2.075   6.817
 1119SOL    HW115388   0.284   2.112   6.907
 1119SOL    HW215389   0.277   1.980   6.811
 1120SOL     OW15390   0.037   3.172   6.868
 1120SOL    HW115391   0.090   3.123   6.936
 1120SOL    HW215392   0.059   3.270   6.873
 1121SOL     OW15393   0.732   2.496   6.650
 1121SOL    HW115394   0.791   2.470   6.574
 1121SOL    HW215395   0.704   2.592   6.639
 1122SOL     OW15396   0.307   1.925   6.204
 1122SOL    HW115397   0.296   2.019   6.237
 1122SOL    HW215398   0.302   1.862   6.281
 1123SOL     OW15399   1.622   2.229   5.960
 1123SOL    HW115400   1.624   2.153   6.024
 1123SOL    HW215401   1.574   2.306   6.000
 1124SOL     OW15402   1.023   2.628   6.552
 1124SOL    HW115403   1.038   2.649   6.648
 1124SOL    HW215404   0.993   2.533   6.543
 1125SOL     OW15405   0.980   3.435   7.286
 1125SOL    HW115406   0.960   3.479   7.198
 1125SOL    HW215407   1.019   3.344   7.270
 1126SOL     OW15408   1.303   2.700   5.628
 1126SOL    HW115409   1.337   2.607   5.643
 1126SOL    HW215410   1.321   2.727   5.533
 1127SOL     OW15411   1.068   3.195   6.435
 1127SOL    HW115412   1.075   3.111   6.380
 1127SOL    HW215413   1.130   3.264   6.399
 1128SOL     OW15414   0.319   2.672   6.535
 1128SOL    HW115415   0.412   2.708   6.540
 1128SOL    HW215416   0.313   2.587   6.587
 1129SOL     OW15417   0.339   2.371   6.592
 1129SOL    HW115418   0.287   2.288   6.575
 1129SOL    HW215419   0.416   2.376   6.528
 1130SOL     OW15420   1.138   2.242   7.264
 1130SOL    HW115421   1.093   2.305   7.328
 1130SOL    HW215422   1.231   2.273   7.247
 1131SOL     OW15423   1.160   2.069   7.063
 1131SOL    HW115424   1.160   2.133   7.140
 1131SOL    HW215425   1.188   2.117   6.980
 1132SOL     OW15426   0.088   3.663   6.513
 1132SOL    HW115427   0.046   3.577   6.486
 1132SOL    HW215428   0.182   3.666   6.479
 1133SOL     OW15429   0.504   3.430   6.496
 1133SOL    HW115430   0.570   3.504   6.505
 1133SOL    HW215431   0.548   3.351   6.454
 1134SOL     OW15432   1.002   2.658   6.824
 1134SOL    HW115433   1.043   2.626   6.910
 1134SOL    HW215434   0.906   2.631   6.821
 1135SOL     OW15435   0.040   2.406   6.700
 1135SOL    HW115436   0.125   2.373   6.659
 1135SOL    HW215437   0.053   2.421   6.798
 1136SOL     OW15438   1.657   2.466   6.792
 1136SOL    HW115439   1.619   2.397   6.854
 1136SOL    HW215440   1.739   2.430   6.748
 1137SOL     OW15441   0.671   2.326   6.855
 1137SOL    HW115442   0.637   2.237   6.825
 1137SOL    HW215443   0.697   2.380   6.775
 1138SOL     OW15444   0.930   3.540   7.051
 1138SOL    HW115445   0.906   3.522   6.956
 1138SOL    HW215446   0.960   3.634   7.061
 1139SOL     OW15447   0.159   2.999   7.052
 1139SOL    HW115448   0.181   2.938   7.128
 1139SOL    HW215449   0.169   2.950   6.966
 1140SOL     OW15450   1.347   2.921   6.820
 1140SOL    HW115451   1.371   2.858   6.746
 1140SOL    HW215452   1.257   2.961   6.802
 1141SOL     OW15453   1.302   2.717   5.895
 1141SOL    HW115454   1.216   2.686   5.937
 1141SOL    HW215455   1.298   2.703   5.796
 1142SOL     OW15456   1.759   3.609   6.740
 1142SOL    HW115457   1.820   3.639   6.667
 1142SOL    HW215458   1.721   3.520   6.718
 1143SOL     OW15459   1.252   3.593   6.714
 1143SOL    HW115460   1.336   3.598   6.660
 1143SOL    HW215461   1.229   3.497   6.732
 1144SOL     OW15462   0.083   3.120   6.608
 1144SOL    HW115463   0.078   3.119   6.708
 1144SOL    HW215464   0.000   3.079   6.570
 1145SOL     OW15465   1.726   1.997   6.109
 1145SOL    HW115466   1.799   1.980   6.042
 1145SOL    HW215467   1.695   1.910   6.147
 1146SOL     OW15468   1.388   3.435   6.063
 1146SOL    HW115469   1.455   3.447   5.989
 1146SOL    HW215470   1.348   3.524   6.086
 1147SOL     OW15471   1.280   2.789   6.258
 1147SOL    HW115472   1.340   2.708   6.260
 1147SOL    HW215473   1.320   2.858   6.198
 1148SOL     OW15474   0.672   3.478   5.740
 1148SOL    HW115475   0.681   3.488   5.641
 1148SOL    HW215476   0.632   3.389   5.761
 1149SOL     OW15477   1.650   3.582   6.980
 1149SOL    HW115478   1.703   3.592   6.896
 1149SOL    HW215479   1.623   3.672   7.014
 1150SOL     OW15480   1.841   2.037   6.549
 1150SOL    HW115481   1.880   1.952   6.513
 1150SOL    HW215482   1.743   2.039   6.530
 1151SOL     OW15483   0.263   2.188   6.306
 1151SOL    HW115484   0.184   2.239   6.272
 1151SOL    HW215485   0.254   2.173   6.404
 1152SOL     OW15486   0.822   2.864   6.958
 1152SOL    HW115487   0.862   2.863   6.866
 1152SOL    HW215488   0.832   2.956   6.998
 1153SOL     OW15489   0.916   2.772   5.877
 1153SOL    HW115490   0.979   2.810   5.809
 1153SOL    HW215491   0.956   2.689   5.916
 1154SOL     OW15492   0.372   3.150   7.076
 1154SOL    HW115493   0.359   3.243   7.042
 1154SOL    HW215494   0.288   3.098   7.063
 1155SOL     OW15495   1.614   3.154   6.875
 1155SOL    HW115496   1.674   3.157   6.955
 1155SOL    HW215497   1.539   3.218   6.888
 1156SOL     OW15498   1.039   2.960   6.282
 1156SOL    HW115499   0.969   2.913   6.336
 1156SOL    HW215500   1.098   2.892   6.239
 1157SOL     OW15501   1.014   2.098   6.557
 1157SOL    HW115502   1.006   2.062   6.464
 1157SOL    HW215503   1.012   2.022   6.622
 1158SOL     OW15504   0.590   3.349   6.077
 1158SOL    HW115505   0.632   3.291   6.007
 1158SOL    HW215506   0.546   3.428   6.033
 1159SOL     OW15507   1.709   2.247   6.967
 1159SOL    HW115508   1.782   2.316   6.971
 1159SOL    HW215509   1.737   2.172   6.908
 1160SOL     OW15510   0.255   3.210   5.876
 1160SOL    HW115511   0.159   3.211   5.849
 1160SOL    HW215512   0.267   3.263   5.960
 1161SOL     OW15513   0.075   2.207   5.619
 1161SOL    HW115514  -0.017   2.179   5.590
 1161SOL    HW215515   0.106   2.284   5.563
 1162SOL     OW15516   1.440   2.718   6.984
 1162SOL    HW115517   1.383   2.770   6.921
 1162SOL    HW215518   1.536   2.730   6.960
 1163SOL     OW15519   0.072   2.028   5.904
 1163SOL    HW115520   0.055   2.111   5.850
 1163SOL    HW215521   0.162   1.991   5.882
 1164SOL     OW15522   1.183   3.197   5.705
 1164SOL    HW115523   1.084   3.186   5.707
 1164SOL    HW215524   1.217   3.212   5.798
 1165SOL     OW15525   0.613   2.704   7.017
 1165SOL    HW115526   0.669   2.785   7.000
 1165SOL    HW215527   0.672   2.624   7.020
 1166SOL     OW15528   1.493   3.629   6.545
 1166SOL    HW115529   1.526   3.693   6.476
 1166SOL    HW215530   1.559   3.623   6.620
 1167SOL     OW15531   0.390   3.603   7.146
 1167SOL    HW115532   0.299   3.644   7.144
 1167SOL    HW215533   0.383   3.509   7.178
 1168SOL     OW15534   1.674   2.745   6.840
 1168SOL    HW115535   1.647   2.656   6.803
 1168SOL    HW215536   1.675   2.813   6.767
 1169SOL     OW15537   1.225   2.187   6.035
 1169SOL    HW115538   1.290   2.113   6.024
 1169SOL    HW215539   1.245   2.237   6.119
 1170SOL     OW15540   0.594   2.607   6.238
 1170SOL    HW115541   0.644   2.692   6.219
 1170SOL    HW215542   0.506   2.609   6.190
 1171SOL     OW15543   1.777   2.204   7.228
 1171SOL    HW115544   1.760   2.235   7.134
 1171SOL    HW215545   1.693   2.167   7.266
 1172SOL     OW15546   1.730   2.796   7.103
 1172SOL    HW115547   1.768   2.887   7.118
 1172SOL    HW215548   1.722   2.779   7.004
 1173SOL     OW15549   0.661   3.652   6.539
 1173SOL    HW115550   0.615   3.740   6.526
 1173SOL    HW215551   0.760   3.664   6.532
 1174SOL     OW15552   0.859   2.818   6.447
 1174SOL    HW115553   0.913   2.749   6.495
 1174SOL    HW215554   0.827   2.887   6.513
 1175SOL     OW15555   1.083   2.846   5.673
 1175SOL    HW115556   1.060   2.899   5.591
 1175SOL    HW215557   1.164   2.790   5.654
 1176SOL     OW15558   1.861   3.431   6.437
 1176SOL    HW115559   1.790   3.419   6.367
 1176SOL    HW215560   1.862   3.352   6.497
 1177SOL     OW15561   0.079   3.102   6.239
 1177SOL    HW115562   0.078   3.055   6.327
 1177SOL    HW215563   0.161   3.074   6.188
 1178SOL     OW15564   1.824   2.054   6.813
 1178SOL    HW115565   1.820   1.964   6.857
 1178SOL    HW215566   1.827   2.043   6.714
 1179SOL     OW15567   0.428   2.286   6.106
 1179SOL    HW115568   0.458   2.214   6.044
 1179SOL    HW215569   0.389   2.246   6.189
 1180SOL     OW15570   1.705   3.349   6.690
 1180SOL    HW115571   1.612   3.324   6.663
 1180SOL    HW215572   1.731   3.299   6.772
 1181SOL     OW15573   0.317   2.409   6.866
 1181SOL    HW115574   0.355   2.350   6.938
 1181SOL    HW215575   0.357   2.383   6.778
 1182SOL     OW15576   0.812   3.448   6.273
 1182SOL    HW115577   0.844   3.458   6.179
 1182SOL    HW215578   0.733   3.386   6.275
 1183SOL     OW15579   1.424   2.076   6.698
 1183SOL    HW115580   1.476   2.011   6.753
 1183SOL    HW215581   1.375   2.139   6.759
 1184SOL     OW15582   1.001   1.896   6.740
 1184SOL    HW115583   0.938   1.824   6.709
 1184SOL    HW215584   1.094   1.860   6.740
 1185SOL     OW15585   0.770   3.192   5.887
 1185SOL    HW115586   0.724   3.105   5.904
 1185SOL    HW215587   0.861   3.189   5.928
 1186SOL     OW15588   0.618   3.429   6.870
 1186SOL    HW115589   0.613   3.511   6.927
 1186SOL    HW215590   0.707   3.426   6.825
 1187SOL     OW15591   1.352   1.914   5.754
 1187SOL    HW115592   1.387   1.873   5.670
 1187SOL    HW215593   1.262   1.876   5.774
 1188SOL     OW15594   1.300   2.315   6.277
 1188SOL    HW115595   1.241   2.395   6.281
 1188SOL    HW215596   1.315   2.280   6.370
 1189SOL     OW15597   1.593   2.083   6.468
 1189SOL    HW115598   1.509   2.082   6.522
 1189SOL    HW215599   1.595   2.166   6.412
 1190SOL     OW15600   0.039   2.939   5.886
 1190SOL    HW115601   0.138   2.928   5.877
 1190SOL    HW215602  -0.001   2.853   5.918
 1191SOL     OW15603   0.875   3.508   5.923
 1191SOL    HW115604   0.798   3.473   5.869
 1191SOL    HW215605   0.843   3.579   5.985
 1192SOL     OW15606   0.230   4.352   0.113
 1192SOL    HW115607   0.137   4.350   0.150
 1192SOL    HW215608   0.231   4.313   0.021
 1193SOL     OW15609   0.225   3.999   0.996
 1193SOL    HW115610   0.260   3.982   1.088
 1193SOL    HW215611   0.137   3.954   0.984
 1194SOL     OW15612   0.019   4.092   0.647
 1194SOL    HW115613  -0.063   4.135   0.686
 1194SOL    HW215614  -0.009   4.019   0.584
 1195SOL     OW15615   1.555   5.235   0.703
 1195SOL    HW115616   1.498   5.219   0.784
 1195SOL    HW215617   1.496   5.245   0.623
 1196SOL     OW15618   1.135   4.427   0.717
 1196SOL    HW115619   1.192   4.505   0.692
 1196SOL    HW215620   1.075   4.453   0.793
 1197SOL     OW15621   1.755   4.331   0.231
 1197SOL    HW115622   1.743   4.318   0.132
 1197SOL    HW215623   1.725   4.250   0.280
 1198SOL     OW15624   0.768   4.868   1.023
 1198SOL    HW115625   0.690   4.885   1.083
 1198SOL    HW215626   0.802   4.955   0.987
 1199SOL     OW15627   0.685   4.736   0.665
 1199SOL    HW115628   0.754   4.720   0.735
 1199SOL    HW215629   0.612   4.793   0.703
 1200SOL     OW15630   0.335   5.159   1.061
 1200SOL    HW115631   0.257   5.128   1.008
 1200SOL    HW215632   0.393   5.217   1.004
 1201SOL     OW15633   1.460   5.229   1.339
 1201SOL    HW115634   1.484   5.323   1.365
 1201SOL    HW215635   1.444   5.175   1.421
 1202SOL     OW15636   1.603   4.171   0.737
 1202SOL    HW115637   1.529   4.217   0.687
 1202SOL    HW215638   1.654   4.239   0.790
 1203SOL     OW15639   0.231   5.437   0.483
 1203SOL    HW115640   0.265   5.514   0.537
 1203SOL    HW215641   0.275   5.437   0.393
 1204SOL     OW15642   1.127   5.065   1.690
 1204SOL    HW115643   1.174   5.065   1.778
 1204SOL    HW215644   1.079   4.978   1.679
 1205SOL     OW15645   0.230   5.158   0.538
 1205SOL    HW115646   0.204   5.254   0.538
 1205SOL    HW215647   0.159   5.104   0.583
 1206SOL     OW15648   0.240   4.815   0.886
 1206SOL    HW115649   0.254   4.731   0.938
 1206SOL    HW215650   0.185   4.879   0.941
 1207SOL     OW15651   0.606   4.688   0.123
 1207SOL    HW115652   0.613   4.772   0.069
 1207SOL    HW215653   0.652   4.701   0.211
 1208SOL     OW15654   1.594   3.838   1.480
 1208SOL    HW115655   1.576   3.905   1.408
 1208SOL    HW215656   1.591   3.884   1.569
 1209SOL     OW15657   0.122   4.367   0.563
 1209SOL    HW115658   0.077   4.279   0.580
 1209SOL    HW215659   0.121   4.421   0.647
 1210SOL     OW15660   1.842   5.491   0.359
 1210SOL    HW115661   1.896   5.462   0.439
 1210SOL    HW215662   1.872   5.581   0.330
 1211SOL     OW15663   0.027   5.320   0.117
 1211SOL    HW115664   0.008   5.224   0.138
 1211SOL    HW215665  -0.006   5.378   0.192
 1212SOL     OW15666   1.689   4.646   0.612
 1212SOL    HW115667   1.784   4.617   0.620
 1212SOL    HW215668   1.681   4.711   0.537
 1213SOL     OW15669   1.641   4.832   0.432
 1213SOL    HW115670   1.727   4.834   0.380
 1213SOL    HW215671   1.655   4.879   0.520
 1214SOL     OW15672   0.613   5.089   0.726
 1214SOL    HW115673   0.564   5.002   0.735
 1214SOL    HW215674   0.590   5.132   0.639
 1215SOL     OW15675   0.809   3.728   0.502
 1215SOL    HW115676   0.849   3.819   0.493
 1215SOL    HW215677   0.709   3.736   0.508
 1216SOL     OW15678   0.197   4.700   1.264
 1216SOL    HW115679   0.286   4.655   1.250
 1216SOL    HW215680   0.124   4.635   1.245
 1217SOL     OW15681   1.525   4.723   0.190
 1217SOL    HW115682   1.462   4.647   0.203
 1217SOL    HW215683   1.573   4.741   0.276
 1218SOL     OW15684   1.187   5.516   1.616
 1218SOL    HW115685   1.211   5.576   1.540
 1218SOL    HW215686   1.194   5.421   1.586
 1219SOL     OW15687   1.466   5.141   0.953
 1219SOL    HW115688   1.407   5.147   1.033
 1219SOL    HW215689   1.451   5.053   0.907
 1220SOL     OW15690   1.667   5.438   0.572
 1220SOL    HW115691   1.626   5.415   0.484
 1220SOL    HW215692   1.649   5.364   0.637
 1221SOL     OW15693   0.598   4.453   0.270
 1221SOL    HW115694   0.622   4.522   0.202
 1221SOL    HW215695   0.520   4.486   0.324
 1222SOL     OW15696   1.281   4.069   0.944
 1222SOL    HW115697   1.195   4.019   0.931
 1222SOL    HW215698   1.343   4.015   1.000
 1223SOL     OW15699   1.576   5.386   0.307
 1223SOL    HW115700   1.665   5.432   0.310
 1223SOL    HW215701   1.555   5.362   0.212
 1224SOL     OW15702   0.807   4.329   1.465
 1224SOL    HW115703   0.760   4.326   1.554
 1224SOL    HW215704   0.756   4.274   1.399
 1225SOL     OW15705   1.041   4.425   0.429
 1225SOL    HW115706   1.067   4.421   0.525
 1225SOL    HW215707   0.956   4.374   0.415
 1226SOL     OW15708   0.076   4.535   0.789
 1226SOL    HW115709   0.175   4.523   0.798
 1226SOL    HW215710   0.052   4.630   0.810
 1227SOL     OW15711   0.130   5.545   1.571
 1227SOL    HW115712   0.120   5.530   1.670
 1227SOL    HW215713   0.044   5.581   1.535
 1228SOL     OW15714   0.865   4.072   0.195
 1228SOL    HW115715   0.924   4.135   0.146
 1228SOL    HW215716   0.884   3.978   0.166
 1229SOL     OW15717   1.362   4.868   0.545
 1229SOL    HW115718   1.445   4.839   0.497
 1229SOL    HW215719   1.313   4.935   0.489
 1230SOL     OW15720   0.550   3.920   0.885
 1230SOL    HW115721   0.545   3.915   0.985
 1230SOL    HW215722   0.552   4.016   0.856
 1231SOL     OW15723   1.008   5.180   0.477
 1231SOL    HW115724   0.962   5.252   0.425
 1231SOL    HW215725   1.004   5.200   0.575
 1232SOL     OW15726   0.351   5.525   0.853
 1232SOL    HW115727   0.401   5.439   0.859
 1232SOL    HW215728   0.416   5.602   0.850
 1233SOL     OW15729   1.795   4.790   0.873
 1233SOL    HW115730   1.733   4.775   0.797
 1233SOL    HW215731   1.743   4.801   0.958
 1234SOL     OW15732   1.227   5.274   1.506
 1234SOL    HW115733   1.233   5.197   1.570
 1234SOL    HW215734   1.175   5.248   1.426
 1235SOL     OW15735   0.321   4.667   0.242
 1235SOL    HW115736   0.403   4.706   0.200
 1235SOL    HW215737   0.294   4.585   0.193
 1236SOL     OW15738   1.458   4.459   0.728
 1236SOL    HW115739   1.453   4.394   0.803
 1236SOL    HW215740   1.538   4.518   0.741
 1237SOL     OW15741   1.111   5.500   0.237
 1237SOL    HW115742   1.051   5.438   0.287
 1237SOL    HW215743   1.142   5.456   0.152
 1238SOL     OW15744   0.202   4.009   1.498
 1238SOL    HW115745   0.122   4.069   1.485
 1238SOL    HW215746   0.192   3.960   1.584
 1239SOL     OW15747   1.632   5.101   0.081
 1239SOL    HW115748   1.600   5.195   0.071
 1239SOL    HW215749   1.556   5.038   0.069
 1240SOL     OW15750   0.464   5.467   0.323
 1240SOL    HW115751   0.497   5.506   0.409
 1240SOL    HW215752   0.540   5.460   0.258
 1241SOL     OW15753   1.400   3.831   0.426
 1241SOL    HW115754   1.376   3.794   0.336
 1241SOL    HW215755   1.499   3.847   0.430
 1242SOL     OW15756   0.940   5.422   0.904
 1242SOL    HW115757   1.020   5.365   0.925
 1242SOL    HW215758   0.891   5.382   0.827
 1243SOL     OW15759   0.382   4.424   0.480
 1243SOL    HW115760   0.427   4.334   0.477
 1243SOL    HW215761   0.288   4.413   0.513
 1244SOL     OW15762   0.614   3.846   0.117
 1244SOL    HW115763   0.712   3.824   0.124
 1244SOL    HW215764   0.583   3.829   0.024
 1245SOL     OW15765   0.781   3.988   1.749
 1245SOL    HW115766   0.848   3.927   1.792
 1245SOL    HW215767   0.708   4.007   1.814
 1246SOL     OW15768   0.888   5.238   1.195
 1246SOL    HW115769   0.865   5.213   1.101
 1246SOL    HW215770   0.949   5.169   1.234
 1247SOL     OW15771   1.351   4.314   1.433
 1247SOL    HW115772   1.379   4.271   1.518
 1247SOL    HW215773   1.376   4.410   1.434
 1248SOL     OW15774   0.803   5.126   0.924
 1248SOL    HW115775   0.893   5.140   0.882
 1248SOL    HW215776   0.732   5.128   0.853
 1249SOL     OW15777   0.922   4.227   0.899
 1249SOL    HW115778   0.897   4.218   0.803
 1249SOL    HW215779   0.970   4.145   0.930
 1250SOL     OW15780   0.539   3.788   0.512
 1250SOL    HW115781   0.458   3.789   0.570
 1250SOL    HW215782   0.542   3.871   0.457
 1251SOL     OW15783   1.434   4.912   0.041
 1251SOL    HW115784   1.466   4.836   0.098
 1251SOL    HW215785   1.342   4.939   0.071
 1252SOL     OW15786   0.297   3.759   0.171
 1252SOL    HW115787   0.346   3.843   0.150
 1252SOL    HW215788   0.359   3.694   0.216
 1253SOL     OW15789   0.935   3.960   0.480
 1253SOL    HW115790   0.887   4.001   0.402
 1253SOL    HW215791   1.034   3.958   0.461
 1254SOL     OW15792   1.076   4.407   1.464
 1254SOL    HW115793   0.996   4.346   1.467
 1254SOL    HW215794   1.157   4.354   1.440
 1255SOL     OW15795   1.227   5.294   0.793
 1255SOL    HW115796   1.248   5.368   0.728
 1255SOL    HW215797   1.295   5.294   0.866
 1256SOL     OW15798   0.459   4.876   0.741
 1256SOL    HW115799   0.388   4.849   0.806
 1256SOL    HW215800   0.433   4.848   0.648
 1257SOL     OW15801   1.271   5.521   0.591
 1257SOL    HW115802   1.315   5.585   0.527
 1257SOL    HW215803   1.221   5.573   0.661
 1258SOL     OW15804   1.032   4.273   0.016
 1258SOL    HW115805   0.991   4.355  -0.023
 1258SOL    HW215806   1.096   4.299   0.089
 1259SOL     OW15807   0.866   4.178   0.642
 1259SOL    HW115808   0.834   4.250   0.580
 1259SOL    HW215809   0.890   4.097   0.589
 1260SOL     OW15810   1.017   3.763   0.753
 1260SOL    HW115811   0.945   3.768   0.684
 1260SOL    HW215812   0.993   3.694   0.822
 1261SOL     OW15813   1.429   4.897   0.867
 1261SOL    HW115814   1.374   4.813   0.860
 1261SOL    HW215815   1.455   4.926   0.775
 1262SOL     OW15816   1.466   4.314   0.992
 1262SOL    HW115817   1.436   4.219   0.999
 1262SOL    HW215818   1.539   4.330   1.058
 1263SOL     OW15819   1.857   4.557   0.377
 1263SOL    HW115820   1.899   4.493   0.441
 1263SOL    HW215821   1.819   4.506   0.299
 1264SOL     OW15822   0.488   5.109   0.174
 1264SOL    HW115823   0.401   5.094   0.221
 1264SOL    HW215824   0.471   5.135   0.079
 1265SOL     OW15825   1.664   5.004   0.657
 1265SOL    HW115826   1.763   5.012   0.671
 1265SOL    HW215827   1.619   5.088   0.688
 1266SOL     OW15828   1.390   4.299   0.078
 1266SOL    HW115829   1.336   4.278   0.159
 1266SOL    HW215830   1.481   4.258   0.087
 1267SOL     OW15831   0.527   3.980   0.328
 1267SOL    HW115832   0.554   3.921   0.253
 1267SOL    HW215833   0.527   4.075   0.297
 1268SOL     OW15834   1.064   5.071   1.340
 1268SOL    HW115835   0.984   5.048   1.395
 1268SOL    HW215836   1.147   5.045   1.389
 1269SOL     OW15837   1.592   5.353   1.625
 1269SOL    HW115838   1.619   5.387   1.535
 1269SOL    HW215839   1.671   5.315   1.671
 1270SOL     OW15840   1.111   4.919   1.100
 1270SOL    HW115841   1.071   4.963   1.181
 1270SOL    HW215842   1.070   4.956   1.017
 1271SOL     OW15843   1.638   4.823   1.079
 1271SOL    HW115844   1.643   4.904   1.138
 1271SOL    HW215845   1.552   4.825   1.028
 1272SOL     OW15846   0.705   4.774   0.368
 1272SOL    HW115847   0.691   4.781   0.467
 1272SOL    HW215848   0.789   4.723   0.350
 1273SOL     OW15849   1.274   4.110   1.262
 1273SOL    HW115850   1.295   4.184   1.326
 1273SOL    HW215851   1.185   4.127   1.219
 1274SOL     OW15852   0.064   5.288   1.331
 1274SOL    HW115853   0.018   5.370   1.297
 1274SOL    HW215854   0.162   5.307   1.340
 1275SOL     OW15855   0.367   4.824   0.501
 1275SOL    HW115856   0.360   4.907   0.445
 1275SOL    HW215857   0.371   4.744   0.441
 1276SOL     OW15858   0.566   4.261   0.865
 1276SOL    HW115859   0.578   4.327   0.791
 1276SOL    HW215860   0.612   4.295   0.948
 1277SOL     OW15861   1.252   5.072   0.388
 1277SOL    HW115862   1.302   5.149   0.428
 1277SOL    HW215863   1.157   5.074   0.420
 1278SOL     OW15864   1.272   5.169   1.142
 1278SOL    HW115865   1.319   5.182   1.229
 1278SOL    HW215866   1.206   5.095   1.151
 1279SOL     OW15867   1.582   4.363   0.472
 1279SOL    HW115868   1.551   4.424   0.545
 1279SOL    HW215869   1.632   4.415   0.403
 1280SOL     OW15870   0.402   4.475   1.598
 1280SOL    HW115871   0.470   4.530   1.551
 1280SOL    HW215872   0.442   4.387   1.625
 1281SOL     OW15873   0.573   4.594   1.029
 1281SOL    HW115874   0.617   4.683   1.020
 1281SOL    HW215875   0.510   4.594   1.106
 1282SOL     OW15876   1.360   4.586   1.045
 1282SOL    HW115877   1.285   4.586   0.979
 1282SOL    HW215878   1.397   4.494   1.054
 1283SOL     OW15879   1.209   4.249   0.275
 1283SOL    HW115880   1.222   4.165   0.329
 1283SOL    HW215881   1.180   4.323   0.335
 1284SOL     OW15882   0.037   5.034   1.282
 1284SOL    HW115883   0.090   4.985   1.350
 1284SOL    HW215884   0.059   5.132   1.287
 1285SOL     OW15885   0.732   4.358   1.064
 1285SOL    HW115886   0.791   4.332   0.988
 1285SOL    HW215887   0.704   4.454   1.053
 1286SOL     OW15888   0.307   3.787   0.618
 1286SOL    HW115889   0.296   3.881   0.651
 1286SOL    HW215890   0.302   3.724   0.695
 1287SOL     OW15891   1.622   4.091   0.374
 1287SOL    HW115892   1.624   4.015   0.438
 1287SOL    HW215893   1.574   4.168   0.414
 1288SOL     OW15894   1.023   4.490   0.966
 1288SOL    HW115895   1.038   4.511   1.062
 1288SOL    HW215896   0.993   4.395   0.957
 1289SOL     OW15897   1.859   5.242   1.605
 1289SOL    HW115898   1.873   5.269   1.510
 1289SOL    HW215899   1.942   5.264   1.658
 1290SOL     OW15900   1.540   3.998   0.125
 1290SOL    HW115901   1.479   3.923   0.148
 1290SOL    HW215902   1.562   4.050   0.208
 1291SOL     OW15903   1.303   4.562   0.042
 1291SOL    HW115904   1.337   4.469   0.057
 1291SOL    HW215905   1.321   4.589  -0.053
 1292SOL     OW15906   1.068   5.057   0.849
 1292SOL    HW115907   1.075   4.973   0.794
 1292SOL    HW215908   1.130   5.126   0.813
 1293SOL     OW15909   0.319   4.534   0.949
 1293SOL    HW115910   0.412   4.570   0.954
 1293SOL    HW215911   0.313   4.449   1.001
 1294SOL     OW15912   0.339   4.233   1.006
 1294SOL    HW115913   0.287   4.150   0.989
 1294SOL    HW215914   0.416   4.238   0.942
 1295SOL     OW15915   0.008   5.050   0.200
 1295SOL    HW115916  -0.085   5.071   0.169
 1295SOL    HW215917   0.018   4.951   0.213
 1296SOL     OW15918   0.088   5.525   0.927
 1296SOL    HW115919   0.046   5.439   0.900
 1296SOL    HW215920   0.182   5.528   0.893
 1297SOL     OW15921   0.504   5.292   0.910
 1297SOL    HW115922   0.570   5.366   0.919
 1297SOL    HW215923   0.548   5.213   0.868
 1298SOL     OW15924   1.002   4.520   1.238
 1298SOL    HW115925   1.043   4.488   1.324
 1298SOL    HW215926   0.906   4.493   1.235
 1299SOL     OW15927   0.040   4.268   1.114
 1299SOL    HW115928   0.125   4.235   1.073
 1299SOL    HW215929   0.053   4.283   1.212
 1300SOL     OW15930   0.189   4.244   1.722
 1300SOL    HW115931   0.248   4.204   1.652
 1300SOL    HW215932   0.131   4.315   1.681
 1301SOL     OW15933   0.815   4.296   0.325
 1301SOL    HW115934   0.822   4.207   0.279
 1301SOL    HW215935   0.721   4.330   0.317
 1302SOL     OW15936   1.657   4.328   1.206
 1302SOL    HW115937   1.619   4.259   1.268
 1302SOL    HW215938   1.739   4.292   1.162
 1303SOL     OW15939   0.930   5.402   1.465
 1303SOL    HW115940   0.906   5.384   1.370
 1303SOL    HW215941   0.960   5.496   1.475
 1304SOL     OW15942   0.473   4.224   0.191
 1304SOL    HW115943   0.534   4.304   0.195
 1304SOL    HW215944   0.378   4.255   0.198
 1305SOL     OW15945   1.302   4.579   0.309
 1305SOL    HW115946   1.216   4.548   0.351
 1305SOL    HW215947   1.298   4.565   0.210
 1306SOL     OW15948   1.759   5.471   1.154
 1306SOL    HW115949   1.820   5.501   1.081
 1306SOL    HW215950   1.721   5.382   1.132
 1307SOL     OW15951   1.252   5.455   1.128
 1307SOL    HW115952   1.336   5.460   1.074
 1307SOL    HW215953   1.229   5.359   1.146
 1308SOL     OW15954   0.083   4.982   1.022
 1308SOL    HW115955   0.078   4.981   1.122
 1308SOL    HW215956   0.000   4.941   0.984
 1309SOL     OW15957   0.903   3.810   0.133
 1309SOL    HW115958   0.954   3.811   0.047
 1309SOL    HW215959   0.959   3.768   0.204
 1310SOL     OW15960   1.726   3.859   0.523
 1310SOL    HW115961   1.799   3.842   0.456
 1310SOL    HW215962   1.695   3.772   0.561
 1311SOL     OW15963   1.388   5.297   0.477
 1311SOL    HW115964   1.455   5.309   0.403
 1311SOL    HW215965   1.348   5.386   0.500
 1312SOL     OW15966   1.280   4.651   0.672
 1312SOL    HW115967   1.340   4.570   0.674
 1312SOL    HW215968   1.320   4.720   0.612
 1313SOL     OW15969   0.672   5.340   0.154
 1313SOL    HW115970   0.681   5.350   0.055
 1313SOL    HW215971   0.632   5.251   0.175
 1314SOL     OW15972   1.650   5.444   1.394
 1314SOL    HW115973   1.703   5.454   1.310
 1314SOL    HW215974   1.623   5.534   1.428
 1315SOL     OW15975   1.841   3.899   0.963
 1315SOL    HW115976   1.880   3.814   0.927
 1315SOL    HW215977   1.743   3.901   0.944
 1316SOL     OW15978   0.263   4.050   0.720
 1316SOL    HW115979   0.184   4.101   0.686
 1316SOL    HW215980   0.254   4.035   0.818
 1317SOL     OW15981   1.194   5.336   0.031
 1317SOL    HW115982   1.200   5.243   0.068
 1317SOL    HW215983   1.135   5.336  -0.049
 1318SOL     OW15984   0.822   4.726   1.372
 1318SOL    HW115985   0.862   4.725   1.280
 1318SOL    HW215986   0.832   4.818   1.412
 1319SOL     OW15987   0.916   4.634   0.291
 1319SOL    HW115988   0.979   4.672   0.223
 1319SOL    HW215989   0.956   4.551   0.330
 1320SOL     OW15990   1.504   5.331   0.044
 1320SOL    HW115991   1.412   5.368   0.051
 1320SOL    HW215992   1.542   5.351  -0.046
 1321SOL     OW15993   1.614   5.016   1.289
 1321SOL    HW115994   1.674   5.019   1.369
 1321SOL    HW215995   1.539   5.080   1.302
 1322SOL     OW15996   1.039   4.822   0.696
 1322SOL    HW115997   0.969   4.775   0.750
 1322SOL    HW215998   1.098   4.754   0.653
 1323SOL     OW15999   0.590   5.211   0.491
 1323SOL    HW116000   0.632   5.153   0.421
 1323SOL    HW216001   0.546   5.290   0.447
 1324SOL     OW16002   1.709   4.109   1.381
 1324SOL    HW116003   1.782   4.178   1.385
 1324SOL    HW216004   1.737   4.034   1.322
 1325SOL     OW16005   0.255   5.072   0.290
 1325SOL    HW116006   0.159   5.073   0.263
 1325SOL    HW216007   0.267   5.125   0.374
 1326SOL     OW16008   0.075   4.069   0.033
 1326SOL    HW116009  -0.017   4.041   0.004
 1326SOL    HW216010   0.106   4.146  -0.023
 1327SOL     OW16011   0.072   3.890   0.318
 1327SOL    HW116012   0.055   3.973   0.264
 1327SOL    HW216013   0.162   3.853   0.296
 1328SOL     OW16014   1.183   5.059   0.119
 1328SOL    HW116015   1.084   5.048   0.121
 1328SOL    HW216016   1.217   5.074   0.212
 1329SOL     OW16017   0.613   4.566   1.431
 1329SOL    HW116018   0.669   4.647   1.414
 1329SOL    HW216019   0.672   4.486   1.434
 1330SOL     OW16020   1.493   5.491   0.959
 1330SOL    HW116021   1.526   5.555   0.890
 1330SOL    HW216022   1.559   5.485   1.034
 1331SOL     OW16023   0.390   5.465   1.560
 1331SOL    HW116024   0.299   5.506   1.558
 1331SOL    HW216025   0.383   5.371   1.592
 1332SOL     OW16026   1.674   4.607   1.254
 1332SOL    HW116027   1.647   4.518   1.217
 1332SOL    HW216028   1.675   4.675   1.181
 1333SOL     OW16029   1.225   4.049   0.449
 1333SOL    HW116030   1.290   3.975   0.438
 1333SOL    HW216031   1.245   4.099   0.533
 1334SOL     OW16032   0.594   4.469   0.652
 1334SOL    HW116033   0.644   4.554   0.633
 1334SOL    HW216034   0.506   4.471   0.604
 1335SOL     OW16035   0.859   5.098   0.016
 1335SOL    HW116036   0.813   5.113   0.104
 1335SOL    HW216037   0.903   5.183  -0.014
 1336SOL     OW16038   0.661   5.514   0.953
 1336SOL    HW116039   0.615   5.602   0.940
 1336SOL    HW216040   0.760   5.526   0.946
 1337SOL     OW16041   0.859   4.680   0.861
 1337SOL    HW116042   0.913   4.611   0.909
 1337SOL    HW216043   0.827   4.749   0.927
 1338SOL     OW16044   1.083   4.708   0.087
 1338SOL    HW116045   1.060   4.761   0.005
 1338SOL    HW216046   1.164   4.652   0.068
 1339SOL     OW16047   1.861   5.293   0.851
 1339SOL    HW116048   1.790   5.281   0.781
 1339SOL    HW216049   1.862   5.214   0.911
 1340SOL     OW16050   0.079   4.964   0.653
 1340SOL    HW116051   0.078   4.917   0.741
 1340SOL    HW216052   0.161   4.936   0.602
 1341SOL     OW16053   1.824   3.916   1.227
 1341SOL    HW116054   1.820   3.826   1.271
 1341SOL    HW216055   1.827   3.905   1.128
 1342SOL     OW16056   0.428   4.148   0.520
 1342SOL    HW116057   0.458   4.076   0.458
 1342SOL    HW216058   0.389   4.108   0.603
 1343SOL     OW16059   1.705   5.211   1.104
 1343SOL    HW116060   1.612   5.186   1.077
 1343SOL    HW216061   1.731   5.161   1.186
 1344SOL     OW16062   0.812   5.310   0.687
 1344SOL    HW116063   0.844   5.320   0.593
 1344SOL    HW216064   0.733   5.248   0.689
 1345SOL     OW16065   1.424   3.938   1.112
 1345SOL    HW116066   1.476   3.873   1.167
 1345SOL    HW216067   1.375   4.001   1.173
 1346SOL     OW16068   0.770   5.054   0.301
 1346SOL    HW116069   0.724   4.967   0.318
 1346SOL    HW216070   0.861   5.051   0.342
 1347SOL     OW16071   1.352   3.776   0.168
 1347SOL    HW116072   1.387   3.735   0.084
 1347SOL    HW216073   1.262   3.738   0.188
 1348SOL     OW16074   1.300   4.177   0.691
 1348SOL    HW116075   1.241   4.257   0.695
 1348SOL    HW216076   1.315   4.142   0.784
 1349SOL     OW16077   1.593   3.945   0.882
 1349SOL    HW116078   1.509   3.944   0.936
 1349SOL    HW216079   1.595   4.028   0.826
 1350SOL     OW16080   0.039   4.801   0.300
 1350SOL    HW116081   0.138   4.790   0.291
 1350SOL    HW216082  -0.001   4.715   0.332
 1351SOL     OW16083   0.875   5.370   0.337
 1351SOL    HW116084   0.798   5.335   0.283
 1351SOL    HW216085   0.843   5.441   0.399
 1352SOL     OW16086   0.569   4.999   3.027
 1352SOL    HW116087   0.476   4.992   2.990
 1352SOL    HW216088   0.580   5.088   3.071
 1353SOL     OW16089   0.438   4.116   3.361
 1353SOL    HW116090   0.520   4.060   3.370
 1353SOL    HW216091   0.357   4.058   3.365
 1354SOL     OW16092   0.231   5.437   2.345
 1354SOL    HW116093   0.265   5.514   2.399
 1354SOL    HW216094   0.275   5.437   2.255
 1355SOL     OW16095   0.240   4.815   2.748
 1355SOL    HW116096   0.254   4.731   2.800
 1355SOL    HW216097   0.185   4.879   2.803
 1356SOL     OW16098   1.842   5.491   2.221
 1356SOL    HW116099   1.896   5.462   2.301
 1356SOL    HW216100   1.872   5.581   2.192
 1357SOL     OW16101   1.641   4.832   2.294
 1357SOL    HW116102   1.727   4.834   2.242
 1357SOL    HW216103   1.655   4.879   2.382
 1358SOL     OW16104   0.113   4.461   3.459
 1358SOL    HW116105   0.201   4.448   3.504
 1358SOL    HW216106   0.100   4.558   3.437
 1359SOL     OW16107   0.613   5.089   2.588
 1359SOL    HW116108   0.564   5.002   2.597
 1359SOL    HW216109   0.590   5.132   2.501
 1360SOL     OW16110   1.667   5.438   2.434
 1360SOL    HW116111   1.626   5.415   2.346
 1360SOL    HW216112   1.649   5.364   2.499
 1361SOL     OW16113   1.576   5.386   2.169
 1361SOL    HW116114   1.665   5.432   2.172
 1361SOL    HW216115   1.555   5.362   2.074
 1362SOL     OW16116   0.807   4.329   3.327
 1362SOL    HW116117   0.760   4.326   3.416
 1362SOL    HW216118   0.756   4.274   3.261
 1363SOL     OW16119   0.973   4.614   3.434
 1363SOL    HW116120   1.019   4.530   3.405
 1363SOL    HW216121   0.917   4.648   3.359
 1364SOL     OW16122   0.865   4.072   2.057
 1364SOL    HW116123   0.924   4.135   2.008
 1364SOL    HW216124   0.884   3.978   2.028
 1365SOL     OW16125   1.795   4.790   2.735
 1365SOL    HW116126   1.733   4.775   2.659
 1365SOL    HW216127   1.743   4.801   2.820
 1366SOL     OW16128   1.227   5.274   3.368
 1366SOL    HW116129   1.233   5.197   3.432
 1366SOL    HW216130   1.175   5.248   3.288
 1367SOL     OW16131   0.202   4.009   3.360
 1367SOL    HW116132   0.122   4.069   3.347
 1367SOL    HW216133   0.192   3.960   3.446
 1368SOL     OW16134   0.249   5.509   3.103
 1368SOL    HW116135   0.306   5.444   3.153
 1368SOL    HW216136   0.233   5.476   3.010
 1369SOL     OW16137   0.382   4.424   2.342
 1369SOL    HW116138   0.427   4.334   2.339
 1369SOL    HW216139   0.288   4.413   2.375
 1370SOL     OW16140   0.935   3.960   2.342
 1370SOL    HW116141   0.887   4.001   2.264
 1370SOL    HW216142   1.034   3.958   2.323
 1371SOL     OW16143   1.076   4.407   3.326
 1371SOL    HW116144   0.996   4.346   3.329
 1371SOL    HW216145   1.157   4.354   3.302
 1372SOL     OW16146   0.459   4.876   2.603
 1372SOL    HW116147   0.388   4.849   2.668
 1372SOL    HW216148   0.433   4.848   2.510
 1373SOL     OW16149   1.271   5.521   2.453
 1373SOL    HW116150   1.315   5.585   2.389
 1373SOL    HW216151   1.221   5.573   2.523
 1374SOL     OW16152   1.032   4.273   1.878
 1374SOL    HW116153   0.991   4.355   1.839
 1374SOL    HW216154   1.096   4.299   1.951
 1375SOL     OW16155   0.078   4.280   3.248
 1375SOL    HW116156   0.170   4.279   3.207
 1375SOL    HW216157   0.072   4.354   3.315
 1376SOL     OW16158   0.561   3.946   3.009
 1376SOL    HW116159   0.599   3.862   3.046
 1376SOL    HW216160   0.473   3.965   3.053
 1377SOL     OW16161   1.111   4.919   2.962
 1377SOL    HW116162   1.071   4.963   3.043
 1377SOL    HW216163   1.070   4.956   2.879
 1378SOL     OW16164   0.367   4.824   2.363
 1378SOL    HW116165   0.360   4.907   2.307
 1378SOL    HW216166   0.371   4.744   2.303
 1379SOL     OW16167   1.252   5.072   2.250
 1379SOL    HW116168   1.302   5.149   2.290
 1379SOL    HW216169   1.157   5.074   2.282
 1380SOL     OW16170   0.402   4.475   3.460
 1380SOL    HW116171   0.470   4.530   3.413
 1380SOL    HW216172   0.442   4.387   3.487
 1381SOL     OW16173   0.037   5.034   3.144
 1381SOL    HW116174   0.090   4.985   3.212
 1381SOL    HW216175   0.059   5.132   3.149
 1382SOL     OW16176   0.732   4.358   2.926
 1382SOL    HW116177   0.791   4.332   2.850
 1382SOL    HW216178   0.704   4.454   2.915
 1383SOL     OW16179   1.728   4.659   3.716
 1383SOL    HW116180   1.682   4.652   3.627
 1383SOL    HW216181   1.666   4.703   3.782
 1384SOL     OW16182   0.307   3.787   2.480
 1384SOL    HW116183   0.296   3.881   2.513
 1384SOL    HW216184   0.302   3.724   2.557
 1385SOL     OW16185   1.023   4.490   2.828
 1385SOL    HW116186   1.038   4.511   2.924
 1385SOL    HW216187   0.993   4.395   2.819
 1386SOL     OW16188   1.068   5.057   2.711
 1386SOL    HW116189   1.075   4.973   2.656
 1386SOL    HW216190   1.130   5.126   2.675
 1387SOL     OW16191   1.160   3.931   3.339
 1387SOL    HW116192   1.160   3.995   3.416
 1387SOL    HW216193   1.188   3.979   3.256
 1388SOL     OW16194   0.008   5.050   2.062
 1388SOL    HW116195  -0.085   5.071   2.031
 1388SOL    HW216196   0.018   4.951   2.075
 1389SOL     OW16197   0.040   4.268   2.976
 1389SOL    HW116198   0.125   4.235   2.935
 1389SOL    HW216199   0.053   4.283   3.074
 1390SOL     OW16200   0.189   4.244   3.584
 1390SOL    HW116201   0.248   4.204   3.514
 1390SOL    HW216202   0.131   4.315   3.543
 1391SOL     OW16203   0.671   4.188   3.131
 1391SOL    HW116204   0.637   4.099   3.101
 1391SOL    HW216205   0.697   4.242   3.051
 1392SOL     OW16206   1.302   4.579   2.171
 1392SOL    HW116207   1.216   4.548   2.213
 1392SOL    HW216208   1.298   4.565   2.072
 1393SOL     OW16209   1.252   5.455   2.990
 1393SOL    HW116210   1.336   5.460   2.936
 1393SOL    HW216211   1.229   5.359   3.008
 1394SOL     OW16212   0.083   4.982   2.884
 1394SOL    HW116213   0.078   4.981   2.984
 1394SOL    HW216214   0.000   4.941   2.846
 1395SOL     OW16215   0.130   5.518   3.713
 1395SOL    HW116216   0.089   5.444   3.766
 1395SOL    HW216217   0.194   5.569   3.771
 1396SOL     OW16218   1.650   5.444   3.256
 1396SOL    HW116219   1.703   5.454   3.172
 1396SOL    HW216220   1.623   5.534   3.290
 1397SOL     OW16221   1.194   5.336   1.893
 1397SOL    HW116222   1.200   5.243   1.930
 1397SOL    HW216223   1.135   5.336   1.813
 1398SOL     OW16224   0.822   4.726   3.234
 1398SOL    HW116225   0.862   4.725   3.142
 1398SOL    HW216226   0.832   4.818   3.274
 1399SOL     OW16227   0.916   4.634   2.153
 1399SOL    HW116228   0.979   4.672   2.085
 1399SOL    HW216229   0.956   4.551   2.192
 1400SOL     OW16230   0.372   5.012   3.352
 1400SOL    HW116231   0.359   5.105   3.318
 1400SOL    HW216232   0.288   4.960   3.339
 1401SOL     OW16233   1.183   5.059   1.981
 1401SOL    HW116234   1.084   5.048   1.983
 1401SOL    HW216235   1.217   5.074   2.074
 1402SOL     OW16236   1.493   5.491   2.821
 1402SOL    HW116237   1.526   5.555   2.752
 1402SOL    HW216238   1.559   5.485   2.896
 1403SOL     OW16239   0.716   4.289   3.570
 1403SOL    HW116240   0.735   4.354   3.644
 1403SOL    HW216241   0.776   4.209   3.579
 1404SOL     OW16242   1.777   4.066   3.504
 1404SOL    HW116243   1.760   4.097   3.410
 1404SOL    HW216244   1.693   4.029   3.542
 1405SOL     OW16245   1.861   5.293   2.713
 1405SOL    HW116246   1.790   5.281   2.643
 1405SOL    HW216247   1.862   5.214   2.773
 1406SOL     OW16248   0.079   4.964   2.515
 1406SOL    HW116249   0.078   4.917   2.603
 1406SOL    HW216250   0.161   4.936   2.464
 1407SOL     OW16251   0.428   4.148   2.382
 1407SOL    HW116252   0.458   4.076   2.320
 1407SOL    HW216253   0.389   4.108   2.465
 1408SOL     OW16254   0.812   5.310   2.549
 1408SOL    HW116255   0.844   5.320   2.455
 1408SOL    HW216256   0.733   5.248   2.551
 1409SOL     OW16257   1.300   4.177   2.553
 1409SOL    HW116258   1.241   4.257   2.557
 1409SOL    HW216259   1.315   4.142   2.646
 1410SOL     OW16260   0.875   5.370   2.199
 1410SOL    HW116261   0.798   5.335   2.145
 1410SOL    HW216262   0.843   5.441   2.261
 1411SOL     OW16263   0.569   4.999   4.889
 1411SOL    HW116264   0.476   4.992   4.852
 1411SOL    HW216265   0.580   5.088   4.933
 1412SOL     OW16266   0.768   4.868   4.747
 1412SOL    HW116267   0.690   4.885   4.807
 1412SOL    HW216268   0.802   4.955   4.711
 1413SOL     OW16269   0.850   4.522   5.547
 1413SOL    HW116270   0.846   4.598   5.612
 1413SOL    HW216271   0.872   4.558   5.456
 1414SOL     OW16272   0.686   4.885   5.527
 1414SOL    HW116273   0.746   4.964   5.541
 1414SOL    HW216274   0.600   4.916   5.486
 1415SOL     OW16275   1.127   5.065   5.414
 1415SOL    HW116276   1.174   5.065   5.502
 1415SOL    HW216277   1.079   4.978   5.403
 1416SOL     OW16278   0.113   4.461   5.321
 1416SOL    HW116279   0.201   4.448   5.366
 1416SOL    HW216280   0.100   4.558   5.299
 1417SOL     OW16281   0.613   5.089   4.450
 1417SOL    HW116282   0.564   5.002   4.459
 1417SOL    HW216283   0.590   5.132   4.363
 1418SOL     OW16284   0.991   4.134   4.966
 1418SOL    HW116285   0.914   4.168   5.020
 1418SOL    HW216286   0.957   4.083   4.887
 1419SOL     OW16287   0.130   5.545   5.295
 1419SOL    HW116288   0.120   5.530   5.394
 1419SOL    HW216289   0.044   5.581   5.259
 1420SOL     OW16290   1.719   4.309   5.555
 1420SOL    HW116291   1.693   4.398   5.519
 1420SOL    HW216292   1.717   4.241   5.482
 1421SOL     OW16293   1.008   5.180   4.201
 1421SOL    HW116294   0.962   5.252   4.149
 1421SOL    HW216295   1.004   5.200   4.299
 1422SOL     OW16296   1.795   4.790   4.597
 1422SOL    HW116297   1.733   4.775   4.521
 1422SOL    HW216298   1.743   4.801   4.682
 1423SOL     OW16299   0.461   4.990   5.451
 1423SOL    HW116300   0.411   4.991   5.365
 1423SOL    HW216301   0.398   4.972   5.527
 1424SOL     OW16302   0.781   3.988   5.473
 1424SOL    HW116303   0.848   3.927   5.516
 1424SOL    HW216304   0.708   4.007   5.538
 1425SOL     OW16305   0.888   5.238   4.919
 1425SOL    HW116306   0.865   5.213   4.825
 1425SOL    HW216307   0.949   5.169   4.958
 1426SOL     OW16308   0.922   4.227   4.623
 1426SOL    HW116309   0.897   4.218   4.527
 1426SOL    HW216310   0.970   4.145   4.654
 1427SOL     OW16311   1.434   4.912   3.765
 1427SOL    HW116312   1.466   4.836   3.822
 1427SOL    HW216313   1.342   4.939   3.795
 1428SOL     OW16314   0.459   4.876   4.465
 1428SOL    HW116315   0.388   4.849   4.530
 1428SOL    HW216316   0.433   4.848   4.372
 1429SOL     OW16317   0.561   3.946   4.871
 1429SOL    HW116318   0.599   3.862   4.908
 1429SOL    HW216319   0.473   3.965   4.915
 1430SOL     OW16320   1.017   3.763   4.477
 1430SOL    HW116321   0.945   3.768   4.408
 1430SOL    HW216322   0.993   3.694   4.546
 1431SOL     OW16323   1.390   4.299   3.802
 1431SOL    HW116324   1.336   4.278   3.883
 1431SOL    HW216325   1.481   4.258   3.811
 1432SOL     OW16326   1.111   4.919   4.824
 1432SOL    HW116327   1.071   4.963   4.905
 1432SOL    HW216328   1.070   4.956   4.741
 1433SOL     OW16329   0.915   3.813   5.126
 1433SOL    HW116330   0.940   3.793   5.031
 1433SOL    HW216331   0.987   3.869   5.168
 1434SOL     OW16332   0.980   4.840   5.443
 1434SOL    HW116333   0.881   4.846   5.453
 1434SOL    HW216334   1.003   4.760   5.387
 1435SOL     OW16335   0.705   4.774   4.092
 1435SOL    HW116336   0.691   4.781   4.191
 1435SOL    HW216337   0.789   4.723   4.074
 1436SOL     OW16338   0.410   4.537   4.975
 1436SOL    HW116339   0.496   4.549   5.025
 1436SOL    HW216340   0.368   4.450   5.002
 1437SOL     OW16341   1.252   5.072   4.112
 1437SOL    HW116342   1.302   5.149   4.152
 1437SOL    HW216343   1.157   5.074   4.144
 1438SOL     OW16344   0.402   4.475   5.322
 1438SOL    HW116345   0.470   4.530   5.275
 1438SOL    HW216346   0.442   4.387   5.349
 1439SOL     OW16347   1.013   3.829   5.494
 1439SOL    HW116348   1.019   3.914   5.442
 1439SOL    HW216349   1.045   3.753   5.437
 1440SOL     OW16350   1.360   4.586   4.769
 1440SOL    HW116351   1.285   4.586   4.703
 1440SOL    HW216352   1.397   4.494   4.778
 1441SOL     OW16353   1.209   4.249   3.999
 1441SOL    HW116354   1.222   4.165   4.053
 1441SOL    HW216355   1.180   4.323   4.059
 1442SOL     OW16356   1.728   4.659   5.578
 1442SOL    HW116357   1.682   4.652   5.489
 1442SOL    HW216358   1.666   4.703   5.644
 1443SOL     OW16359   1.859   5.242   5.329
 1443SOL    HW116360   1.873   5.269   5.234
 1443SOL    HW216361   1.942   5.264   5.382
 1444SOL     OW16362   0.350   4.622   5.528
 1444SOL    HW116363   0.426   4.666   5.576
 1444SOL    HW216364   0.385   4.575   5.446
 1445SOL     OW16365   0.815   4.296   4.049
 1445SOL    HW116366   0.822   4.207   4.003
 1445SOL    HW216367   0.721   4.330   4.041
 1446SOL     OW16368   0.252   5.288   5.468
 1446SOL    HW116369   0.222   5.345   5.544
 1446SOL    HW216370   0.245   5.191   5.494
 1447SOL     OW16371   1.252   5.455   4.852
 1447SOL    HW116372   1.336   5.460   4.798
 1447SOL    HW216373   1.229   5.359   4.870
 1448SOL     OW16374   0.688   5.386   5.440
 1448SOL    HW116375   0.632   5.467   5.449
 1448SOL    HW216376   0.740   5.390   5.354
 1449SOL     OW16377   1.726   3.859   4.247
 1449SOL    HW116378   1.799   3.842   4.180
 1449SOL    HW216379   1.695   3.772   4.285
 1450SOL     OW16380   0.130   5.518   5.575
 1450SOL    HW116381   0.089   5.444   5.628
 1450SOL    HW216382   0.194   5.569   5.633
 1451SOL     OW16383   0.830   4.997   5.146
 1451SOL    HW116384   0.825   5.030   5.241
 1451SOL    HW216385   0.744   5.016   5.100
 1452SOL     OW16386   1.841   3.899   4.687
 1452SOL    HW116387   1.880   3.814   4.651
 1452SOL    HW216388   1.743   3.901   4.668
 1453SOL     OW16389   0.822   4.726   5.096
 1453SOL    HW116390   0.862   4.725   5.004
 1453SOL    HW216391   0.832   4.818   5.136
 1454SOL     OW16392   1.014   3.960   4.695
 1454SOL    HW116393   1.006   3.924   4.602
 1454SOL    HW216394   1.012   3.884   4.760
 1455SOL     OW16395   0.590   5.211   4.215
 1455SOL    HW116396   0.632   5.153   4.145
 1455SOL    HW216397   0.546   5.290   4.171
 1456SOL     OW16398   0.105   4.737   5.450
 1456SOL    HW116399   0.028   4.704   5.504
 1456SOL    HW216400   0.190   4.707   5.492
 1457SOL     OW16401   0.075   4.069   3.757
 1457SOL    HW116402  -0.017   4.041   3.728
 1457SOL    HW216403   0.106   4.146   3.701
 1458SOL     OW16404   0.716   4.289   5.432
 1458SOL    HW116405   0.735   4.354   5.506
 1458SOL    HW216406   0.776   4.209   5.441
 1459SOL     OW16407   1.777   4.066   5.366
 1459SOL    HW116408   1.760   4.097   5.272
 1459SOL    HW216409   1.693   4.029   5.404
 1460SOL     OW16410   1.730   4.658   5.241
 1460SOL    HW116411   1.768   4.749   5.256
 1460SOL    HW216412   1.722   4.641   5.142
 1461SOL     OW16413   0.859   5.098   3.740
 1461SOL    HW116414   0.813   5.113   3.828
 1461SOL    HW216415   0.903   5.183   3.710
 1462SOL     OW16416   0.221   5.038   5.568
 1462SOL    HW116417   0.156   4.965   5.547
 1462SOL    HW216418   0.225   5.052   5.666
 1463SOL     OW16419   0.672   5.115   5.348
 1463SOL    HW116420   0.594   5.065   5.386
 1463SOL    HW216421   0.669   5.210   5.379
 1464SOL     OW16422   0.812   5.310   4.411
 1464SOL    HW116423   0.844   5.320   4.317
 1464SOL    HW216424   0.733   5.248   4.413
 1465SOL     OW16425   0.039   4.801   4.024
 1465SOL    HW116426   0.138   4.790   4.015
 1465SOL    HW216427  -0.001   4.715   4.056
 1466SOL     OW16428   0.225   3.999   6.582
 1466SOL    HW116429   0.260   3.982   6.674
 1466SOL    HW216430   0.137   3.954   6.570
 1467SOL     OW16431   0.019   4.092   6.233
 1467SOL    HW116432  -0.063   4.135   6.272
 1467SOL    HW216433  -0.009   4.019   6.170
 1468SOL     OW16434   0.569   4.999   6.751
 1468SOL    HW116435   0.476   4.992   6.714
 1468SOL    HW216436   0.580   5.088   6.795
 1469SOL     OW16437   1.555   5.235   6.289
 1469SOL    HW116438   1.498   5.219   6.370
 1469SOL    HW216439   1.496   5.245   6.209
 1470SOL     OW16440   1.135   4.427   6.303
 1470SOL    HW116441   1.192   4.505   6.278
 1470SOL    HW216442   1.075   4.453   6.379
 1471SOL     OW16443   1.755   4.331   5.817
 1471SOL    HW116444   1.743   4.318   5.718
 1471SOL    HW216445   1.725   4.250   5.866
 1472SOL     OW16446   0.768   4.868   6.609
 1472SOL    HW116447   0.690   4.885   6.669
 1472SOL    HW216448   0.802   4.955   6.573
 1473SOL     OW16449   0.685   4.736   6.251
 1473SOL    HW116450   0.754   4.720   6.321
 1473SOL    HW216451   0.612   4.793   6.289
 1474SOL     OW16452   0.335   5.159   6.647
 1474SOL    HW116453   0.257   5.128   6.594
 1474SOL    HW216454   0.393   5.217   6.590
 1475SOL     OW16455   1.460   5.229   6.925
 1475SOL    HW116456   1.484   5.323   6.951
 1475SOL    HW216457   1.444   5.175   7.007
 1476SOL     OW16458   0.438   4.116   7.085
 1476SOL    HW116459   0.520   4.060   7.094
 1476SOL    HW216460   0.357   4.058   7.089
 1477SOL     OW16461   1.603   4.171   6.323
 1477SOL    HW116462   1.529   4.217   6.273
 1477SOL    HW216463   1.654   4.239   6.376
 1478SOL     OW16464   0.231   5.437   6.069
 1478SOL    HW116465   0.265   5.514   6.123
 1478SOL    HW216466   0.275   5.437   5.979
 1479SOL     OW16467   0.230   5.158   6.124
 1479SOL    HW116468   0.204   5.254   6.124
 1479SOL    HW216469   0.159   5.104   6.169
 1480SOL     OW16470   0.240   4.815   6.472
 1480SOL    HW116471   0.254   4.731   6.524
 1480SOL    HW216472   0.185   4.879   6.527
 1481SOL     OW16473   0.620   5.510   7.025
 1481SOL    HW116474   0.528   5.493   7.060
 1481SOL    HW216475   0.648   5.602   7.051
 1482SOL     OW16476   0.606   4.688   5.709
 1482SOL    HW116477   0.613   4.772   5.655
 1482SOL    HW216478   0.652   4.701   5.797
 1483SOL     OW16479   1.594   3.838   7.066
 1483SOL    HW116480   1.576   3.905   6.994
 1483SOL    HW216481   1.591   3.884   7.155
 1484SOL     OW16482   0.122   4.367   6.149
 1484SOL    HW116483   0.077   4.279   6.166
 1484SOL    HW216484   0.121   4.421   6.233
 1485SOL     OW16485   1.842   5.491   5.945
 1485SOL    HW116486   1.896   5.462   6.025
 1485SOL    HW216487   1.872   5.581   5.916
 1486SOL     OW16488   0.027   5.320   5.703
 1486SOL    HW116489   0.008   5.224   5.724
 1486SOL    HW216490  -0.006   5.378   5.778
 1487SOL     OW16491   1.689   4.646   6.198
 1487SOL    HW116492   1.784   4.617   6.206
 1487SOL    HW216493   1.681   4.711   6.123
 1488SOL     OW16494   1.641   4.832   6.018
 1488SOL    HW116495   1.727   4.834   5.966
 1488SOL    HW216496   1.655   4.879   6.106
 1489SOL     OW16497   0.613   5.089   6.312
 1489SOL    HW116498   0.564   5.002   6.321
 1489SOL    HW216499   0.590   5.132   6.225
 1490SOL     OW16500   0.809   3.728   6.088
 1490SOL    HW116501   0.849   3.819   6.079
 1490SOL    HW216502   0.709   3.736   6.094
 1491SOL     OW16503   0.197   4.700   6.850
 1491SOL    HW116504   0.286   4.655   6.836
 1491SOL    HW216505   0.124   4.635   6.831
 1492SOL     OW16506   1.525   4.723   5.776
 1492SOL    HW116507   1.462   4.647   5.789
 1492SOL    HW216508   1.573   4.741   5.862
 1493SOL     OW16509   1.466   5.141   6.539
 1493SOL    HW116510   1.407   5.147   6.619
 1493SOL    HW216511   1.451   5.053   6.493
 1494SOL     OW16512   1.667   5.438   6.158
 1494SOL    HW116513   1.626   5.415   6.070
 1494SOL    HW216514   1.649   5.364   6.223
 1495SOL     OW16515   1.281   4.069   6.530
 1495SOL    HW116516   1.195   4.019   6.517
 1495SOL    HW216517   1.343   4.015   6.586
 1496SOL     OW16518   1.576   5.386   5.893
 1496SOL    HW116519   1.665   5.432   5.896
 1496SOL    HW216520   1.555   5.362   5.798
 1497SOL     OW16521   0.807   4.329   7.051
 1497SOL    HW116522   0.760   4.326   7.140
 1497SOL    HW216523   0.756   4.274   6.985
 1498SOL     OW16524   0.991   4.134   6.828
 1498SOL    HW116525   0.914   4.168   6.882
 1498SOL    HW216526   0.957   4.083   6.749
 1499SOL     OW16527   1.041   4.425   6.015
 1499SOL    HW116528   1.067   4.421   6.111
 1499SOL    HW216529   0.956   4.374   6.001
 1500SOL     OW16530   0.076   4.535   6.375
 1500SOL    HW116531   0.175   4.523   6.384
 1500SOL    HW216532   0.052   4.630   6.396
 1501SOL     OW16533   0.130   5.545   7.157
 1501SOL    HW116534   0.120   5.530   7.256
 1501SOL    HW216535   0.044   5.581   7.121
 1502SOL     OW16536   0.865   4.072   5.781
 1502SOL    HW116537   0.924   4.135   5.732
 1502SOL    HW216538   0.884   3.978   5.752
 1503SOL     OW16539   1.362   4.868   6.131
 1503SOL    HW116540   1.445   4.839   6.083
 1503SOL    HW216541   1.313   4.935   6.075
 1504SOL     OW16542   0.550   3.920   6.471
 1504SOL    HW116543   0.545   3.915   6.571
 1504SOL    HW216544   0.552   4.016   6.442
 1505SOL     OW16545   1.008   5.180   6.063
 1505SOL    HW116546   0.962   5.252   6.011
 1505SOL    HW216547   1.004   5.200   6.161
 1506SOL     OW16548   0.351   5.525   6.439
 1506SOL    HW116549   0.401   5.439   6.445
 1506SOL    HW216550   0.416   5.602   6.436
 1507SOL     OW16551   1.795   4.790   6.459
 1507SOL    HW116552   1.733   4.775   6.383
 1507SOL    HW216553   1.743   4.801   6.544
 1508SOL     OW16554   0.321   4.667   5.828
 1508SOL    HW116555   0.403   4.706   5.786
 1508SOL    HW216556   0.294   4.585   5.779
 1509SOL     OW16557   1.458   4.459   6.314
 1509SOL    HW116558   1.453   4.394   6.389
 1509SOL    HW216559   1.538   4.518   6.327
 1510SOL     OW16560   1.111   5.500   5.823
 1510SOL    HW116561   1.051   5.438   5.873
 1510SOL    HW216562   1.142   5.456   5.738
 1511SOL     OW16563   1.632   5.101   5.667
 1511SOL    HW116564   1.600   5.195   5.657
 1511SOL    HW216565   1.556   5.038   5.655
 1512SOL     OW16566   0.464   5.467   5.909
 1512SOL    HW116567   0.497   5.506   5.995
 1512SOL    HW216568   0.540   5.460   5.844
 1513SOL     OW16569   1.400   3.831   6.012
 1513SOL    HW116570   1.376   3.794   5.922
 1513SOL    HW216571   1.499   3.847   6.016
 1514SOL     OW16572   0.249   5.509   6.827
 1514SOL    HW116573   0.306   5.444   6.877
 1514SOL    HW216574   0.233   5.476   6.734
 1515SOL     OW16575   0.940   5.422   6.490
 1515SOL    HW116576   1.020   5.365   6.511
 1515SOL    HW216577   0.891   5.382   6.413
 1516SOL     OW16578   0.382   4.424   6.066
 1516SOL    HW116579   0.427   4.334   6.063
 1516SOL    HW216580   0.288   4.413   6.099
 1517SOL     OW16581   0.888   5.238   6.781
 1517SOL    HW116582   0.865   5.213   6.687
 1517SOL    HW216583   0.949   5.169   6.820
 1518SOL     OW16584   0.803   5.126   6.510
 1518SOL    HW116585   0.893   5.140   6.468
 1518SOL    HW216586   0.732   5.128   6.439
 1519SOL     OW16587   0.922   4.227   6.485
 1519SOL    HW116588   0.897   4.218   6.389
 1519SOL    HW216589   0.970   4.145   6.516
 1520SOL     OW16590   0.539   3.788   6.098
 1520SOL    HW116591   0.458   3.789   6.156
 1520SOL    HW216592   0.542   3.871   6.043
 1521SOL     OW16593   1.434   4.912   5.627
 1521SOL    HW116594   1.466   4.836   5.684
 1521SOL    HW216595   1.342   4.939   5.657
 1522SOL     OW16596   0.935   3.960   6.066
 1522SOL    HW116597   0.887   4.001   5.988
 1522SOL    HW216598   1.034   3.958   6.047
 1523SOL     OW16599   1.227   5.294   6.379
 1523SOL    HW116600   1.248   5.368   6.314
 1523SOL    HW216601   1.295   5.294   6.452
 1524SOL     OW16602   0.459   4.876   6.327
 1524SOL    HW116603   0.388   4.849   6.392
 1524SOL    HW216604   0.433   4.848   6.234
 1525SOL     OW16605   1.271   5.521   6.177
 1525SOL    HW116606   1.315   5.585   6.113
 1525SOL    HW216607   1.221   5.573   6.247
 1526SOL     OW16608   0.078   4.280   6.972
 1526SOL    HW116609   0.170   4.279   6.931
 1526SOL    HW216610   0.072   4.354   7.039
 1527SOL     OW16611   0.561   3.946   6.733
 1527SOL    HW116612   0.599   3.862   6.770
 1527SOL    HW216613   0.473   3.965   6.777
 1528SOL     OW16614   0.866   4.178   6.228
 1528SOL    HW116615   0.834   4.250   6.166
 1528SOL    HW216616   0.890   4.097   6.175
 1529SOL     OW16617   1.017   3.763   6.339
 1529SOL    HW116618   0.945   3.768   6.270
 1529SOL    HW216619   0.993   3.694   6.408
 1530SOL     OW16620   1.429   4.897   6.453
 1530SOL    HW116621   1.374   4.813   6.446
 1530SOL    HW216622   1.455   4.926   6.361
 1531SOL     OW16623   1.466   4.314   6.578
 1531SOL    HW116624   1.436   4.219   6.585
 1531SOL    HW216625   1.539   4.330   6.644
 1532SOL     OW16626   1.857   4.557   5.963
 1532SOL    HW116627   1.899   4.493   6.027
 1532SOL    HW216628   1.819   4.506   5.885
 1533SOL     OW16629   0.488   5.109   5.760
 1533SOL    HW116630   0.401   5.094   5.807
 1533SOL    HW216631   0.471   5.135   5.665
 1534SOL     OW16632   1.664   5.004   6.243
 1534SOL    HW116633   1.763   5.012   6.257
 1534SOL    HW216634   1.619   5.088   6.274
 1535SOL     OW16635   1.390   4.299   5.664
 1535SOL    HW116636   1.336   4.278   5.745
 1535SOL    HW216637   1.481   4.258   5.673
 1536SOL     OW16638   1.064   5.071   6.926
 1536SOL    HW116639   0.984   5.048   6.981
 1536SOL    HW216640   1.147   5.045   6.975
 1537SOL     OW16641   1.111   4.919   6.686
 1537SOL    HW116642   1.071   4.963   6.767
 1537SOL    HW216643   1.070   4.956   6.603
 1538SOL     OW16644   1.638   4.823   6.665
 1538SOL    HW116645   1.643   4.904   6.724
 1538SOL    HW216646   1.552   4.825   6.614
 1539SOL     OW16647   0.915   3.813   6.988
 1539SOL    HW116648   0.940   3.793   6.893
 1539SOL    HW216649   0.987   3.869   7.030
 1540SOL     OW16650   0.705   4.774   5.954
 1540SOL    HW116651   0.691   4.781   6.053
 1540SOL    HW216652   0.789   4.723   5.936
 1541SOL     OW16653   0.410   4.537   6.837
 1541SOL    HW116654   0.496   4.549   6.887
 1541SOL    HW216655   0.368   4.450   6.864
 1542SOL     OW16656   1.274   4.110   6.848
 1542SOL    HW116657   1.295   4.184   6.912
 1542SOL    HW216658   1.185   4.127   6.805
 1543SOL     OW16659   0.064   5.288   6.917
 1543SOL    HW116660   0.018   5.370   6.883
 1543SOL    HW216661   0.162   5.307   6.926
 1544SOL     OW16662   0.367   4.824   6.087
 1544SOL    HW116663   0.360   4.907   6.031
 1544SOL    HW216664   0.371   4.744   6.027
 1545SOL     OW16665   0.566   4.261   6.451
 1545SOL    HW116666   0.578   4.327   6.377
 1545SOL    HW216667   0.612   4.295   6.534
 1546SOL     OW16668   1.252   5.072   5.974
 1546SOL    HW116669   1.302   5.149   6.014
 1546SOL    HW216670   1.157   5.074   6.006
 1547SOL     OW16671   1.272   5.169   6.728
 1547SOL    HW116672   1.319   5.182   6.815
 1547SOL    HW216673   1.206   5.095   6.737
 1548SOL     OW16674   1.582   4.363   6.058
 1548SOL    HW116675   1.551   4.424   6.131
 1548SOL    HW216676   1.632   4.415   5.989
 1549SOL     OW16677   0.354   5.234   6.915
 1549SOL    HW116678   0.333   5.190   6.828
 1549SOL    HW216679   0.451   5.260   6.918
 1550SOL     OW16680   0.402   4.475   7.184
 1550SOL    HW116681   0.470   4.530   7.137
 1550SOL    HW216682   0.442   4.387   7.211
 1551SOL     OW16683   1.587   4.503   7.256
 1551SOL    HW116684   1.495   4.541   7.251
 1551SOL    HW216685   1.647   4.550   7.191
 1552SOL     OW16686   0.573   4.594   6.615
 1552SOL    HW116687   0.617   4.683   6.606
 1552SOL    HW216688   0.510   4.594   6.692
 1553SOL     OW16689   1.360   4.586   6.631
 1553SOL    HW116690   1.285   4.586   6.565
 1553SOL    HW216691   1.397   4.494   6.640
 1554SOL     OW16692   1.209   4.249   5.861
 1554SOL    HW116693   1.222   4.165   5.915
 1554SOL    HW216694   1.180   4.323   5.921
 1555SOL     OW16695   0.307   3.937   6.817
 1555SOL    HW116696   0.284   3.974   6.907
 1555SOL    HW216697   0.277   3.842   6.811
 1556SOL     OW16698   0.037   5.034   6.868
 1556SOL    HW116699   0.090   4.985   6.936
 1556SOL    HW216700   0.059   5.132   6.873
 1557SOL     OW16701   0.732   4.358   6.650
 1557SOL    HW116702   0.791   4.332   6.574
 1557SOL    HW216703   0.704   4.454   6.639
 1558SOL     OW16704   0.307   3.787   6.204
 1558SOL    HW116705   0.296   3.881   6.237
 1558SOL    HW216706   0.302   3.724   6.281
 1559SOL     OW16707   1.622   4.091   5.960
 1559SOL    HW116708   1.624   4.015   6.024
 1559SOL    HW216709   1.574   4.168   6.000
 1560SOL     OW16710   1.023   4.490   6.552
 1560SOL    HW116711   1.038   4.511   6.648
 1560SOL    HW216712   0.993   4.395   6.543
 1561SOL     OW16713   0.980   5.297   7.286
 1561SOL    HW116714   0.960   5.341   7.198
 1561SOL    HW216715   1.019   5.206   7.270
 1562SOL     OW16716   1.540   3.998   5.711
 1562SOL    HW116717   1.479   3.923   5.734
 1562SOL    HW216718   1.562   4.050   5.794
 1563SOL     OW16719   1.303   4.562   5.628
 1563SOL    HW116720   1.337   4.469   5.643
 1563SOL    HW216721   1.321   4.589   5.533
 1564SOL     OW16722   1.068   5.057   6.435
 1564SOL    HW116723   1.075   4.973   6.380
 1564SOL    HW216724   1.130   5.126   6.399
 1565SOL     OW16725   0.319   4.534   6.535
 1565SOL    HW116726   0.412   4.570   6.540
 1565SOL    HW216727   0.313   4.449   6.587
 1566SOL     OW16728   0.339   4.233   6.592
 1566SOL    HW116729   0.287   4.150   6.575
 1566SOL    HW216730   0.416   4.238   6.528
 1567SOL     OW16731   1.138   4.104   7.264
 1567SOL    HW116732   1.093   4.167   7.328
 1567SOL    HW216733   1.231   4.135   7.247
 1568SOL     OW16734   1.160   3.931   7.063
 1568SOL    HW116735   1.160   3.995   7.140
 1568SOL    HW216736   1.188   3.979   6.980
 1569SOL     OW16737   0.008   5.050   5.786
 1569SOL    HW116738  -0.085   5.071   5.755
 1569SOL    HW216739   0.018   4.951   5.799
 1570SOL     OW16740   0.088   5.525   6.513
 1570SOL    HW116741   0.046   5.439   6.486
 1570SOL    HW216742   0.182   5.528   6.479
 1571SOL     OW16743   0.504   5.292   6.496
 1571SOL    HW116744   0.570   5.366   6.505
 1571SOL    HW216745   0.548   5.213   6.454
 1572SOL     OW16746   1.002   4.520   6.824
 1572SOL    HW116747   1.043   4.488   6.910
 1572SOL    HW216748   0.906   4.493   6.821
 1573SOL     OW16749   0.040   4.268   6.700
 1573SOL    HW116750   0.125   4.235   6.659
 1573SOL    HW216751   0.053   4.283   6.798
 1574SOL     OW16752   1.657   4.328   6.792
 1574SOL    HW116753   1.619   4.259   6.854
 1574SOL    HW216754   1.739   4.292   6.748
 1575SOL     OW16755   0.671   4.188   6.855
 1575SOL    HW116756   0.637   4.099   6.825
 1575SOL    HW216757   0.697   4.242   6.775
 1576SOL     OW16758   0.930   5.402   7.051
 1576SOL    HW116759   0.906   5.384   6.956
 1576SOL    HW216760   0.960   5.496   7.061
 1577SOL     OW16761   0.159   4.861   7.052
 1577SOL    HW116762   0.181   4.800   7.128
 1577SOL    HW216763   0.169   4.812   6.966
 1578SOL     OW16764   1.347   4.783   6.820
 1578SOL    HW116765   1.371   4.720   6.746
 1578SOL    HW216766   1.257   4.823   6.802
 1579SOL     OW16767   1.302   4.579   5.895
 1579SOL    HW116768   1.216   4.548   5.937
 1579SOL    HW216769   1.298   4.565   5.796
 1580SOL     OW16770   1.759   5.471   6.740
 1580SOL    HW116771   1.820   5.501   6.667
 1580SOL    HW216772   1.721   5.382   6.718
 1581SOL     OW16773   1.252   5.455   6.714
 1581SOL    HW116774   1.336   5.460   6.660
 1581SOL    HW216775   1.229   5.359   6.732
 1582SOL     OW16776   0.083   4.982   6.608
 1582SOL    HW116777   0.078   4.981   6.708
 1582SOL    HW216778   0.000   4.941   6.570
 1583SOL     OW16779   1.726   3.859   6.109
 1583SOL    HW116780   1.799   3.842   6.042
 1583SOL    HW216781   1.695   3.772   6.147
 1584SOL     OW16782   1.388   5.297   6.063
 1584SOL    HW116783   1.455   5.309   5.989
 1584SOL    HW216784   1.348   5.386   6.086
 1585SOL     OW16785   1.280   4.651   6.258
 1585SOL    HW116786   1.340   4.570   6.260
 1585SOL    HW216787   1.320   4.720   6.198
 1586SOL     OW16788   0.672   5.340   5.740
 1586SOL    HW116789   0.681   5.350   5.641
 1586SOL    HW216790   0.632   5.251   5.761
 1587SOL     OW16791   1.650   5.444   6.980
 1587SOL    HW116792   1.703   5.454   6.896
 1587SOL    HW216793   1.623   5.534   7.014
 1588SOL     OW16794   1.841   3.899   6.549
 1588SOL    HW116795   1.880   3.814   6.513
 1588SOL    HW216796   1.743   3.901   6.530
 1589SOL     OW16797   0.263   4.050   6.306
 1589SOL    HW116798   0.184   4.101   6.272
 1589SOL    HW216799   0.254   4.035   6.404
 1590SOL     OW16800   1.194   5.336   5.617
 1590SOL    HW116801   1.200   5.243   5.654
 1590SOL    HW216802   1.135   5.336   5.537
 1591SOL     OW16803   0.822   4.726   6.958
 1591SOL    HW116804   0.862   4.725   6.866
 1591SOL    HW216805   0.832   4.818   6.998
 1592SOL     OW16806   0.916   4.634   5.877
 1592SOL    HW116807   0.979   4.672   5.809
 1592SOL    HW216808   0.956   4.551   5.916
 1593SOL     OW16809   1.504   5.331   5.630
 1593SOL    HW116810   1.412   5.368   5.637
 1593SOL    HW216811   1.542   5.351   5.540
 1594SOL     OW16812   0.372   5.012   7.076
 1594SOL    HW116813   0.359   5.105   7.042
 1594SOL    HW216814   0.288   4.960   7.063
 1595SOL     OW16815   1.614   5.016   6.875
 1595SOL    HW116816   1.674   5.019   6.955
 1595SOL    HW216817   1.539   5.080   6.888
 1596SOL     OW16818   1.039   4.822   6.282
 1596SOL    HW116819   0.969   4.775   6.336
 1596SOL    HW216820   1.098   4.754   6.239
 1597SOL     OW16821   1.014   3.960   6.557
 1597SOL    HW116822   1.006   3.924   6.464
 1597SOL    HW216823   1.012   3.884   6.622
 1598SOL     OW16824   0.590   5.211   6.077
 1598SOL    HW116825   0.632   5.153   6.007
 1598SOL    HW216826   0.546   5.290   6.033
 1599SOL     OW16827   1.709   4.109   6.967
 1599SOL    HW116828   1.782   4.178   6.971
 1599SOL    HW216829   1.737   4.034   6.908
 1600SOL     OW16830   0.255   5.072   5.876
 1600SOL    HW116831   0.159   5.073   5.849
 1600SOL    HW216832   0.267   5.125   5.960
 1601SOL     OW16833   1.440   4.580   6.984
 1601SOL    HW116834   1.383   4.632   6.921
 1601SOL    HW216835   1.536   4.592   6.960
 1602SOL     OW16836   1.183   5.059   5.705
 1602SOL    HW116837   1.084   5.048   5.707
 1602SOL    HW216838   1.217   5.074   5.798
 1603SOL     OW16839   0.613   4.566   7.017
 1603SOL    HW116840   0.669   4.647   7.000
 1603SOL    HW216841   0.672   4.486   7.020
 1604SOL     OW16842   1.493   5.491   6.545
 1604SOL    HW116843   1.526   5.555   6.476
 1604SOL    HW216844   1.559   5.485   6.620
 1605SOL     OW16845   0.390   5.465   7.146
 1605SOL    HW116846   0.299   5.506   7.144
 1605SOL    HW216847   0.383   5.371   7.178
 1606SOL     OW16848   1.674   4.607   6.840
 1606SOL    HW116849   1.647   4.518   6.803
 1606SOL    HW216850   1.675   4.675   6.767
 1607SOL     OW16851   1.225   4.049   6.035
 1607SOL    HW116852   1.290   3.975   6.024
 1607SOL    HW216853   1.245   4.099   6.119
 1608SOL     OW16854   0.594   4.469   6.238
 1608SOL    HW116855   0.644   4.554   6.219
 1608SOL    HW216856   0.506   4.471   6.190
 1609SOL     OW16857   1.777   4.066   7.228
 1609SOL    HW116858   1.760   4.097   7.134
 1609SOL    HW216859   1.693   4.029   7.266
 1610SOL     OW16860   1.730   4.658   7.103
 1610SOL    HW116861   1.768   4.749   7.118
 1610SOL    HW216862   1.722   4.641   7.004
 1611SOL     OW16863   0.859   5.098   5.602
 1611SOL    HW116864   0.813   5.113   5.690
 1611SOL    HW216865   0.903   5.183   5.572
 1612SOL     OW16866   0.661   5.514   6.539
 1612SOL    HW116867   0.615   5.602   6.526
 1612SOL    HW216868   0.760   5.526   6.532
 1613SOL     OW16869   0.859   4.680   6.447
 1613SOL    HW116870   0.913   4.611   6.495
 1613SOL    HW216871   0.827   4.749   6.513
 1614SOL     OW16872   1.083   4.708   5.673
 1614SOL    HW116873   1.060   4.761   5.591
 1614SOL    HW216874   1.164   4.652   5.654
 1615SOL     OW16875   1.861   5.293   6.437
 1615SOL    HW116876   1.790   5.281   6.367
 1615SOL    HW216877   1.862   5.214   6.497
 1616SOL     OW16878   0.079   4.964   6.239
 1616SOL    HW116879   0.078   4.917   6.327
 1616SOL    HW216880   0.161   4.936   6.188
 1617SOL     OW16881   1.824   3.916   6.813
 1617SOL    HW116882   1.820   3.826   6.857
 1617SOL    HW216883   1.827   3.905   6.714
 1618SOL     OW16884   0.428   4.148   6.106
 1618SOL    HW116885   0.458   4.076   6.044
 1618SOL    HW216886   0.389   4.108   6.189
 1619SOL     OW16887   1.705   5.211   6.690
 1619SOL    HW116888   1.612   5.186   6.663
 1619SOL    HW216889   1.731   5.161   6.772
 1620SOL     OW16890   0.317   4.271   6.866
 1620SOL    HW116891   0.355   4.212   6.938
 1620SOL    HW216892   0.357   4.245   6.778
 1621SOL     OW16893   0.812   5.310   6.273
 1621SOL    HW116894   0.844   5.320   6.179
 1621SOL    HW216895   0.733   5.248   6.275
 1622SOL     OW16896   1.424   3.938   6.698
 1622SOL    HW116897   1.476   3.873   6.753
 1622SOL    HW216898   1.375   4.001   6.759
 1623SOL     OW16899   1.001   3.758   6.740
 1623SOL    HW116900   0.938   3.686   6.709
 1623SOL    HW216901   1.094   3.722   6.740
 1624SOL     OW16902   0.770   5.054   5.887
 1624SOL    HW116903   0.724   4.967   5.904
 1624SOL    HW216904   0.861   5.051   5.928
 1625SOL     OW16905   0.618   5.291   6.870
 1625SOL    HW116906   0.613   5.373   6.927
 1625SOL    HW216907   0.707   5.288   6.825
 1626SOL     OW16908   1.300   4.177   6.277
 1626SOL    HW116909   1.241   4.257   6.281
 1626SOL    HW216910   1.315   4.142   6.370
 1627SOL     OW16911   1.593   3.945   6.468
 1627SOL    HW116912   1.509   3.944   6.522
 1627SOL    HW216913   1.595   4.028   6.412
 1628SOL     OW16914   0.039   4.801   5.886
 1628SOL    HW116915   0.138   4.790   5.877
 1628SOL    HW216916  -0.001   4.715   5.918
 1629SOL     OW16917   0.875   5.370   5.923
 1629SOL    HW116918   0.798   5.335   5.869
 1629SOL    HW216919   0.843   5.441   5.985
 1630SOL     OW16920   0.230   6.214   0.113
 1630SOL    HW116921   0.137   6.212   0.150
 1630SOL    HW216922   0.231   6.175   0.021
 1631SOL     OW16923   0.225   5.861   0.996
 1631SOL    HW116924   0.260   5.844   1.088
 1631SOL    HW216925   0.137   5.816   0.984
 1632SOL     OW16926   0.569   6.861   1.165
 1632SOL    HW116927   0.476   6.854   1.128
 1632SOL    HW216928   0.580   6.950   1.209
 1633SOL     OW16929   1.555   7.097   0.703
 1633SOL    HW116930   1.498   7.081   0.784
 1633SOL    HW216931   1.496   7.107   0.623
 1634SOL     OW16932   1.135   6.289   0.717
 1634SOL    HW116933   1.192   6.367   0.692
 1634SOL    HW216934   1.075   6.315   0.793
 1635SOL     OW16935   1.755   6.193   0.231
 1635SOL    HW116936   1.743   6.180   0.132
 1635SOL    HW216937   1.725   6.112   0.280
 1636SOL     OW16938   0.768   6.730   1.023
 1636SOL    HW116939   0.690   6.747   1.083
 1636SOL    HW216940   0.802   6.817   0.987
 1637SOL     OW16941   0.685   6.598   0.665
 1637SOL    HW116942   0.754   6.582   0.735
 1637SOL    HW216943   0.612   6.655   0.703
 1638SOL     OW16944   0.686   6.747   1.803
 1638SOL    HW116945   0.746   6.826   1.817
 1638SOL    HW216946   0.600   6.778   1.762
 1639SOL     OW16947   0.335   7.021   1.061
 1639SOL    HW116948   0.257   6.990   1.008
 1639SOL    HW216949   0.393   7.079   1.004
 1640SOL     OW16950   0.438   5.978   1.499
 1640SOL    HW116951   0.520   5.922   1.508
 1640SOL    HW216952   0.357   5.920   1.503
 1641SOL     OW16953   1.603   6.033   0.737
 1641SOL    HW116954   1.529   6.079   0.687
 1641SOL    HW216955   1.654   6.101   0.790
 1642SOL     OW16956   0.231   7.299   0.483
 1642SOL    HW116957   0.265   7.376   0.537
 1642SOL    HW216958   0.275   7.299   0.393
 1643SOL     OW16959   0.230   7.020   0.538
 1643SOL    HW116960   0.204   7.116   0.538
 1643SOL    HW216961   0.159   6.966   0.583
 1644SOL     OW16962   0.240   6.677   0.886
 1644SOL    HW116963   0.254   6.593   0.938
 1644SOL    HW216964   0.185   6.741   0.941
 1645SOL     OW16965   0.620   7.372   1.439
 1645SOL    HW116966   0.528   7.355   1.474
 1645SOL    HW216967   0.648   7.464   1.465
 1646SOL     OW16968   0.606   6.550   0.123
 1646SOL    HW116969   0.613   6.634   0.069
 1646SOL    HW216970   0.652   6.563   0.211
 1647SOL     OW16971   1.842   7.353   0.359
 1647SOL    HW116972   1.896   7.324   0.439
 1647SOL    HW216973   1.872   7.443   0.330
 1648SOL     OW16974   0.027   7.182   0.117
 1648SOL    HW116975   0.008   7.086   0.138
 1648SOL    HW216976  -0.006   7.240   0.192
 1649SOL     OW16977   1.689   6.508   0.612
 1649SOL    HW116978   1.784   6.479   0.620
 1649SOL    HW216979   1.681   6.573   0.537
 1650SOL     OW16980   1.641   6.694   0.432
 1650SOL    HW116981   1.727   6.696   0.380
 1650SOL    HW216982   1.655   6.741   0.520
 1651SOL     OW16983   0.113   6.323   1.597
 1651SOL    HW116984   0.201   6.310   1.642
 1651SOL    HW216985   0.100   6.420   1.575
 1652SOL     OW16986   0.613   6.951   0.726
 1652SOL    HW116987   0.564   6.864   0.735
 1652SOL    HW216988   0.590   6.994   0.639
 1653SOL     OW16989   0.809   5.590   0.502
 1653SOL    HW116990   0.849   5.681   0.493
 1653SOL    HW216991   0.709   5.598   0.508
 1654SOL     OW16992   1.525   6.585   0.190
 1654SOL    HW116993   1.462   6.509   0.203
 1654SOL    HW216994   1.573   6.603   0.276
 1655SOL     OW16995   1.187   7.378   1.616
 1655SOL    HW116996   1.211   7.438   1.540
 1655SOL    HW216997   1.194   7.283   1.586
 1656SOL     OW16998   1.466   7.003   0.953
 1656SOL    HW116999   1.407   7.009   1.033
 1656SOL    HW217000   1.451   6.915   0.907
 1657SOL     OW17001   1.667   7.300   0.572
 1657SOL    HW117002   1.626   7.277   0.484
 1657SOL    HW217003   1.649   7.226   0.637
 1658SOL     OW17004   0.598   6.315   0.270
 1658SOL    HW117005   0.622   6.384   0.202
 1658SOL    HW217006   0.520   6.348   0.324
 1659SOL     OW17007   1.281   5.931   0.944
 1659SOL    HW117008   1.195   5.881   0.931
 1659SOL    HW217009   1.343   5.877   1.000
 1660SOL     OW17010   1.576   7.248   0.307
 1660SOL    HW117011   1.665   7.294   0.310
 1660SOL    HW217012   1.555   7.224   0.212
 1661SOL     OW17013   0.991   5.996   1.242
 1661SOL    HW117014   0.914   6.030   1.296
 1661SOL    HW217015   0.957   5.945   1.163
 1662SOL     OW17016   1.041   6.287   0.429
 1662SOL    HW117017   1.067   6.283   0.525
 1662SOL    HW217018   0.956   6.236   0.415
 1663SOL     OW17019   0.865   5.934   0.195
 1663SOL    HW117020   0.924   5.997   0.146
 1663SOL    HW217021   0.884   5.840   0.166
 1664SOL     OW17022   1.362   6.730   0.545
 1664SOL    HW117023   1.445   6.701   0.497
 1664SOL    HW217024   1.313   6.797   0.489
 1665SOL     OW17025   0.550   5.782   0.885
 1665SOL    HW117026   0.545   5.777   0.985
 1665SOL    HW217027   0.552   5.878   0.856
 1666SOL     OW17028   1.008   7.042   0.477
 1666SOL    HW117029   0.962   7.114   0.425
 1666SOL    HW217030   1.004   7.062   0.575
 1667SOL     OW17031   0.351   7.387   0.853
 1667SOL    HW117032   0.401   7.301   0.859
 1667SOL    HW217033   0.416   7.464   0.850
 1668SOL     OW17034   1.795   6.652   0.873
 1668SOL    HW117035   1.733   6.637   0.797
 1668SOL    HW217036   1.743   6.663   0.958
 1669SOL     OW17037   0.321   6.529   0.242
 1669SOL    HW117038   0.403   6.568   0.200
 1669SOL    HW217039   0.294   6.447   0.193
 1670SOL     OW17040   1.458   6.321   0.728
 1670SOL    HW117041   1.453   6.256   0.803
 1670SOL    HW217042   1.538   6.380   0.741
 1671SOL     OW17043   1.111   7.362   0.237
 1671SOL    HW117044   1.051   7.300   0.287
 1671SOL    HW217045   1.142   7.318   0.152
 1672SOL     OW17046   1.632   6.963   0.081
 1672SOL    HW117047   1.600   7.057   0.071
 1672SOL    HW217048   1.556   6.900   0.069
 1673SOL     OW17049   0.464   7.329   0.323
 1673SOL    HW117050   0.497   7.368   0.409
 1673SOL    HW217051   0.540   7.322   0.258
 1674SOL     OW17052   1.400   5.693   0.426
 1674SOL    HW117053   1.376   5.656   0.336
 1674SOL    HW217054   1.499   5.709   0.430
 1675SOL     OW17055   0.249   7.371   1.241
 1675SOL    HW117056   0.306   7.306   1.291
 1675SOL    HW217057   0.233   7.338   1.148
 1676SOL     OW17058   0.940   7.284   0.904
 1676SOL    HW117059   1.020   7.227   0.925
 1676SOL    HW217060   0.891   7.244   0.827
 1677SOL     OW17061   0.614   5.708   0.117
 1677SOL    HW117062   0.712   5.686   0.124
 1677SOL    HW217063   0.583   5.691   0.024
 1678SOL     OW17064   0.888   7.100   1.195
 1678SOL    HW117065   0.865   7.075   1.101
 1678SOL    HW217066   0.949   7.031   1.234
 1679SOL     OW17067   1.351   6.176   1.433
 1679SOL    HW117068   1.379   6.133   1.518
 1679SOL    HW217069   1.376   6.272   1.434
 1680SOL     OW17070   0.803   6.988   0.924
 1680SOL    HW117071   0.893   7.002   0.882
 1680SOL    HW217072   0.732   6.990   0.853
 1681SOL     OW17073   0.922   6.089   0.899
 1681SOL    HW117074   0.897   6.080   0.803
 1681SOL    HW217075   0.970   6.007   0.930
 1682SOL     OW17076   0.539   5.650   0.512
 1682SOL    HW117077   0.458   5.651   0.570
 1682SOL    HW217078   0.542   5.733   0.457
 1683SOL     OW17079   1.434   6.774   0.041
 1683SOL    HW117080   1.466   6.698   0.098
 1683SOL    HW217081   1.342   6.801   0.071
 1684SOL     OW17082   0.297   5.621   0.171
 1684SOL    HW117083   0.346   5.705   0.150
 1684SOL    HW217084   0.359   5.556   0.216
 1685SOL     OW17085   0.935   5.822   0.480
 1685SOL    HW117086   0.887   5.863   0.402
 1685SOL    HW217087   1.034   5.820   0.461
 1686SOL     OW17088   1.227   7.156   0.793
 1686SOL    HW117089   1.248   7.230   0.728
 1686SOL    HW217090   1.295   7.156   0.866
 1687SOL     OW17091   0.459   6.738   0.741
 1687SOL    HW117092   0.388   6.711   0.806
 1687SOL    HW217093   0.433   6.710   0.648
 1688SOL     OW17094   1.271   7.383   0.591
 1688SOL    HW117095   1.315   7.447   0.527
 1688SOL    HW217096   1.221   7.435   0.661
 1689SOL     OW17097   1.032   6.135   0.016
 1689SOL    HW117098   0.991   6.217  -0.023
 1689SOL    HW217099   1.096   6.161   0.089
 1690SOL     OW17100   0.561   5.808   1.147
 1690SOL    HW117101   0.599   5.724   1.184
 1690SOL    HW217102   0.473   5.827   1.191
 1691SOL     OW17103   0.866   6.040   0.642
 1691SOL    HW117104   0.834   6.112   0.580
 1691SOL    HW217105   0.890   5.959   0.589
 1692SOL     OW17106   1.017   5.625   0.753
 1692SOL    HW117107   0.945   5.630   0.684
 1692SOL    HW217108   0.993   5.556   0.822
 1693SOL     OW17109   1.429   6.759   0.867
 1693SOL    HW117110   1.374   6.675   0.860
 1693SOL    HW217111   1.455   6.788   0.775
 1694SOL     OW17112   1.466   6.176   0.992
 1694SOL    HW117113   1.436   6.081   0.999
 1694SOL    HW217114   1.539   6.192   1.058
 1695SOL     OW17115   1.857   6.419   0.377
 1695SOL    HW117116   1.899   6.355   0.441
 1695SOL    HW217117   1.819   6.368   0.299
 1696SOL     OW17118   0.488   6.971   0.174
 1696SOL    HW117119   0.401   6.956   0.221
 1696SOL    HW217120   0.471   6.997   0.079
 1697SOL     OW17121   1.664   6.866   0.657
 1697SOL    HW117122   1.763   6.874   0.671
 1697SOL    HW217123   1.619   6.950   0.688
 1698SOL     OW17124   1.390   6.161   0.078
 1698SOL    HW117125   1.336   6.140   0.159
 1698SOL    HW217126   1.481   6.120   0.087
 1699SOL     OW17127   0.527   5.842   0.328
 1699SOL    HW117128   0.554   5.783   0.253
 1699SOL    HW217129   0.527   5.937   0.297
 1700SOL     OW17130   1.064   6.933   1.340
 1700SOL    HW117131   0.984   6.910   1.395
 1700SOL    HW217132   1.147   6.907   1.389
 1701SOL     OW17133   1.111   6.781   1.100
 1701SOL    HW117134   1.071   6.825   1.181
 1701SOL    HW217135   1.070   6.818   1.017
 1702SOL     OW17136   1.638   6.685   1.079
 1702SOL    HW117137   1.643   6.766   1.138
 1702SOL    HW217138   1.552   6.687   1.028
 1703SOL     OW17139   0.915   5.675   1.402
 1703SOL    HW117140   0.940   5.655   1.307
 1703SOL    HW217141   0.987   5.731   1.444
 1704SOL     OW17142   0.705   6.636   0.368
 1704SOL    HW117143   0.691   6.643   0.467
 1704SOL    HW217144   0.789   6.585   0.350
 1705SOL     OW17145   0.410   6.399   1.251
 1705SOL    HW117146   0.496   6.411   1.301
 1705SOL    HW217147   0.368   6.312   1.278
 1706SOL     OW17148   1.274   5.972   1.262
 1706SOL    HW117149   1.295   6.046   1.326
 1706SOL    HW217150   1.185   5.989   1.219
 1707SOL     OW17151   0.064   7.150   1.331
 1707SOL    HW117152   0.018   7.232   1.297
 1707SOL    HW217153   0.162   7.169   1.340
 1708SOL     OW17154   0.367   6.686   0.501
 1708SOL    HW117155   0.360   6.769   0.445
 1708SOL    HW217156   0.371   6.606   0.441
 1709SOL     OW17157   1.252   6.934   0.388
 1709SOL    HW117158   1.302   7.011   0.428
 1709SOL    HW217159   1.157   6.936   0.420
 1710SOL     OW17160   1.272   7.031   1.142
 1710SOL    HW117161   1.319   7.044   1.229
 1710SOL    HW217162   1.206   6.957   1.151
 1711SOL     OW17163   1.582   6.225   0.472
 1711SOL    HW117164   1.551   6.286   0.545
 1711SOL    HW217165   1.632   6.277   0.403
 1712SOL     OW17166   0.354   7.096   1.329
 1712SOL    HW117167   0.333   7.052   1.242
 1712SOL    HW217168   0.451   7.122   1.332
 1713SOL     OW17169   0.402   6.337   1.598
 1713SOL    HW117170   0.470   6.392   1.551
 1713SOL    HW217171   0.442   6.249   1.625
 1714SOL     OW17172   1.013   5.691   1.770
 1714SOL    HW117173   1.019   5.776   1.718
 1714SOL    HW217174   1.045   5.615   1.713
 1715SOL     OW17175   0.573   6.456   1.029
 1715SOL    HW117176   0.617   6.545   1.020
 1715SOL    HW217177   0.510   6.456   1.106
 1716SOL     OW17178   1.360   6.448   1.045
 1716SOL    HW117179   1.285   6.448   0.979
 1716SOL    HW217180   1.397   6.356   1.054
 1717SOL     OW17181   1.209   6.111   0.275
 1717SOL    HW117182   1.222   6.027   0.329
 1717SOL    HW217183   1.180   6.185   0.335
 1718SOL     OW17184   0.307   5.799   1.231
 1718SOL    HW117185   0.284   5.836   1.321
 1718SOL    HW217186   0.277   5.704   1.225
 1719SOL     OW17187   0.037   6.896   1.282
 1719SOL    HW117188   0.090   6.847   1.350
 1719SOL    HW217189   0.059   6.994   1.287
 1720SOL     OW17190   0.732   6.220   1.064
 1720SOL    HW117191   0.791   6.194   0.988
 1720SOL    HW217192   0.704   6.316   1.053
 1721SOL     OW17193   0.307   5.649   0.618
 1721SOL    HW117194   0.296   5.743   0.651
 1721SOL    HW217195   0.302   5.586   0.695
 1722SOL     OW17196   1.622   5.953   0.374
 1722SOL    HW117197   1.624   5.877   0.438
 1722SOL    HW217198   1.574   6.030   0.414
 1723SOL     OW17199   1.023   6.352   0.966
 1723SOL    HW117200   1.038   6.373   1.062
 1723SOL    HW217201   0.993   6.257   0.957
 1724SOL     OW17202   0.980   7.159   1.700
 1724SOL    HW117203   0.960   7.203   1.612
 1724SOL    HW217204   1.019   7.068   1.684
 1725SOL     OW17205   1.540   5.860   0.125
 1725SOL    HW117206   1.479   5.785   0.148
 1725SOL    HW217207   1.562   5.912   0.208
 1726SOL     OW17208   1.303   6.424   0.042
 1726SOL    HW117209   1.337   6.331   0.057
 1726SOL    HW217210   1.321   6.451  -0.053
 1727SOL     OW17211   1.068   6.919   0.849
 1727SOL    HW117212   1.075   6.835   0.794
 1727SOL    HW217213   1.130   6.988   0.813
 1728SOL     OW17214   0.339   6.095   1.006
 1728SOL    HW117215   0.287   6.012   0.989
 1728SOL    HW217216   0.416   6.100   0.942
 1729SOL     OW17217   1.160   5.793   1.477
 1729SOL    HW117218   1.160   5.857   1.554
 1729SOL    HW217219   1.188   5.841   1.394
 1730SOL     OW17220   0.008   6.912   0.200
 1730SOL    HW117221  -0.085   6.933   0.169
 1730SOL    HW217222   0.018   6.813   0.213
 1731SOL     OW17223   0.088   7.387   0.927
 1731SOL    HW117224   0.046   7.301   0.900
 1731SOL    HW217225   0.182   7.390   0.893
 1732SOL     OW17226   0.504   7.154   0.910
 1732SOL    HW117227   0.570   7.228   0.919
 1732SOL    HW217228   0.548   7.075   0.868
 1733SOL     OW17229   1.002   6.382   1.238
 1733SOL    HW117230   1.043   6.350   1.324
 1733SOL    HW217231   0.906   6.355   1.235
 1734SOL     OW17232   0.815   6.158   0.325
 1734SOL    HW117233   0.822   6.069   0.279
 1734SOL    HW217234   0.721   6.192   0.317
 1735SOL     OW17235   1.657   6.190   1.206
 1735SOL    HW117236   1.619   6.121   1.268
 1735SOL    HW217237   1.739   6.154   1.162
 1736SOL     OW17238   0.671   6.050   1.269
 1736SOL    HW117239   0.637   5.961   1.239
 1736SOL    HW217240   0.697   6.104   1.189
 1737SOL     OW17241   0.930   7.264   1.465
 1737SOL    HW117242   0.906   7.246   1.370
 1737SOL    HW217243   0.960   7.358   1.475
 1738SOL     OW17244   0.473   6.086   0.191
 1738SOL    HW117245   0.534   6.166   0.195
 1738SOL    HW217246   0.378   6.117   0.198
 1739SOL     OW17247   1.347   6.645   1.234
 1739SOL    HW117248   1.371   6.582   1.160
 1739SOL    HW217249   1.257   6.685   1.216
 1740SOL     OW17250   1.302   6.441   0.309
 1740SOL    HW117251   1.216   6.410   0.351
 1740SOL    HW217252   1.298   6.427   0.210
 1741SOL     OW17253   1.759   7.333   1.154
 1741SOL    HW117254   1.820   7.363   1.081
 1741SOL    HW217255   1.721   7.244   1.132
 1742SOL     OW17256   1.252   7.317   1.128
 1742SOL    HW117257   1.336   7.322   1.074
 1742SOL    HW217258   1.229   7.221   1.146
 1743SOL     OW17259   0.083   6.844   1.022
 1743SOL    HW117260   0.078   6.843   1.122
 1743SOL    HW217261   0.000   6.803   0.984
 1744SOL     OW17262   0.903   5.672   0.133
 1744SOL    HW117263   0.954   5.673   0.047
 1744SOL    HW217264   0.959   5.630   0.204
 1745SOL     OW17265   1.726   5.721   0.523
 1745SOL    HW117266   1.799   5.704   0.456
 1745SOL    HW217267   1.695   5.634   0.561
 1746SOL     OW17268   1.388   7.159   0.477
 1746SOL    HW117269   1.455   7.171   0.403
 1746SOL    HW217270   1.348   7.248   0.500
 1747SOL     OW17271   1.280   6.513   0.672
 1747SOL    HW117272   1.340   6.432   0.674
 1747SOL    HW217273   1.320   6.582   0.612
 1748SOL     OW17274   0.830   6.859   1.422
 1748SOL    HW117275   0.825   6.892   1.517
 1748SOL    HW217276   0.744   6.878   1.376
 1749SOL     OW17277   0.672   7.202   0.154
 1749SOL    HW117278   0.681   7.212   0.055
 1749SOL    HW217279   0.632   7.113   0.175
 1750SOL     OW17280   1.650   7.306   1.394
 1750SOL    HW117281   1.703   7.316   1.310
 1750SOL    HW217282   1.623   7.396   1.428
 1751SOL     OW17283   1.841   5.761   0.963
 1751SOL    HW117284   1.880   5.676   0.927
 1751SOL    HW217285   1.743   5.763   0.944
 1752SOL     OW17286   0.263   5.912   0.720
 1752SOL    HW117287   0.184   5.963   0.686
 1752SOL    HW217288   0.254   5.897   0.818
 1753SOL     OW17289   1.194   7.198   0.031
 1753SOL    HW117290   1.200   7.105   0.068
 1753SOL    HW217291   1.135   7.198  -0.049
 1754SOL     OW17292   0.822   6.588   1.372
 1754SOL    HW117293   0.862   6.587   1.280
 1754SOL    HW217294   0.832   6.680   1.412
 1755SOL     OW17295   0.916   6.496   0.291
 1755SOL    HW117296   0.979   6.534   0.223
 1755SOL    HW217297   0.956   6.413   0.330
 1756SOL     OW17298   1.504   7.193   0.044
 1756SOL    HW117299   1.412   7.230   0.051
 1756SOL    HW217300   1.542   7.213  -0.046
 1757SOL     OW17301   0.372   6.874   1.490
 1757SOL    HW117302   0.359   6.967   1.456
 1757SOL    HW217303   0.288   6.822   1.477
 1758SOL     OW17304   1.614   6.878   1.289
 1758SOL    HW117305   1.674   6.881   1.369
 1758SOL    HW217306   1.539   6.942   1.302
 1759SOL     OW17307   1.039   6.684   0.696
 1759SOL    HW117308   0.969   6.637   0.750
 1759SOL    HW217309   1.098   6.616   0.653
 1760SOL     OW17310   1.014   5.822   0.971
 1760SOL    HW117311   1.006   5.786   0.878
 1760SOL    HW217312   1.012   5.746   1.036
 1761SOL     OW17313   0.590   7.073   0.491
 1761SOL    HW117314   0.632   7.015   0.421
 1761SOL    HW217315   0.546   7.152   0.447
 1762SOL     OW17316   0.255   6.934   0.290
 1762SOL    HW117317   0.159   6.935   0.263
 1762SOL    HW217318   0.267   6.987   0.374
 1763SOL     OW17319   0.075   5.931   0.033
 1763SOL    HW117320  -0.017   5.903   0.004
 1763SOL    HW217321   0.106   6.008  -0.023
 1764SOL     OW17322   1.440   6.442   1.398
 1764SOL    HW117323   1.383   6.494   1.335
 1764SOL    HW217324   1.536   6.454   1.374
 1765SOL     OW17325   0.072   5.752   0.318
 1765SOL    HW117326   0.055   5.835   0.264
 1765SOL    HW217327   0.162   5.715   0.296
 1766SOL     OW17328   1.183   6.921   0.119
 1766SOL    HW117329   1.084   6.910   0.121
 1766SOL    HW217330   1.217   6.936   0.212
 1767SOL     OW17331   0.613   6.428   1.431
 1767SOL    HW117332   0.669   6.509   1.414
 1767SOL    HW217333   0.672   6.348   1.434
 1768SOL     OW17334   1.493   7.353   0.959
 1768SOL    HW117335   1.526   7.417   0.890
 1768SOL    HW217336   1.559   7.347   1.034
 1769SOL     OW17337   1.674   6.469   1.254
 1769SOL    HW117338   1.647   6.380   1.217
 1769SOL    HW217339   1.675   6.537   1.181
 1770SOL     OW17340   1.225   5.911   0.449
 1770SOL    HW117341   1.290   5.837   0.438
 1770SOL    HW217342   1.245   5.961   0.533
 1771SOL     OW17343   0.859   6.960   0.016
 1771SOL    HW117344   0.813   6.975   0.104
 1771SOL    HW217345   0.903   7.045  -0.014
 1772SOL     OW17346   0.661   7.376   0.953
 1772SOL    HW117347   0.615   7.464   0.940
 1772SOL    HW217348   0.760   7.388   0.946
 1773SOL     OW17349   0.859   6.542   0.861
 1773SOL    HW117350   0.913   6.473   0.909
 1773SOL    HW217351   0.827   6.611   0.927
 1774SOL     OW17352   1.083   6.570   0.087
 1774SOL    HW117353   1.060   6.623   0.005
 1774SOL    HW217354   1.164   6.514   0.068
 1775SOL     OW17355   1.861   7.155   0.851
 1775SOL    HW117356   1.790   7.143   0.781
 1775SOL    HW217357   1.862   7.076   0.911
 1776SOL     OW17358   0.079   6.826   0.653
 1776SOL    HW117359   0.078   6.779   0.741
 1776SOL    HW217360   0.161   6.798   0.602
 1777SOL     OW17361   0.672   6.977   1.624
 1777SOL    HW117362   0.594   6.927   1.662
 1777SOL    HW217363   0.669   7.072   1.655
 1778SOL     OW17364   0.428   6.010   0.520
 1778SOL    HW117365   0.458   5.938   0.458
 1778SOL    HW217366   0.389   5.970   0.603
 1779SOL     OW17367   1.705   7.073   1.104
 1779SOL    HW117368   1.612   7.048   1.077
 1779SOL    HW217369   1.731   7.023   1.186
 1780SOL     OW17370   0.317   6.133   1.280
 1780SOL    HW117371   0.355   6.074   1.352
 1780SOL    HW217372   0.357   6.107   1.192
 1781SOL     OW17373   0.812   7.172   0.687
 1781SOL    HW117374   0.844   7.182   0.593
 1781SOL    HW217375   0.733   7.110   0.689
 1782SOL     OW17376   1.424   5.800   1.112
 1782SOL    HW117377   1.476   5.735   1.167
 1782SOL    HW217378   1.375   5.863   1.173
 1783SOL     OW17379   1.001   5.620   1.154
 1783SOL    HW117380   0.938   5.548   1.123
 1783SOL    HW217381   1.094   5.584   1.154
 1784SOL     OW17382   0.770   6.916   0.301
 1784SOL    HW117383   0.724   6.829   0.318
 1784SOL    HW217384   0.861   6.913   0.342
 1785SOL     OW17385   0.618   7.153   1.284
 1785SOL    HW117386   0.613   7.235   1.341
 1785SOL    HW217387   0.707   7.150   1.239
 1786SOL     OW17388   1.352   5.638   0.168
 1786SOL    HW117389   1.387   5.597   0.084
 1786SOL    HW217390   1.262   5.600   0.188
 1787SOL     OW17391   1.300   6.039   0.691
 1787SOL    HW117392   1.241   6.119   0.695
 1787SOL    HW217393   1.315   6.004   0.784
 1788SOL     OW17394   1.593   5.807   0.882
 1788SOL    HW117395   1.509   5.806   0.936
 1788SOL    HW217396   1.595   5.890   0.826
 1789SOL     OW17397   0.039   6.663   0.300
 1789SOL    HW117398   0.138   6.652   0.291
 1789SOL    HW217399  -0.001   6.577   0.332
 1790SOL     OW17400   0.875   7.232   0.337
 1790SOL    HW117401   0.798   7.197   0.283
 1790SOL    HW217402   0.843   7.303   0.399
 1791SOL     OW17403   0.019   5.954   2.509
 1791SOL    HW117404  -0.063   5.997   2.548
 1791SOL    HW217405  -0.009   5.881   2.446
 1792SOL     OW17406   1.135   6.289   2.579
 1792SOL    HW117407   1.192   6.367   2.554
 1792SOL    HW217408   1.075   6.315   2.655
 1793SOL     OW17409   0.768   6.730   2.885
 1793SOL    HW117410   0.690   6.747   2.945
 1793SOL    HW217411   0.802   6.817   2.849
 1794SOL     OW17412   0.850   6.384   3.685
 1794SOL    HW117413   0.846   6.460   3.750
 1794SOL    HW217414   0.872   6.420   3.594
 1795SOL     OW17415   0.686   6.747   3.665
 1795SOL    HW117416   0.746   6.826   3.679
 1795SOL    HW217417   0.600   6.778   3.624
 1796SOL     OW17418   0.335   7.021   2.923
 1796SOL    HW117419   0.257   6.990   2.870
 1796SOL    HW217420   0.393   7.079   2.866
 1797SOL     OW17421   0.438   5.978   3.361
 1797SOL    HW117422   0.520   5.922   3.370
 1797SOL    HW217423   0.357   5.920   3.365
 1798SOL     OW17424   1.603   6.033   2.599
 1798SOL    HW117425   1.529   6.079   2.549
 1798SOL    HW217426   1.654   6.101   2.652
 1799SOL     OW17427   0.231   7.299   2.345
 1799SOL    HW117428   0.265   7.376   2.399
 1799SOL    HW217429   0.275   7.299   2.255
 1800SOL     OW17430   1.127   6.927   3.552
 1800SOL    HW117431   1.174   6.927   3.640
 1800SOL    HW217432   1.079   6.840   3.541
 1801SOL     OW17433   1.594   5.700   3.342
 1801SOL    HW117434   1.576   5.767   3.270
 1801SOL    HW217435   1.591   5.746   3.431
 1802SOL     OW17436   0.122   6.229   2.425
 1802SOL    HW117437   0.077   6.141   2.442
 1802SOL    HW217438   0.121   6.283   2.509
 1803SOL     OW17439   0.613   6.951   2.588
 1803SOL    HW117440   0.564   6.864   2.597
 1803SOL    HW217441   0.590   6.994   2.501
 1804SOL     OW17442   0.197   6.562   3.126
 1804SOL    HW117443   0.286   6.517   3.112
 1804SOL    HW217444   0.124   6.497   3.107
 1805SOL     OW17445   0.807   6.191   3.327
 1805SOL    HW117446   0.760   6.188   3.416
 1805SOL    HW217447   0.756   6.136   3.261
 1806SOL     OW17448   0.076   6.397   2.651
 1806SOL    HW117449   0.175   6.385   2.660
 1806SOL    HW217450   0.052   6.492   2.672
 1807SOL     OW17451   1.719   6.171   3.693
 1807SOL    HW117452   1.693   6.260   3.657
 1807SOL    HW217453   1.717   6.103   3.620
 1808SOL     OW17454   0.550   5.782   2.747
 1808SOL    HW117455   0.545   5.777   2.847
 1808SOL    HW217456   0.552   5.878   2.718
 1809SOL     OW17457   1.008   7.042   2.339
 1809SOL    HW117458   0.962   7.114   2.287
 1809SOL    HW217459   1.004   7.062   2.437
 1810SOL     OW17460   0.321   6.529   2.104
 1810SOL    HW117461   0.403   6.568   2.062
 1810SOL    HW217462   0.294   6.447   2.055
 1811SOL     OW17463   0.461   6.852   3.589
 1811SOL    HW117464   0.411   6.853   3.503
 1811SOL    HW217465   0.398   6.834   3.665
 1812SOL     OW17466   0.464   7.329   2.185
 1812SOL    HW117467   0.497   7.368   2.271
 1812SOL    HW217468   0.540   7.322   2.120
 1813SOL     OW17469   0.940   7.284   2.766
 1813SOL    HW117470   1.020   7.227   2.787
 1813SOL    HW217471   0.891   7.244   2.689
 1814SOL     OW17472   0.781   5.850   3.611
 1814SOL    HW117473   0.848   5.789   3.654
 1814SOL    HW217474   0.708   5.869   3.676
 1815SOL     OW17475   0.888   7.100   3.057
 1815SOL    HW117476   0.865   7.075   2.963
 1815SOL    HW217477   0.949   7.031   3.096
 1816SOL     OW17478   1.351   6.176   3.295
 1816SOL    HW117479   1.379   6.133   3.380
 1816SOL    HW217480   1.376   6.272   3.296
 1817SOL     OW17481   0.459   6.738   2.603
 1817SOL    HW117482   0.388   6.711   2.668
 1817SOL    HW217483   0.433   6.710   2.510
 1818SOL     OW17484   1.271   7.383   2.453
 1818SOL    HW117485   1.315   7.447   2.389
 1818SOL    HW217486   1.221   7.435   2.523
 1819SOL     OW17487   1.429   6.759   2.729
 1819SOL    HW117488   1.374   6.675   2.722
 1819SOL    HW217489   1.455   6.788   2.637
 1820SOL     OW17490   1.466   6.176   2.854
 1820SOL    HW117491   1.436   6.081   2.861
 1820SOL    HW217492   1.539   6.192   2.920
 1821SOL     OW17493   1.857   6.419   2.239
 1821SOL    HW117494   1.899   6.355   2.303
 1821SOL    HW217495   1.819   6.368   2.161
 1822SOL     OW17496   1.664   6.866   2.519
 1822SOL    HW117497   1.763   6.874   2.533
 1822SOL    HW217498   1.619   6.950   2.550
 1823SOL     OW17499   0.980   6.702   3.581
 1823SOL    HW117500   0.881   6.708   3.591
 1823SOL    HW217501   1.003   6.622   3.525
 1824SOL     OW17502   0.705   6.636   2.230
 1824SOL    HW117503   0.691   6.643   2.329
 1824SOL    HW217504   0.789   6.585   2.212
 1825SOL     OW17505   1.274   5.972   3.124
 1825SOL    HW117506   1.295   6.046   3.188
 1825SOL    HW217507   1.185   5.989   3.081
 1826SOL     OW17508   0.566   6.123   2.727
 1826SOL    HW117509   0.578   6.189   2.653
 1826SOL    HW217510   0.612   6.157   2.810
 1827SOL     OW17511   1.587   6.365   3.532
 1827SOL    HW117512   1.495   6.403   3.527
 1827SOL    HW217513   1.647   6.412   3.467
 1828SOL     OW17514   0.573   6.456   2.891
 1828SOL    HW117515   0.617   6.545   2.882
 1828SOL    HW217516   0.510   6.456   2.968
 1829SOL     OW17517   0.307   5.799   3.093
 1829SOL    HW117518   0.284   5.836   3.183
 1829SOL    HW217519   0.277   5.704   3.087
 1830SOL     OW17520   0.037   6.896   3.144
 1830SOL    HW117521   0.090   6.847   3.212
 1830SOL    HW217522   0.059   6.994   3.149
 1831SOL     OW17523   1.859   7.104   3.467
 1831SOL    HW117524   1.873   7.131   3.372
 1831SOL    HW217525   1.942   7.126   3.520
 1832SOL     OW17526   0.350   6.484   3.666
 1832SOL    HW117527   0.426   6.528   3.714
 1832SOL    HW217528   0.385   6.437   3.584
 1833SOL     OW17529   0.319   6.396   2.811
 1833SOL    HW117530   0.412   6.432   2.816
 1833SOL    HW217531   0.313   6.311   2.863
 1834SOL     OW17532   1.138   5.966   3.540
 1834SOL    HW117533   1.093   6.029   3.604
 1834SOL    HW217534   1.231   5.997   3.523
 1835SOL     OW17535   0.040   6.130   2.976
 1835SOL    HW117536   0.125   6.097   2.935
 1835SOL    HW217537   0.053   6.145   3.074
 1836SOL     OW17538   0.671   6.050   3.131
 1836SOL    HW117539   0.637   5.961   3.101
 1836SOL    HW217540   0.697   6.104   3.051
 1837SOL     OW17541   0.473   6.086   2.053
 1837SOL    HW117542   0.534   6.166   2.057
 1837SOL    HW217543   0.378   6.117   2.060
 1838SOL     OW17544   1.347   6.645   3.096
 1838SOL    HW117545   1.371   6.582   3.022
 1838SOL    HW217546   1.257   6.685   3.078
 1839SOL     OW17547   0.130   7.380   3.713
 1839SOL    HW117548   0.089   7.306   3.766
 1839SOL    HW217549   0.194   7.431   3.771
 1840SOL     OW17550   0.672   7.202   2.016
 1840SOL    HW117551   0.681   7.212   1.917
 1840SOL    HW217552   0.632   7.113   2.037
 1841SOL     OW17553   1.650   7.306   3.256
 1841SOL    HW117554   1.703   7.316   3.172
 1841SOL    HW217555   1.623   7.396   3.290
 1842SOL     OW17556   0.263   5.912   2.582
 1842SOL    HW117557   0.184   5.963   2.548
 1842SOL    HW217558   0.254   5.897   2.680
 1843SOL     OW17559   1.014   5.822   2.833
 1843SOL    HW117560   1.006   5.786   2.740
 1843SOL    HW217561   1.012   5.746   2.898
 1844SOL     OW17562   0.590   7.073   2.353
 1844SOL    HW117563   0.632   7.015   2.283
 1844SOL    HW217564   0.546   7.152   2.309
 1845SOL     OW17565   1.440   6.442   3.260
 1845SOL    HW117566   1.383   6.494   3.197
 1845SOL    HW217567   1.536   6.454   3.236
 1846SOL     OW17568   0.661   7.376   2.815
 1846SOL    HW117569   0.615   7.464   2.802
 1846SOL    HW217570   0.760   7.388   2.808
 1847SOL     OW17571   0.317   6.133   3.142
 1847SOL    HW117572   0.355   6.074   3.214
 1847SOL    HW217573   0.357   6.107   3.054
 1848SOL     OW17574   1.001   5.620   3.016
 1848SOL    HW117575   0.938   5.548   2.985
 1848SOL    HW217576   1.094   5.584   3.016
 1849SOL     OW17577   0.770   6.916   2.163
 1849SOL    HW117578   0.724   6.829   2.180
 1849SOL    HW217579   0.861   6.913   2.204
 1850SOL     OW17580   0.225   5.861   4.720
 1850SOL    HW117581   0.260   5.844   4.812
 1850SOL    HW217582   0.137   5.816   4.708
 1851SOL     OW17583   0.569   6.861   4.889
 1851SOL    HW117584   0.476   6.854   4.852
 1851SOL    HW217585   0.580   6.950   4.933
 1852SOL     OW17586   0.768   6.730   4.747
 1852SOL    HW117587   0.690   6.747   4.807
 1852SOL    HW217588   0.802   6.817   4.711
 1853SOL     OW17589   0.850   6.384   5.547
 1853SOL    HW117590   0.846   6.460   5.612
 1853SOL    HW217591   0.872   6.420   5.456
 1854SOL     OW17592   0.685   6.598   4.389
 1854SOL    HW117593   0.754   6.582   4.459
 1854SOL    HW217594   0.612   6.655   4.427
 1855SOL     OW17595   0.686   6.747   5.527
 1855SOL    HW117596   0.746   6.826   5.541
 1855SOL    HW217597   0.600   6.778   5.486
 1856SOL     OW17598   0.438   5.978   5.223
 1856SOL    HW117599   0.520   5.922   5.232
 1856SOL    HW217600   0.357   5.920   5.227
 1857SOL     OW17601   1.603   6.033   4.461
 1857SOL    HW117602   1.529   6.079   4.411
 1857SOL    HW217603   1.654   6.101   4.514
 1858SOL     OW17604   1.127   6.927   5.414
 1858SOL    HW117605   1.174   6.927   5.502
 1858SOL    HW217606   1.079   6.840   5.403
 1859SOL     OW17607   0.230   7.020   4.262
 1859SOL    HW117608   0.204   7.116   4.262
 1859SOL    HW217609   0.159   6.966   4.307
 1860SOL     OW17610   0.240   6.677   4.610
 1860SOL    HW117611   0.254   6.593   4.662
 1860SOL    HW217612   0.185   6.741   4.665
 1861SOL     OW17613   0.620   7.372   5.163
 1861SOL    HW117614   0.528   7.355   5.198
 1861SOL    HW217615   0.648   7.464   5.189
 1862SOL     OW17616   1.594   5.700   5.204
 1862SOL    HW117617   1.576   5.767   5.132
 1862SOL    HW217618   1.591   5.746   5.293
 1863SOL     OW17619   0.122   6.229   4.287
 1863SOL    HW117620   0.077   6.141   4.304
 1863SOL    HW217621   0.121   6.283   4.371
 1864SOL     OW17622   0.027   7.182   3.841
 1864SOL    HW117623   0.008   7.086   3.862
 1864SOL    HW217624  -0.006   7.240   3.916
 1865SOL     OW17625   1.689   6.508   4.336
 1865SOL    HW117626   1.784   6.479   4.344
 1865SOL    HW217627   1.681   6.573   4.261
 1866SOL     OW17628   0.113   6.323   5.321
 1866SOL    HW117629   0.201   6.310   5.366
 1866SOL    HW217630   0.100   6.420   5.299
 1867SOL     OW17631   1.293   6.814   5.147
 1867SOL    HW117632   1.330   6.741   5.089
 1867SOL    HW217633   1.345   6.819   5.232
 1868SOL     OW17634   0.197   6.562   4.988
 1868SOL    HW117635   0.286   6.517   4.974
 1868SOL    HW217636   0.124   6.497   4.969
 1869SOL     OW17637   1.187   7.378   5.340
 1869SOL    HW117638   1.211   7.438   5.264
 1869SOL    HW217639   1.194   7.283   5.310
 1870SOL     OW17640   0.317   5.837   5.525
 1870SOL    HW117641   0.388   5.908   5.531
 1870SOL    HW217642   0.229   5.876   5.553
 1871SOL     OW17643   1.466   7.003   4.677
 1871SOL    HW117644   1.407   7.009   4.757
 1871SOL    HW217645   1.451   6.915   4.631
 1872SOL     OW17646   1.281   5.931   4.668
 1872SOL    HW117647   1.195   5.881   4.655
 1872SOL    HW217648   1.343   5.877   4.724
 1873SOL     OW17649   1.576   7.248   4.031
 1873SOL    HW117650   1.665   7.294   4.034
 1873SOL    HW217651   1.555   7.224   3.936
 1874SOL     OW17652   0.807   6.191   5.189
 1874SOL    HW117653   0.760   6.188   5.278
 1874SOL    HW217654   0.756   6.136   5.123
 1875SOL     OW17655   1.394   6.055   5.398
 1875SOL    HW117656   1.374   6.098   5.486
 1875SOL    HW217657   1.472   5.993   5.407
 1876SOL     OW17658   0.973   6.476   5.296
 1876SOL    HW117659   1.019   6.392   5.267
 1876SOL    HW217660   0.917   6.510   5.221
 1877SOL     OW17661   0.991   5.996   4.966
 1877SOL    HW117662   0.914   6.030   5.020
 1877SOL    HW217663   0.957   5.945   4.887
 1878SOL     OW17664   0.076   6.397   4.513
 1878SOL    HW117665   0.175   6.385   4.522
 1878SOL    HW217666   0.052   6.492   4.534
 1879SOL     OW17667   0.130   7.407   5.295
 1879SOL    HW117668   0.120   7.392   5.394
 1879SOL    HW217669   0.044   7.443   5.259
 1880SOL     OW17670   1.362   6.730   4.269
 1880SOL    HW117671   1.445   6.701   4.221
 1880SOL    HW217672   1.313   6.797   4.213
 1881SOL     OW17673   0.550   5.782   4.609
 1881SOL    HW117674   0.545   5.777   4.709
 1881SOL    HW217675   0.552   5.878   4.580
 1882SOL     OW17676   0.351   7.387   4.577
 1882SOL    HW117677   0.401   7.301   4.583
 1882SOL    HW217678   0.416   7.464   4.574
 1883SOL     OW17679   1.795   6.652   4.597
 1883SOL    HW117680   1.733   6.637   4.521
 1883SOL    HW217681   1.743   6.663   4.682
 1884SOL     OW17682   1.227   7.136   5.230
 1884SOL    HW117683   1.233   7.059   5.294
 1884SOL    HW217684   1.175   7.110   5.150
 1885SOL     OW17685   0.461   6.852   5.451
 1885SOL    HW117686   0.411   6.853   5.365
 1885SOL    HW217687   0.398   6.834   5.527
 1886SOL     OW17688   0.202   5.871   5.222
 1886SOL    HW117689   0.122   5.931   5.209
 1886SOL    HW217690   0.192   5.822   5.308
 1887SOL     OW17691   0.464   7.329   4.047
 1887SOL    HW117692   0.497   7.368   4.133
 1887SOL    HW217693   0.540   7.322   3.982
 1888SOL     OW17694   1.400   5.693   4.150
 1888SOL    HW117695   1.376   5.656   4.060
 1888SOL    HW217696   1.499   5.709   4.154
 1889SOL     OW17697   0.249   7.371   4.965
 1889SOL    HW117698   0.306   7.306   5.015
 1889SOL    HW217699   0.233   7.338   4.872
 1890SOL     OW17700   1.547   5.808   5.453
 1890SOL    HW117701   1.542   5.845   5.545
 1890SOL    HW217702   1.475   5.739   5.441
 1891SOL     OW17703   0.614   5.708   3.841
 1891SOL    HW117704   0.712   5.686   3.848
 1891SOL    HW217705   0.583   5.691   3.748
 1892SOL     OW17706   0.781   5.850   5.473
 1892SOL    HW117707   0.848   5.789   5.516
 1892SOL    HW217708   0.708   5.869   5.538
 1893SOL     OW17709   0.888   7.100   4.919
 1893SOL    HW117710   0.865   7.075   4.825
 1893SOL    HW217711   0.949   7.031   4.958
 1894SOL     OW17712   1.351   6.176   5.157
 1894SOL    HW117713   1.379   6.133   5.242
 1894SOL    HW217714   1.376   6.272   5.158
 1895SOL     OW17715   0.539   5.650   4.236
 1895SOL    HW117716   0.458   5.651   4.294
 1895SOL    HW217717   0.542   5.733   4.181
 1896SOL     OW17718   1.434   6.774   3.765
 1896SOL    HW117719   1.466   6.698   3.822
 1896SOL    HW217720   1.342   6.801   3.795
 1897SOL     OW17721   0.297   5.621   3.895
 1897SOL    HW117722   0.346   5.705   3.874
 1897SOL    HW217723   0.359   5.556   3.940
 1898SOL     OW17724   1.076   6.269   5.188
 1898SOL    HW117725   0.996   6.208   5.191
 1898SOL    HW217726   1.157   6.216   5.164
 1899SOL     OW17727   1.227   7.156   4.517
 1899SOL    HW117728   1.248   7.230   4.452
 1899SOL    HW217729   1.295   7.156   4.590
 1900SOL     OW17730   0.459   6.738   4.465
 1900SOL    HW117731   0.388   6.711   4.530
 1900SOL    HW217732   0.433   6.710   4.372
 1901SOL     OW17733   1.032   6.135   3.740
 1901SOL    HW117734   0.991   6.217   3.701
 1901SOL    HW217735   1.096   6.161   3.813
 1902SOL     OW17736   0.078   6.142   5.110
 1902SOL    HW117737   0.170   6.141   5.069
 1902SOL    HW217738   0.072   6.216   5.177
 1903SOL     OW17739   0.561   5.808   4.871
 1903SOL    HW117740   0.599   5.724   4.908
 1903SOL    HW217741   0.473   5.827   4.915
 1904SOL     OW17742   1.017   5.625   4.477
 1904SOL    HW117743   0.945   5.630   4.408
 1904SOL    HW217744   0.993   5.556   4.546
 1905SOL     OW17745   0.488   6.971   3.898
 1905SOL    HW117746   0.401   6.956   3.945
 1905SOL    HW217747   0.471   6.997   3.803
 1906SOL     OW17748   1.664   6.866   4.381
 1906SOL    HW117749   1.763   6.874   4.395
 1906SOL    HW217750   1.619   6.950   4.412
 1907SOL     OW17751   1.064   6.933   5.064
 1907SOL    HW117752   0.984   6.910   5.119
 1907SOL    HW217753   1.147   6.907   5.113
 1908SOL     OW17754   1.111   6.781   4.824
 1908SOL    HW117755   1.071   6.825   4.905
 1908SOL    HW217756   1.070   6.818   4.741
 1909SOL     OW17757   1.638   6.685   4.803
 1909SOL    HW117758   1.643   6.766   4.862
 1909SOL    HW217759   1.552   6.687   4.752
 1910SOL     OW17760   0.915   5.675   5.126
 1910SOL    HW117761   0.940   5.655   5.031
 1910SOL    HW217762   0.987   5.731   5.168
 1911SOL     OW17763   0.980   6.702   5.443
 1911SOL    HW117764   0.881   6.708   5.453
 1911SOL    HW217765   1.003   6.622   5.387
 1912SOL     OW17766   0.410   6.399   4.975
 1912SOL    HW117767   0.496   6.411   5.025
 1912SOL    HW217768   0.368   6.312   5.002
 1913SOL     OW17769   1.274   5.972   4.986
 1913SOL    HW117770   1.295   6.046   5.050
 1913SOL    HW217771   1.185   5.989   4.943
 1914SOL     OW17772   0.064   7.150   5.055
 1914SOL    HW117773   0.018   7.232   5.021
 1914SOL    HW217774   0.162   7.169   5.064
 1915SOL     OW17775   0.367   6.686   4.225
 1915SOL    HW117776   0.360   6.769   4.169
 1915SOL    HW217777   0.371   6.606   4.165
 1916SOL     OW17778   0.354   7.096   5.053
 1916SOL    HW117779   0.333   7.052   4.966
 1916SOL    HW217780   0.451   7.122   5.056
 1917SOL     OW17781   0.402   6.337   5.322
 1917SOL    HW117782   0.470   6.392   5.275
 1917SOL    HW217783   0.442   6.249   5.349
 1918SOL     OW17784   1.587   6.365   5.394
 1918SOL    HW117785   1.495   6.403   5.389
 1918SOL    HW217786   1.647   6.412   5.329
 1919SOL     OW17787   1.013   5.691   5.494
 1919SOL    HW117788   1.019   5.776   5.442
 1919SOL    HW217789   1.045   5.615   5.437
 1920SOL     OW17790   0.504   5.636   5.464
 1920SOL    HW117791   0.462   5.579   5.394
 1920SOL    HW217792   0.438   5.705   5.496
 1921SOL     OW17793   0.573   6.456   4.753
 1921SOL    HW117794   0.617   6.545   4.744
 1921SOL    HW217795   0.510   6.456   4.830
 1922SOL     OW17796   0.307   5.799   4.955
 1922SOL    HW117797   0.284   5.836   5.045
 1922SOL    HW217798   0.277   5.704   4.949
 1923SOL     OW17799   0.037   6.896   5.006
 1923SOL    HW117800   0.090   6.847   5.074
 1923SOL    HW217801   0.059   6.994   5.011
 1924SOL     OW17802   1.728   6.521   5.578
 1924SOL    HW117803   1.682   6.514   5.489
 1924SOL    HW217804   1.666   6.565   5.644
 1925SOL     OW17805   0.980   7.159   5.424
 1925SOL    HW117806   0.960   7.203   5.336
 1925SOL    HW217807   1.019   7.068   5.408
 1926SOL     OW17808   0.350   6.484   5.528
 1926SOL    HW117809   0.426   6.528   5.576
 1926SOL    HW217810   0.385   6.437   5.446
 1927SOL     OW17811   1.068   6.919   4.573
 1927SOL    HW117812   1.075   6.835   4.518
 1927SOL    HW217813   1.130   6.988   4.537
 1928SOL     OW17814   0.319   6.396   4.673
 1928SOL    HW117815   0.412   6.432   4.678
 1928SOL    HW217816   0.313   6.311   4.725
 1929SOL     OW17817   0.339   6.095   4.730
 1929SOL    HW117818   0.287   6.012   4.713
 1929SOL    HW217819   0.416   6.100   4.666
 1930SOL     OW17820   1.138   5.966   5.402
 1930SOL    HW117821   1.093   6.029   5.466
 1930SOL    HW217822   1.231   5.997   5.385
 1931SOL     OW17823   1.160   5.793   5.201
 1931SOL    HW117824   1.160   5.857   5.278
 1931SOL    HW217825   1.188   5.841   5.118
 1932SOL     OW17826   0.008   6.912   3.924
 1932SOL    HW117827  -0.085   6.933   3.893
 1932SOL    HW217828   0.018   6.813   3.937
 1933SOL     OW17829   1.002   6.382   4.962
 1933SOL    HW117830   1.043   6.350   5.048
 1933SOL    HW217831   0.906   6.355   4.959
 1934SOL     OW17832   0.040   6.130   4.838
 1934SOL    HW117833   0.125   6.097   4.797
 1934SOL    HW217834   0.053   6.145   4.936
 1935SOL     OW17835   0.189   6.106   5.446
 1935SOL    HW117836   0.248   6.066   5.376
 1935SOL    HW217837   0.131   6.177   5.405
 1936SOL     OW17838   1.369   6.536   5.384
 1936SOL    HW117839   1.408   6.625   5.404
 1936SOL    HW217840   1.379   6.516   5.287
 1937SOL     OW17841   0.815   6.158   4.049
 1937SOL    HW117842   0.822   6.069   4.003
 1937SOL    HW217843   0.721   6.192   4.041
 1938SOL     OW17844   0.252   7.150   5.468
 1938SOL    HW117845   0.222   7.207   5.544
 1938SOL    HW217846   0.245   7.053   5.494
 1939SOL     OW17847   0.671   6.050   4.993
 1939SOL    HW117848   0.637   5.961   4.963
 1939SOL    HW217849   0.697   6.104   4.913
 1940SOL     OW17850   0.930   7.264   5.189
 1940SOL    HW117851   0.906   7.246   5.094
 1940SOL    HW217852   0.960   7.358   5.199
 1941SOL     OW17853   0.159   6.723   5.190
 1941SOL    HW117854   0.181   6.662   5.266
 1941SOL    HW217855   0.169   6.674   5.104
 1942SOL     OW17856   1.252   7.317   4.852
 1942SOL    HW117857   1.336   7.322   4.798
 1942SOL    HW217858   1.229   7.221   4.870
 1943SOL     OW17859   0.083   6.844   4.746
 1943SOL    HW117860   0.078   6.843   4.846
 1943SOL    HW217861   0.000   6.803   4.708
 1944SOL     OW17862   0.688   7.248   5.440
 1944SOL    HW117863   0.632   7.329   5.449
 1944SOL    HW217864   0.740   7.252   5.354
 1945SOL     OW17865   0.130   7.380   5.575
 1945SOL    HW117866   0.089   7.306   5.628
 1945SOL    HW217867   0.194   7.431   5.633
 1946SOL     OW17868   0.830   6.859   5.146
 1946SOL    HW117869   0.825   6.892   5.241
 1946SOL    HW217870   0.744   6.878   5.100
 1947SOL     OW17871   0.822   6.588   5.096
 1947SOL    HW117872   0.862   6.587   5.004
 1947SOL    HW217873   0.832   6.680   5.136
 1948SOL     OW17874   0.372   6.874   5.214
 1948SOL    HW117875   0.359   6.967   5.180
 1948SOL    HW217876   0.288   6.822   5.201
 1949SOL     OW17877   1.614   6.878   5.013
 1949SOL    HW117878   1.674   6.881   5.093
 1949SOL    HW217879   1.539   6.942   5.026
 1950SOL     OW17880   1.014   5.822   4.695
 1950SOL    HW117881   1.006   5.786   4.602
 1950SOL    HW217882   1.012   5.746   4.760
 1951SOL     OW17883   0.590   7.073   4.215
 1951SOL    HW117884   0.632   7.015   4.145
 1951SOL    HW217885   0.546   7.152   4.171
 1952SOL     OW17886   1.709   5.971   5.105
 1952SOL    HW117887   1.782   6.040   5.109
 1952SOL    HW217888   1.737   5.896   5.046
 1953SOL     OW17889   0.255   6.934   4.014
 1953SOL    HW117890   0.159   6.935   3.987
 1953SOL    HW217891   0.267   6.987   4.098
 1954SOL     OW17892   0.105   6.599   5.450
 1954SOL    HW117893   0.028   6.566   5.504
 1954SOL    HW217894   0.190   6.569   5.492
 1955SOL     OW17895   0.672   5.789   5.213
 1955SOL    HW117896   0.762   5.773   5.173
 1955SOL    HW217897   0.680   5.794   5.312
 1956SOL     OW17898   1.440   6.442   5.122
 1956SOL    HW117899   1.383   6.494   5.059
 1956SOL    HW217900   1.536   6.454   5.098
 1957SOL     OW17901   0.613   6.428   5.155
 1957SOL    HW117902   0.669   6.509   5.138
 1957SOL    HW217903   0.672   6.348   5.158
 1958SOL     OW17904   0.716   6.151   5.432
 1958SOL    HW117905   0.735   6.216   5.506
 1958SOL    HW217906   0.776   6.071   5.441
 1959SOL     OW17907   1.450   6.806   5.357
 1959SOL    HW117908   1.441   6.796   5.456
 1959SOL    HW217909   1.546   6.799   5.331
 1960SOL     OW17910   0.390   7.327   5.284
 1960SOL    HW117911   0.299   7.368   5.282
 1960SOL    HW217912   0.383   7.233   5.316
 1961SOL     OW17913   1.730   6.520   5.241
 1961SOL    HW117914   1.768   6.611   5.256
 1961SOL    HW217915   1.722   6.503   5.142
 1962SOL     OW17916   0.859   6.960   3.740
 1962SOL    HW117917   0.813   6.975   3.828
 1962SOL    HW217918   0.903   7.045   3.710
 1963SOL     OW17919   0.661   7.376   4.677
 1963SOL    HW117920   0.615   7.464   4.664
 1963SOL    HW217921   0.760   7.388   4.670
 1964SOL     OW17922   0.859   6.542   4.585
 1964SOL    HW117923   0.913   6.473   4.633
 1964SOL    HW217924   0.827   6.611   4.651
 1965SOL     OW17925   1.083   6.570   3.811
 1965SOL    HW117926   1.060   6.623   3.729
 1965SOL    HW217927   1.164   6.514   3.792
 1966SOL     OW17928   0.221   6.900   5.568
 1966SOL    HW117929   0.156   6.827   5.547
 1966SOL    HW217930   0.225   6.914   5.666
 1967SOL     OW17931   0.079   6.826   4.377
 1967SOL    HW117932   0.078   6.779   4.465
 1967SOL    HW217933   0.161   6.798   4.326
 1968SOL     OW17934   0.672   6.977   5.348
 1968SOL    HW117935   0.594   6.927   5.386
 1968SOL    HW217936   0.669   7.072   5.379
 1969SOL     OW17937   1.824   5.778   4.951
 1969SOL    HW117938   1.820   5.688   4.995
 1969SOL    HW217939   1.827   5.767   4.852
 1970SOL     OW17940   0.428   6.010   4.244
 1970SOL    HW117941   0.458   5.938   4.182
 1970SOL    HW217942   0.389   5.970   4.327
 1971SOL     OW17943   1.705   7.073   4.828
 1971SOL    HW117944   1.612   7.048   4.801
 1971SOL    HW217945   1.731   7.023   4.910
 1972SOL     OW17946   0.317   6.133   5.004
 1972SOL    HW117947   0.355   6.074   5.076
 1972SOL    HW217948   0.357   6.107   4.916
 1973SOL     OW17949   1.424   5.800   4.836
 1973SOL    HW117950   1.476   5.735   4.891
 1973SOL    HW217951   1.375   5.863   4.897
 1974SOL     OW17952   1.001   5.620   4.878
 1974SOL    HW117953   0.938   5.548   4.847
 1974SOL    HW217954   1.094   5.584   4.878
 1975SOL     OW17955   0.618   7.153   5.008
 1975SOL    HW117956   0.613   7.235   5.065
 1975SOL    HW217957   0.707   7.150   4.963
 1976SOL     OW17958   1.352   5.638   3.892
 1976SOL    HW117959   1.387   5.597   3.808
 1976SOL    HW217960   1.262   5.600   3.912
 1977SOL     OW17961   1.593   5.807   4.606
 1977SOL    HW117962   1.509   5.806   4.660
 1977SOL    HW217963   1.595   5.890   4.550
 1978SOL     OW17964   0.039   6.663   4.024
 1978SOL    HW117965   0.138   6.652   4.015
 1978SOL    HW217966  -0.001   6.577   4.056
 1979SOL     OW17967   0.230   6.214   5.699
 1979SOL    HW117968   0.137   6.212   5.736
 1979SOL    HW217969   0.231   6.175   5.607
 1980SOL     OW17970   0.225   5.861   6.582
 1980SOL    HW117971   0.260   5.844   6.674
 1980SOL    HW217972   0.137   5.816   6.570
 1981SOL     OW17973   0.019   5.954   6.233
 1981SOL    HW117974  -0.063   5.997   6.272
 1981SOL    HW217975  -0.009   5.881   6.170
 1982SOL     OW17976   0.569   6.861   6.751
 1982SOL    HW117977   0.476   6.854   6.714
 1982SOL    HW217978   0.580   6.950   6.795
 1983SOL     OW17979   1.555   7.097   6.289
 1983SOL    HW117980   1.498   7.081   6.370
 1983SOL    HW217981   1.496   7.107   6.209
 1984SOL     OW17982   1.135   6.289   6.303
 1984SOL    HW117983   1.192   6.367   6.278
 1984SOL    HW217984   1.075   6.315   6.379
 1985SOL     OW17985   1.755   6.193   5.817
 1985SOL    HW117986   1.743   6.180   5.718
 1985SOL    HW217987   1.725   6.112   5.866
 1986SOL     OW17988   0.768   6.730   6.609
 1986SOL    HW117989   0.690   6.747   6.669
 1986SOL    HW217990   0.802   6.817   6.573
 1987SOL     OW17991   0.685   6.598   6.251
 1987SOL    HW117992   0.754   6.582   6.321
 1987SOL    HW217993   0.612   6.655   6.289
 1988SOL     OW17994   0.335   7.021   6.647
 1988SOL    HW117995   0.257   6.990   6.594
 1988SOL    HW217996   0.393   7.079   6.590
 1989SOL     OW17997   1.460   7.091   6.925
 1989SOL    HW117998   1.484   7.185   6.951
 1989SOL    HW217999   1.444   7.037   7.007
 1990SOL     OW18000   0.438   5.978   7.085
 1990SOL    HW118001   0.520   5.922   7.094
 1990SOL    HW218002   0.357   5.920   7.089
 1991SOL     OW18003   1.603   6.033   6.323
 1991SOL    HW118004   1.529   6.079   6.273
 1991SOL    HW218005   1.654   6.101   6.376
 1992SOL     OW18006   0.231   7.299   6.069
 1992SOL    HW118007   0.265   7.376   6.123
 1992SOL    HW218008   0.275   7.299   5.979
 1993SOL     OW18009   0.230   7.020   6.124
 1993SOL    HW118010   0.204   7.116   6.124
 1993SOL    HW218011   0.159   6.966   6.169
 1994SOL     OW18012   0.240   6.677   6.472
 1994SOL    HW118013   0.254   6.593   6.524
 1994SOL    HW218014   0.185   6.741   6.527
 1995SOL     OW18015   0.620   7.372   7.025
 1995SOL    HW118016   0.528   7.355   7.060
 1995SOL    HW218017   0.648   7.464   7.051
 1996SOL     OW18018   0.606   6.550   5.709
 1996SOL    HW118019   0.613   6.634   5.655
 1996SOL    HW218020   0.652   6.563   5.797
 1997SOL     OW18021   1.594   5.700   7.066
 1997SOL    HW118022   1.576   5.767   6.994
 1997SOL    HW218023   1.591   5.746   7.155
 1998SOL     OW18024   0.122   6.229   6.149
 1998SOL    HW118025   0.077   6.141   6.166
 1998SOL    HW218026   0.121   6.283   6.233
 1999SOL     OW18027   1.842   7.353   5.945
 1999SOL    HW118028   1.896   7.324   6.025
 1999SOL    HW218029   1.872   7.443   5.916
 2000SOL     OW18030   0.027   7.182   5.703
 2000SOL    HW118031   0.008   7.086   5.724
 2000SOL    HW218032  -0.006   7.240   5.778
 2001SOL     OW18033   1.689   6.508   6.198
 2001SOL    HW118034   1.784   6.479   6.206
 2001SOL    HW218035   1.681   6.573   6.123
 2002SOL     OW18036   1.641   6.694   6.018
 2002SOL    HW118037   1.727   6.696   5.966
 2002SOL    HW218038   1.655   6.741   6.106
 2003SOL     OW18039   0.613   6.951   6.312
 2003SOL    HW118040   0.564   6.864   6.321
 2003SOL    HW218041   0.590   6.994   6.225
 2004SOL     OW18042   0.809   5.590   6.088
 2004SOL    HW118043   0.849   5.681   6.079
 2004SOL    HW218044   0.709   5.598   6.094
 2005SOL     OW18045   0.197   6.562   6.850
 2005SOL    HW118046   0.286   6.517   6.836
 2005SOL    HW218047   0.124   6.497   6.831
 2006SOL     OW18048   1.525   6.585   5.776
 2006SOL    HW118049   1.462   6.509   5.789
 2006SOL    HW218050   1.573   6.603   5.862
 2007SOL     OW18051   1.466   7.003   6.539
 2007SOL    HW118052   1.407   7.009   6.619
 2007SOL    HW218053   1.451   6.915   6.493
 2008SOL     OW18054   1.667   7.300   6.158
 2008SOL    HW118055   1.626   7.277   6.070
 2008SOL    HW218056   1.649   7.226   6.223
 2009SOL     OW18057   0.598   6.315   5.856
 2009SOL    HW118058   0.622   6.384   5.788
 2009SOL    HW218059   0.520   6.348   5.910
 2010SOL     OW18060   1.281   5.931   6.530
 2010SOL    HW118061   1.195   5.881   6.517
 2010SOL    HW218062   1.343   5.877   6.586
 2011SOL     OW18063   1.576   7.248   5.893
 2011SOL    HW118064   1.665   7.294   5.896
 2011SOL    HW218065   1.555   7.224   5.798
 2012SOL     OW18066   0.807   6.191   7.051
 2012SOL    HW118067   0.760   6.188   7.140
 2012SOL    HW218068   0.756   6.136   6.985
 2013SOL     OW18069   0.991   5.996   6.828
 2013SOL    HW118070   0.914   6.030   6.882
 2013SOL    HW218071   0.957   5.945   6.749
 2014SOL     OW18072   1.041   6.287   6.015
 2014SOL    HW118073   1.067   6.283   6.111
 2014SOL    HW218074   0.956   6.236   6.001
 2015SOL     OW18075   0.076   6.397   6.375
 2015SOL    HW118076   0.175   6.385   6.384
 2015SOL    HW218077   0.052   6.492   6.396
 2016SOL     OW18078   0.130   7.407   7.157
 2016SOL    HW118079   0.120   7.392   7.256
 2016SOL    HW218080   0.044   7.443   7.121
 2017SOL     OW18081   0.865   5.934   5.781
 2017SOL    HW118082   0.924   5.997   5.732
 2017SOL    HW218083   0.884   5.840   5.752
 2018SOL     OW18084   1.362   6.730   6.131
 2018SOL    HW118085   1.445   6.701   6.083
 2018SOL    HW218086   1.313   6.797   6.075
 2019SOL     OW18087   0.550   5.782   6.471
 2019SOL    HW118088   0.545   5.777   6.571
 2019SOL    HW218089   0.552   5.878   6.442
 2020SOL     OW18090   1.008   7.042   6.063
 2020SOL    HW118091   0.962   7.114   6.011
 2020SOL    HW218092   1.004   7.062   6.161
 2021SOL     OW18093   0.351   7.387   6.439
 2021SOL    HW118094   0.401   7.301   6.445
 2021SOL    HW218095   0.416   7.464   6.436
 2022SOL     OW18096   1.795   6.652   6.459
 2022SOL    HW118097   1.733   6.637   6.383
 2022SOL    HW218098   1.743   6.663   6.544
 2023SOL     OW18099   0.321   6.529   5.828
 2023SOL    HW118100   0.403   6.568   5.786
 2023SOL    HW218101   0.294   6.447   5.779
 2024SOL     OW18102   1.458   6.321   6.314
 2024SOL    HW118103   1.453   6.256   6.389
 2024SOL    HW218104   1.538   6.380   6.327
 2025SOL     OW18105   1.111   7.362   5.823
 2025SOL    HW118106   1.051   7.300   5.873
 2025SOL    HW218107   1.142   7.318   5.738
 2026SOL     OW18108   1.632   6.963   5.667
 2026SOL    HW118109   1.600   7.057   5.657
 2026SOL    HW218110   1.556   6.900   5.655
 2027SOL     OW18111   0.464   7.329   5.909
 2027SOL    HW118112   0.497   7.368   5.995
 2027SOL    HW218113   0.540   7.322   5.844
 2028SOL     OW18114   1.400   5.693   6.012
 2028SOL    HW118115   1.376   5.656   5.922
 2028SOL    HW218116   1.499   5.709   6.016
 2029SOL     OW18117   0.249   7.371   6.827
 2029SOL    HW118118   0.306   7.306   6.877
 2029SOL    HW218119   0.233   7.338   6.734
 2030SOL     OW18120   0.940   7.284   6.490
 2030SOL    HW118121   1.020   7.227   6.511
 2030SOL    HW218122   0.891   7.244   6.413
 2031SOL     OW18123   0.382   6.286   6.066
 2031SOL    HW118124   0.427   6.196   6.063
 2031SOL    HW218125   0.288   6.275   6.099
 2032SOL     OW18126   0.614   5.708   5.703
 2032SOL    HW118127   0.712   5.686   5.710
 2032SOL    HW218128   0.583   5.691   5.610
 2033SOL     OW18129   0.888   7.100   6.781
 2033SOL    HW118130   0.865   7.075   6.687
 2033SOL    HW218131   0.949   7.031   6.820
 2034SOL     OW18132   0.803   6.988   6.510
 2034SOL    HW118133   0.893   7.002   6.468
 2034SOL    HW218134   0.732   6.990   6.439
 2035SOL     OW18135   0.922   6.089   6.485
 2035SOL    HW118136   0.897   6.080   6.389
 2035SOL    HW218137   0.970   6.007   6.516
 2036SOL     OW18138   0.539   5.650   6.098
 2036SOL    HW118139   0.458   5.651   6.156
 2036SOL    HW218140   0.542   5.733   6.043
 2037SOL     OW18141   1.434   6.774   5.627
 2037SOL    HW118142   1.466   6.698   5.684
 2037SOL    HW218143   1.342   6.801   5.657
 2038SOL     OW18144   0.297   5.621   5.757
 2038SOL    HW118145   0.346   5.705   5.736
 2038SOL    HW218146   0.359   5.556   5.802
 2039SOL     OW18147   0.935   5.822   6.066
 2039SOL    HW118148   0.887   5.863   5.988
 2039SOL    HW218149   1.034   5.820   6.047
 2040SOL     OW18150   1.227   7.156   6.379
 2040SOL    HW118151   1.248   7.230   6.314
 2040SOL    HW218152   1.295   7.156   6.452
 2041SOL     OW18153   0.459   6.738   6.327
 2041SOL    HW118154   0.388   6.711   6.392
 2041SOL    HW218155   0.433   6.710   6.234
 2042SOL     OW18156   1.271   7.383   6.177
 2042SOL    HW118157   1.315   7.447   6.113
 2042SOL    HW218158   1.221   7.435   6.247
 2043SOL     OW18159   1.032   6.135   5.602
 2043SOL    HW118160   0.991   6.217   5.563
 2043SOL    HW218161   1.096   6.161   5.675
 2044SOL     OW18162   0.078   6.142   6.972
 2044SOL    HW118163   0.170   6.141   6.931
 2044SOL    HW218164   0.072   6.216   7.039
 2045SOL     OW18165   0.561   5.808   6.733
 2045SOL    HW118166   0.599   5.724   6.770
 2045SOL    HW218167   0.473   5.827   6.777
 2046SOL     OW18168   0.866   6.040   6.228
 2046SOL    HW118169   0.834   6.112   6.166
 2046SOL    HW218170   0.890   5.959   6.175
 2047SOL     OW18171   1.017   5.625   6.339
 2047SOL    HW118172   0.945   5.630   6.270
 2047SOL    HW218173   0.993   5.556   6.408
 2048SOL     OW18174   1.429   6.759   6.453
 2048SOL    HW118175   1.374   6.675   6.446
 2048SOL    HW218176   1.455   6.788   6.361
 2049SOL     OW18177   1.466   6.176   6.578
 2049SOL    HW118178   1.436   6.081   6.585
 2049SOL    HW218179   1.539   6.192   6.644
 2050SOL     OW18180   1.857   6.419   5.963
 2050SOL    HW118181   1.899   6.355   6.027
 2050SOL    HW218182   1.819   6.368   5.885
 2051SOL     OW18183   0.488   6.971   5.760
 2051SOL    HW118184   0.401   6.956   5.807
 2051SOL    HW218185   0.471   6.997   5.665
 2052SOL     OW18186   1.664   6.866   6.243
 2052SOL    HW118187   1.763   6.874   6.257
 2052SOL    HW218188   1.619   6.950   6.274
 2053SOL     OW18189   1.390   6.161   5.664
 2053SOL    HW118190   1.336   6.140   5.745
 2053SOL    HW218191   1.481   6.120   5.673
 2054SOL     OW18192   0.527   5.842   5.914
 2054SOL    HW118193   0.554   5.783   5.839
 2054SOL    HW218194   0.527   5.937   5.883
 2055SOL     OW18195   1.064   6.933   6.926
 2055SOL    HW118196   0.984   6.910   6.981
 2055SOL    HW218197   1.147   6.907   6.975
 2056SOL     OW18198   1.111   6.781   6.686
 2056SOL    HW118199   1.071   6.825   6.767
 2056SOL    HW218200   1.070   6.818   6.603
 2057SOL     OW18201   1.638   6.685   6.665
 2057SOL    HW118202   1.643   6.766   6.724
 2057SOL    HW218203   1.552   6.687   6.614
 2058SOL     OW18204   0.915   5.675   6.988
 2058SOL    HW118205   0.940   5.655   6.893
 2058SOL    HW218206   0.987   5.731   7.030
 2059SOL     OW18207   0.705   6.636   5.954
 2059SOL    HW118208   0.691   6.643   6.053
 2059SOL    HW218209   0.789   6.585   5.936
 2060SOL     OW18210   0.410   6.399   6.837
 2060SOL    HW118211   0.496   6.411   6.887
 2060SOL    HW218212   0.368   6.312   6.864
 2061SOL     OW18213   1.274   5.972   6.848
 2061SOL    HW118214   1.295   6.046   6.912
 2061SOL    HW218215   1.185   5.989   6.805
 2062SOL     OW18216   0.064   7.150   6.917
 2062SOL    HW118217   0.018   7.232   6.883
 2062SOL    HW218218   0.162   7.169   6.926
 2063SOL     OW18219   0.367   6.686   6.087
 2063SOL    HW118220   0.360   6.769   6.031
 2063SOL    HW218221   0.371   6.606   6.027
 2064SOL     OW18222   0.566   6.123   6.451
 2064SOL    HW118223   0.578   6.189   6.377
 2064SOL    HW218224   0.612   6.157   6.534
 2065SOL     OW18225   1.252   6.934   5.974
 2065SOL    HW118226   1.302   7.011   6.014
 2065SOL    HW218227   1.157   6.936   6.006
 2066SOL     OW18228   1.272   7.031   6.728
 2066SOL    HW118229   1.319   7.044   6.815
 2066SOL    HW218230   1.206   6.957   6.737
 2067SOL     OW18231   1.582   6.225   6.058
 2067SOL    HW118232   1.551   6.286   6.131
 2067SOL    HW218233   1.632   6.277   5.989
 2068SOL     OW18234   0.354   7.096   6.915
 2068SOL    HW118235   0.333   7.052   6.828
 2068SOL    HW218236   0.451   7.122   6.918
 2069SOL     OW18237   0.402   6.337   7.184
 2069SOL    HW118238   0.470   6.392   7.137
 2069SOL    HW218239   0.442   6.249   7.211
 2070SOL     OW18240   1.587   6.365   7.256
 2070SOL    HW118241   1.495   6.403   7.251
 2070SOL    HW218242   1.647   6.412   7.191
 2071SOL     OW18243   0.573   6.456   6.615
 2071SOL    HW118244   0.617   6.545   6.606
 2071SOL    HW218245   0.510   6.456   6.692
 2072SOL     OW18246   1.360   6.448   6.631
 2072SOL    HW118247   1.285   6.448   6.565
 2072SOL    HW218248   1.397   6.356   6.640
 2073SOL     OW18249   1.209   6.111   5.861
 2073SOL    HW118250   1.222   6.027   5.915
 2073SOL    HW218251   1.180   6.185   5.921
 2074SOL     OW18252   0.307   5.799   6.817
 2074SOL    HW118253   0.284   5.836   6.907
 2074SOL    HW218254   0.277   5.704   6.811
 2075SOL     OW18255   0.037   6.896   6.868
 2075SOL    HW118256   0.090   6.847   6.936
 2075SOL    HW218257   0.059   6.994   6.873
 2076SOL     OW18258   0.732   6.220   6.650
 2076SOL    HW118259   0.791   6.194   6.574
 2076SOL    HW218260   0.704   6.316   6.639
 2077SOL     OW18261   0.307   5.649   6.204
 2077SOL    HW118262   0.296   5.743   6.237
 2077SOL    HW218263   0.302   5.586   6.281
 2078SOL     OW18264   1.622   5.953   5.960
 2078SOL    HW118265   1.624   5.877   6.024
 2078SOL    HW218266   1.574   6.030   6.000
 2079SOL     OW18267   1.023   6.352   6.552
 2079SOL    HW118268   1.038   6.373   6.648
 2079SOL    HW218269   0.993   6.257   6.543
 2080SOL     OW18270   0.980   7.159   7.286
 2080SOL    HW118271   0.960   7.203   7.198
 2080SOL    HW218272   1.019   7.068   7.270
 2081SOL     OW18273   1.540   5.860   5.711
 2081SOL    HW118274   1.479   5.785   5.734
 2081SOL    HW218275   1.562   5.912   5.794
 2082SOL     OW18276   1.303   6.424   5.628
 2082SOL    HW118277   1.337   6.331   5.643
 2082SOL    HW218278   1.321   6.451   5.533
 2083SOL     OW18279   1.068   6.919   6.435
 2083SOL    HW118280   1.075   6.835   6.380
 2083SOL    HW218281   1.130   6.988   6.399
 2084SOL     OW18282   0.319   6.396   6.535
 2084SOL    HW118283   0.412   6.432   6.540
 2084SOL    HW218284   0.313   6.311   6.587
 2085SOL     OW18285   0.339   6.095   6.592
 2085SOL    HW118286   0.287   6.012   6.575
 2085SOL    HW218287   0.416   6.100   6.528
 2086SOL     OW18288   1.138   5.966   7.264
 2086SOL    HW118289   1.093   6.029   7.328
 2086SOL    HW218290   1.231   5.997   7.247
 2087SOL     OW18291   1.160   5.793   7.063
 2087SOL    HW118292   1.160   5.857   7.140
 2087SOL    HW218293   1.188   5.841   6.980
 2088SOL     OW18294   0.008   6.912   5.786
 2088SOL    HW118295  -0.085   6.933   5.755
 2088SOL    HW218296   0.018   6.813   5.799
 2089SOL     OW18297   0.088   7.387   6.513
 2089SOL    HW118298   0.046   7.301   6.486
 2089SOL    HW218299   0.182   7.390   6.479
 2090SOL     OW18300   0.504   7.154   6.496
 2090SOL    HW118301   0.570   7.228   6.505
 2090SOL    HW218302   0.548   7.075   6.454
 2091SOL     OW18303   1.002   6.382   6.824
 2091SOL    HW118304   1.043   6.350   6.910
 2091SOL    HW218305   0.906   6.355   6.821
 2092SOL     OW18306   0.040   6.130   6.700
 2092SOL    HW118307   0.125   6.097   6.659
 2092SOL    HW218308   0.053   6.145   6.798
 2093SOL     OW18309   0.815   6.158   5.911
 2093SOL    HW118310   0.822   6.069   5.865
 2093SOL    HW218311   0.721   6.192   5.903
 2094SOL     OW18312   1.657   6.190   6.792
 2094SOL    HW118313   1.619   6.121   6.854
 2094SOL    HW218314   1.739   6.154   6.748
 2095SOL     OW18315   0.671   6.050   6.855
 2095SOL    HW118316   0.637   5.961   6.825
 2095SOL    HW218317   0.697   6.104   6.775
 2096SOL     OW18318   0.930   7.264   7.051
 2096SOL    HW118319   0.906   7.246   6.956
 2096SOL    HW218320   0.960   7.358   7.061
 2097SOL     OW18321   0.473   6.086   5.777
 2097SOL    HW118322   0.534   6.166   5.781
 2097SOL    HW218323   0.378   6.117   5.784
 2098SOL     OW18324   0.159   6.723   7.052
 2098SOL    HW118325   0.181   6.662   7.128
 2098SOL    HW218326   0.169   6.674   6.966
 2099SOL     OW18327   1.347   6.645   6.820
 2099SOL    HW118328   1.371   6.582   6.746
 2099SOL    HW218329   1.257   6.685   6.802
 2100SOL     OW18330   1.302   6.441   5.895
 2100SOL    HW118331   1.216   6.410   5.937
 2100SOL    HW218332   1.298   6.427   5.796
 2101SOL     OW18333   1.759   7.333   6.740
 2101SOL    HW118334   1.820   7.363   6.667
 2101SOL    HW218335   1.721   7.244   6.718
 2102SOL     OW18336   1.252   7.317   6.714
 2102SOL    HW118337   1.336   7.322   6.660
 2102SOL    HW218338   1.229   7.221   6.732
 2103SOL     OW18339   0.083   6.844   6.608
 2103SOL    HW118340   0.078   6.843   6.708
 2103SOL    HW218341   0.000   6.803   6.570
 2104SOL     OW18342   1.726   5.721   6.109
 2104SOL    HW118343   1.799   5.704   6.042
 2104SOL    HW218344   1.695   5.634   6.147
 2105SOL     OW18345   1.388   7.159   6.063
 2105SOL    HW118346   1.455   7.171   5.989
 2105SOL    HW218347   1.348   7.248   6.086
 2106SOL     OW18348   1.280   6.513   6.258
 2106SOL    HW118349   1.340   6.432   6.260
 2106SOL    HW218350   1.320   6.582   6.198
 2107SOL     OW18351   0.672   7.202   5.740
 2107SOL    HW118352   0.681   7.212   5.641
 2107SOL    HW218353   0.632   7.113   5.761
 2108SOL     OW18354   1.650   7.306   6.980
 2108SOL    HW118355   1.703   7.316   6.896
 2108SOL    HW218356   1.623   7.396   7.014
 2109SOL     OW18357   1.841   5.761   6.549
 2109SOL    HW118358   1.880   5.676   6.513
 2109SOL    HW218359   1.743   5.763   6.530
 2110SOL     OW18360   0.263   5.912   6.306
 2110SOL    HW118361   0.184   5.963   6.272
 2110SOL    HW218362   0.254   5.897   6.404
 2111SOL     OW18363   1.194   7.198   5.617
 2111SOL    HW118364   1.200   7.105   5.654
 2111SOL    HW218365   1.135   7.198   5.537
 2112SOL     OW18366   0.822   6.588   6.958
 2112SOL    HW118367   0.862   6.587   6.866
 2112SOL    HW218368   0.832   6.680   6.998
 2113SOL     OW18369   0.916   6.496   5.877
 2113SOL    HW118370   0.979   6.534   5.809
 2113SOL    HW218371   0.956   6.413   5.916
 2114SOL     OW18372   1.504   7.193   5.630
 2114SOL    HW118373   1.412   7.230   5.637
 2114SOL    HW218374   1.542   7.213   5.540
 2115SOL     OW18375   0.372   6.874   7.076
 2115SOL    HW118376   0.359   6.967   7.042
 2115SOL    HW218377   0.288   6.822   7.063
 2116SOL     OW18378   1.614   6.878   6.875
 2116SOL    HW118379   1.674   6.881   6.955
 2116SOL    HW218380   1.539   6.942   6.888
 2117SOL     OW18381   1.039   6.684   6.282
 2117SOL    HW118382   0.969   6.637   6.336
 2117SOL    HW218383   1.098   6.616   6.239
 2118SOL     OW18384   1.014   5.822   6.557
 2118SOL    HW118385   1.006   5.786   6.464
 2118SOL    HW218386   1.012   5.746   6.622
 2119SOL     OW18387   0.590   7.073   6.077
 2119SOL    HW118388   0.632   7.015   6.007
 2119SOL    HW218389   0.546   7.152   6.033
 2120SOL     OW18390   1.709   5.971   6.967
 2120SOL    HW118391   1.782   6.040   6.971
 2120SOL    HW218392   1.737   5.896   6.908
 2121SOL     OW18393   0.255   6.934   5.876
 2121SOL    HW118394   0.159   6.935   5.849
 2121SOL    HW218395   0.267   6.987   5.960
 2122SOL     OW18396   0.075   5.931   5.619
 2122SOL    HW118397  -0.017   5.903   5.590
 2122SOL    HW218398   0.106   6.008   5.563
 2123SOL     OW18399   1.440   6.442   6.984
 2123SOL    HW118400   1.383   6.494   6.921
 2123SOL    HW218401   1.536   6.454   6.960
 2124SOL     OW18402   0.072   5.752   5.904
 2124SOL    HW118403   0.055   5.835   5.850
 2124SOL    HW218404   0.162   5.715   5.882
 2125SOL     OW18405   1.183   6.921   5.705
 2125SOL    HW118406   1.084   6.910   5.707
 2125SOL    HW218407   1.217   6.936   5.798
 2126SOL     OW18408   0.613   6.428   7.017
 2126SOL    HW118409   0.669   6.509   7.000
 2126SOL    HW218410   0.672   6.348   7.020
 2127SOL     OW18411   1.493   7.353   6.545
 2127SOL    HW118412   1.526   7.417   6.476
 2127SOL    HW218413   1.559   7.347   6.620
 2128SOL     OW18414   0.390   7.327   7.146
 2128SOL    HW118415   0.299   7.368   7.144
 2128SOL    HW218416   0.383   7.233   7.178
 2129SOL     OW18417   1.674   6.469   6.840
 2129SOL    HW118418   1.647   6.380   6.803
 2129SOL    HW218419   1.675   6.537   6.767
 2130SOL     OW18420   1.225   5.911   6.035
 2130SOL    HW118421   1.290   5.837   6.024
 2130SOL    HW218422   1.245   5.961   6.119
 2131SOL     OW18423   0.594   6.331   6.238
 2131SOL    HW118424   0.644   6.416   6.219
 2131SOL    HW218425   0.506   6.333   6.190
 2132SOL     OW18426   1.777   5.928   7.228
 2132SOL    HW118427   1.760   5.959   7.134
 2132SOL    HW218428   1.693   5.891   7.266
 2133SOL     OW18429   1.730   6.520   7.103
 2133SOL    HW118430   1.768   6.611   7.118
 2133SOL    HW218431   1.722   6.503   7.004
 2134SOL     OW18432   0.859   6.960   5.602
 2134SOL    HW118433   0.813   6.975   5.690
 2134SOL    HW218434   0.903   7.045   5.572
 2135SOL     OW18435   0.661   7.376   6.539
 2135SOL    HW118436   0.615   7.464   6.526
 2135SOL    HW218437   0.760   7.388   6.532
 2136SOL     OW18438   0.859   6.542   6.447
 2136SOL    HW118439   0.913   6.473   6.495
 2136SOL    HW218440   0.827   6.611   6.513
 2137SOL     OW18441   1.083   6.570   5.673
 2137SOL    HW118442   1.060   6.623   5.591
 2137SOL    HW218443   1.164   6.514   5.654
 2138SOL     OW18444   1.861   7.155   6.437
 2138SOL    HW118445   1.790   7.143   6.367
 2138SOL    HW218446   1.862   7.076   6.497
 2139SOL     OW18447   0.079   6.826   6.239
 2139SOL    HW118448   0.078   6.779   6.327
 2139SOL    HW218449   0.161   6.798   6.188
 2140SOL     OW18450   1.824   5.778   6.813
 2140SOL    HW118451   1.820   5.688   6.857
 2140SOL    HW218452   1.827   5.767   6.714
 2141SOL     OW18453   0.428   6.010   6.106
 2141SOL    HW118454   0.458   5.938   6.044
 2141SOL    HW218455   0.389   5.970   6.189
 2142SOL     OW18456   1.705   7.073   6.690
 2142SOL    HW118457   1.612   7.048   6.663
 2142SOL    HW218458   1.731   7.023   6.772
 2143SOL     OW18459   0.317   6.133   6.866
 2143SOL    HW118460   0.355   6.074   6.938
 2143SOL    HW218461   0.357   6.107   6.778
 2144SOL     OW18462   0.812   7.172   6.273
 2144SOL    HW118463   0.844   7.182   6.179
 2144SOL    HW218464   0.733   7.110   6.275
 2145SOL     OW18465   1.424   5.800   6.698
 2145SOL    HW118466   1.476   5.735   6.753
 2145SOL    HW218467   1.375   5.863   6.759
 2146SOL     OW18468   1.001   5.620   6.740
 2146SOL    HW118469   0.938   5.548   6.709
 2146SOL    HW218470   1.094   5.584   6.740
 2147SOL     OW18471   0.770   6.916   5.887
 2147SOL    HW118472   0.724   6.829   5.904
 2147SOL    HW218473   0.861   6.913   5.928
 2148SOL     OW18474   0.618   7.153   6.870
 2148SOL    HW118475   0.613   7.235   6.927
 2148SOL    HW218476   0.707   7.150   6.825
 2149SOL     OW18477   1.352   5.638   5.754
 2149SOL    HW118478   1.387   5.597   5.670
 2149SOL    HW218479   1.262   5.600   5.774
 2150SOL     OW18480   1.300   6.039   6.277
 2150SOL    HW118481   1.241   6.119   6.281
 2150SOL    HW218482   1.315   6.004   6.370
 2151SOL     OW18483   1.593   5.807   6.468
 2151SOL    HW118484   1.509   5.806   6.522
 2151SOL    HW218485   1.595   5.890   6.412
 2152SOL     OW18486   0.039   6.663   5.886
 2152SOL    HW118487   0.138   6.652   5.877
 2152SOL    HW218488  -0.001   6.577   5.918
 2153SOL     OW18489   0.875   7.232   5.923
 2153SOL    HW118490   0.798   7.197   5.869
 2153SOL    HW218491   0.843   7.303   5.985
 2154SOL     OW18492   0.230   8.076   0.113
 2154SOL    HW118493   0.137   8.074   0.150
 2154SOL    HW218494   0.231   8.037   0.021
 2155SOL     OW18495   0.225   7.723   0.996
 2155SOL    HW118496   0.260   7.706   1.088
 2155SOL    HW218497   0.137   7.678   0.984
 2156SOL     OW18498   0.019   7.816   0.647
 2156SOL    HW118499  -0.063   7.859   0.686
 2156SOL    HW218500  -0.009   7.743   0.584
 2157SOL     OW18501   1.135   8.151   0.717
 2157SOL    HW118502   1.192   8.229   0.692
 2157SOL    HW218503   1.075   8.177   0.793
 2158SOL     OW18504   1.755   8.055   0.231
 2158SOL    HW118505   1.743   8.042   0.132
 2158SOL    HW218506   1.725   7.974   0.280
 2159SOL     OW18507   0.768   8.592   1.023
 2159SOL    HW118508   0.690   8.609   1.083
 2159SOL    HW218509   0.802   8.679   0.987
 2160SOL     OW18510   0.850   8.246   1.823
 2160SOL    HW118511   0.846   8.322   1.888
 2160SOL    HW218512   0.872   8.282   1.732
 2161SOL     OW18513   0.685   8.460   0.665
 2161SOL    HW118514   0.754   8.444   0.735
 2161SOL    HW218515   0.612   8.517   0.703
 2162SOL     OW18516   1.603   7.895   0.737
 2162SOL    HW118517   1.529   7.941   0.687
 2162SOL    HW218518   1.654   7.963   0.790
 2163SOL     OW18519   0.240   8.539   0.886
 2163SOL    HW118520   0.254   8.455   0.938
 2163SOL    HW218521   0.185   8.603   0.941
 2164SOL     OW18522   0.122   8.091   0.563
 2164SOL    HW118523   0.077   8.003   0.580
 2164SOL    HW218524   0.121   8.145   0.647
 2165SOL     OW18525   0.113   8.185   1.597
 2165SOL    HW118526   0.201   8.172   1.642
 2165SOL    HW218527   0.100   8.282   1.575
 2166SOL     OW18528   0.809   7.452   0.502
 2166SOL    HW118529   0.849   7.543   0.493
 2166SOL    HW218530   0.709   7.460   0.508
 2167SOL     OW18531   0.197   8.424   1.264
 2167SOL    HW118532   0.286   8.379   1.250
 2167SOL    HW218533   0.124   8.359   1.245
 2168SOL     OW18534   1.525   8.447   0.190
 2168SOL    HW118535   1.462   8.371   0.203
 2168SOL    HW218536   1.573   8.465   0.276
 2169SOL     OW18537   0.598   8.177   0.270
 2169SOL    HW118538   0.622   8.246   0.202
 2169SOL    HW218539   0.520   8.210   0.324
 2170SOL     OW18540   1.281   7.793   0.944
 2170SOL    HW118541   1.195   7.743   0.931
 2170SOL    HW218542   1.343   7.739   1.000
 2171SOL     OW18543   1.394   7.917   1.674
 2171SOL    HW118544   1.374   7.960   1.762
 2171SOL    HW218545   1.472   7.855   1.683
 2172SOL     OW18546   0.973   8.338   1.572
 2172SOL    HW118547   1.019   8.254   1.543
 2172SOL    HW218548   0.917   8.372   1.497
 2173SOL     OW18549   1.041   8.149   0.429
 2173SOL    HW118550   1.067   8.145   0.525
 2173SOL    HW218551   0.956   8.098   0.415
 2174SOL     OW18552   0.076   8.259   0.789
 2174SOL    HW118553   0.175   8.247   0.798
 2174SOL    HW218554   0.052   8.354   0.810
 2175SOL     OW18555   0.865   7.796   0.195
 2175SOL    HW118556   0.924   7.859   0.146
 2175SOL    HW218557   0.884   7.702   0.166
 2176SOL     OW18558   0.550   7.644   0.885
 2176SOL    HW118559   0.545   7.639   0.985
 2176SOL    HW218560   0.552   7.740   0.856
 2177SOL     OW18561   1.458   8.183   0.728
 2177SOL    HW118562   1.453   8.118   0.803
 2177SOL    HW218563   1.538   8.242   0.741
 2178SOL     OW18564   0.202   7.733   1.498
 2178SOL    HW118565   0.122   7.793   1.485
 2178SOL    HW218566   0.192   7.684   1.584
 2179SOL     OW18567   1.400   7.555   0.426
 2179SOL    HW118568   1.376   7.518   0.336
 2179SOL    HW218569   1.499   7.571   0.430
 2180SOL     OW18570   0.382   8.148   0.480
 2180SOL    HW118571   0.427   8.058   0.477
 2180SOL    HW218572   0.288   8.137   0.513
 2181SOL     OW18573   0.614   7.570   0.117
 2181SOL    HW118574   0.712   7.548   0.124
 2181SOL    HW218575   0.583   7.553   0.024
 2182SOL     OW18576   1.351   8.038   1.433
 2182SOL    HW118577   1.379   7.995   1.518
 2182SOL    HW218578   1.376   8.134   1.434
 2183SOL     OW18579   0.922   7.951   0.899
 2183SOL    HW118580   0.897   7.942   0.803
 2183SOL    HW218581   0.970   7.869   0.930
 2184SOL     OW18582   0.539   7.512   0.512
 2184SOL    HW118583   0.458   7.513   0.570
 2184SOL    HW218584   0.542   7.595   0.457
 2185SOL     OW18585   0.297   7.483   0.171
 2185SOL    HW118586   0.346   7.567   0.150
 2185SOL    HW218587   0.359   7.418   0.216
 2186SOL     OW18588   0.935   7.684   0.480
 2186SOL    HW118589   0.887   7.725   0.402
 2186SOL    HW218590   1.034   7.682   0.461
 2187SOL     OW18591   1.076   8.131   1.464
 2187SOL    HW118592   0.996   8.070   1.467
 2187SOL    HW218593   1.157   8.078   1.440
 2188SOL     OW18594   1.032   7.997   0.016
 2188SOL    HW118595   0.991   8.079  -0.023
 2188SOL    HW218596   1.096   8.023   0.089
 2189SOL     OW18597   0.078   8.004   1.386
 2189SOL    HW118598   0.170   8.003   1.345
 2189SOL    HW218599   0.072   8.078   1.453
 2190SOL     OW18600   0.866   7.902   0.642
 2190SOL    HW118601   0.834   7.974   0.580
 2190SOL    HW218602   0.890   7.821   0.589
 2191SOL     OW18603   1.017   7.487   0.753
 2191SOL    HW118604   0.945   7.492   0.684
 2191SOL    HW218605   0.993   7.418   0.822
 2192SOL     OW18606   1.466   8.038   0.992
 2192SOL    HW118607   1.436   7.943   0.999
 2192SOL    HW218608   1.539   8.054   1.058
 2193SOL     OW18609   1.857   8.281   0.377
 2193SOL    HW118610   1.899   8.217   0.441
 2193SOL    HW218611   1.819   8.230   0.299
 2194SOL     OW18612   1.390   8.023   0.078
 2194SOL    HW118613   1.336   8.002   0.159
 2194SOL    HW218614   1.481   7.982   0.087
 2195SOL     OW18615   0.527   7.704   0.328
 2195SOL    HW118616   0.554   7.645   0.253
 2195SOL    HW218617   0.527   7.799   0.297
 2196SOL     OW18618   1.638   8.547   1.079
 2196SOL    HW118619   1.643   8.628   1.138
 2196SOL    HW218620   1.552   8.549   1.028
 2197SOL     OW18621   0.915   7.537   1.402
 2197SOL    HW118622   0.940   7.517   1.307
 2197SOL    HW218623   0.987   7.593   1.444
 2198SOL     OW18624   0.410   8.261   1.251
 2198SOL    HW118625   0.496   8.273   1.301
 2198SOL    HW218626   0.368   8.174   1.278
 2199SOL     OW18627   1.274   7.834   1.262
 2199SOL    HW118628   1.295   7.908   1.326
 2199SOL    HW218629   1.185   7.851   1.219
 2200SOL     OW18630   0.566   7.985   0.865
 2200SOL    HW118631   0.578   8.051   0.791
 2200SOL    HW218632   0.612   8.019   0.948
 2201SOL     OW18633   1.582   8.087   0.472
 2201SOL    HW118634   1.551   8.148   0.545
 2201SOL    HW218635   1.632   8.139   0.403
 2202SOL     OW18636   0.402   8.199   1.598
 2202SOL    HW118637   0.470   8.254   1.551
 2202SOL    HW218638   0.442   8.111   1.625
 2203SOL     OW18639   1.013   7.553   1.770
 2203SOL    HW118640   1.019   7.638   1.718
 2203SOL    HW218641   1.045   7.477   1.713
 2204SOL     OW18642   0.573   8.318   1.029
 2204SOL    HW118643   0.617   8.407   1.020
 2204SOL    HW218644   0.510   8.318   1.106
 2205SOL     OW18645   1.360   8.310   1.045
 2205SOL    HW118646   1.285   8.310   0.979
 2205SOL    HW218647   1.397   8.218   1.054
 2206SOL     OW18648   1.209   7.973   0.275
 2206SOL    HW118649   1.222   7.889   0.329
 2206SOL    HW218650   1.180   8.047   0.335
 2207SOL     OW18651   0.307   7.661   1.231
 2207SOL    HW118652   0.284   7.698   1.321
 2207SOL    HW218653   0.277   7.566   1.225
 2208SOL     OW18654   0.037   8.758   1.282
 2208SOL    HW118655   0.090   8.709   1.350
 2208SOL    HW218656   0.059   8.856   1.287
 2209SOL     OW18657   0.732   8.082   1.064
 2209SOL    HW118658   0.791   8.056   0.988
 2209SOL    HW218659   0.704   8.178   1.053
 2210SOL     OW18660   1.728   8.383   1.854
 2210SOL    HW118661   1.682   8.376   1.765
 2210SOL    HW218662   1.666   8.427   1.920
 2211SOL     OW18663   0.307   7.511   0.618
 2211SOL    HW118664   0.296   7.605   0.651
 2211SOL    HW218665   0.302   7.448   0.695
 2212SOL     OW18666   1.622   7.815   0.374
 2212SOL    HW118667   1.624   7.739   0.438
 2212SOL    HW218668   1.574   7.892   0.414
 2213SOL     OW18669   1.023   8.214   0.966
 2213SOL    HW118670   1.038   8.235   1.062
 2213SOL    HW218671   0.993   8.119   0.957
 2214SOL     OW18672   0.350   8.346   1.804
 2214SOL    HW118673   0.426   8.390   1.852
 2214SOL    HW218674   0.385   8.299   1.722
 2215SOL     OW18675   1.540   7.722   0.125
 2215SOL    HW118676   1.479   7.647   0.148
 2215SOL    HW218677   1.562   7.774   0.208
 2216SOL     OW18678   1.303   8.286   0.042
 2216SOL    HW118679   1.337   8.193   0.057
 2216SOL    HW218680   1.321   8.313  -0.053
 2217SOL     OW18681   0.319   8.258   0.949
 2217SOL    HW118682   0.412   8.294   0.954
 2217SOL    HW218683   0.313   8.173   1.001
 2218SOL     OW18684   0.339   7.957   1.006
 2218SOL    HW118685   0.287   7.874   0.989
 2218SOL    HW218686   0.416   7.962   0.942
 2219SOL     OW18687   1.138   7.828   1.678
 2219SOL    HW118688   1.093   7.891   1.742
 2219SOL    HW218689   1.231   7.859   1.661
 2220SOL     OW18690   1.160   7.655   1.477
 2220SOL    HW118691   1.160   7.719   1.554
 2220SOL    HW218692   1.188   7.703   1.394
 2221SOL     OW18693   1.002   8.244   1.238
 2221SOL    HW118694   1.043   8.212   1.324
 2221SOL    HW218695   0.906   8.217   1.235
 2222SOL     OW18696   0.040   7.992   1.114
 2222SOL    HW118697   0.125   7.959   1.073
 2222SOL    HW218698   0.053   8.007   1.212
 2223SOL     OW18699   0.815   8.020   0.325
 2223SOL    HW118700   0.822   7.931   0.279
 2223SOL    HW218701   0.721   8.054   0.317
 2224SOL     OW18702   1.657   8.052   1.206
 2224SOL    HW118703   1.619   7.983   1.268
 2224SOL    HW218704   1.739   8.016   1.162
 2225SOL     OW18705   0.473   7.948   0.191
 2225SOL    HW118706   0.534   8.028   0.195
 2225SOL    HW218707   0.378   7.979   0.198
 2226SOL     OW18708   0.159   8.585   1.466
 2226SOL    HW118709   0.181   8.524   1.542
 2226SOL    HW218710   0.169   8.536   1.380
 2227SOL     OW18711   1.347   8.507   1.234
 2227SOL    HW118712   1.371   8.444   1.160
 2227SOL    HW218713   1.257   8.547   1.216
 2228SOL     OW18714   1.302   8.303   0.309
 2228SOL    HW118715   1.216   8.272   0.351
 2228SOL    HW218716   1.298   8.289   0.210
 2229SOL     OW18717   0.903   7.534   0.133
 2229SOL    HW118718   0.954   7.535   0.047
 2229SOL    HW218719   0.959   7.492   0.204
 2230SOL     OW18720   1.726   7.583   0.523
 2230SOL    HW118721   1.799   7.566   0.456
 2230SOL    HW218722   1.695   7.496   0.561
 2231SOL     OW18723   1.280   8.375   0.672
 2231SOL    HW118724   1.340   8.294   0.674
 2231SOL    HW218725   1.320   8.444   0.612
 2232SOL     OW18726   1.841   7.623   0.963
 2232SOL    HW118727   1.880   7.538   0.927
 2232SOL    HW218728   1.743   7.625   0.944
 2233SOL     OW18729   0.263   7.774   0.720
 2233SOL    HW118730   0.184   7.825   0.686
 2233SOL    HW218731   0.254   7.759   0.818
 2234SOL     OW18732   0.916   8.358   0.291
 2234SOL    HW118733   0.979   8.396   0.223
 2234SOL    HW218734   0.956   8.275   0.330
 2235SOL     OW18735   1.014   7.684   0.971
 2235SOL    HW118736   1.006   7.648   0.878
 2235SOL    HW218737   1.012   7.608   1.036
 2236SOL     OW18738   1.709   7.833   1.381
 2236SOL    HW118739   1.782   7.902   1.385
 2236SOL    HW218740   1.737   7.758   1.322
 2237SOL     OW18741   0.075   7.793   0.033
 2237SOL    HW118742  -0.017   7.765   0.004
 2237SOL    HW218743   0.106   7.870  -0.023
 2238SOL     OW18744   1.440   8.304   1.398
 2238SOL    HW118745   1.383   8.356   1.335
 2238SOL    HW218746   1.536   8.316   1.374
 2239SOL     OW18747   0.072   7.614   0.318
 2239SOL    HW118748   0.055   7.697   0.264
 2239SOL    HW218749   0.162   7.577   0.296
 2240SOL     OW18750   0.613   8.290   1.431
 2240SOL    HW118751   0.669   8.371   1.414
 2240SOL    HW218752   0.672   8.210   1.434
 2241SOL     OW18753   0.716   8.013   1.708
 2241SOL    HW118754   0.735   8.078   1.782
 2241SOL    HW218755   0.776   7.933   1.717
 2242SOL     OW18756   1.674   8.331   1.254
 2242SOL    HW118757   1.647   8.242   1.217
 2242SOL    HW218758   1.675   8.399   1.181
 2243SOL     OW18759   1.225   7.773   0.449
 2243SOL    HW118760   1.290   7.699   0.438
 2243SOL    HW218761   1.245   7.823   0.533
 2244SOL     OW18762   0.594   8.193   0.652
 2244SOL    HW118763   0.644   8.278   0.633
 2244SOL    HW218764   0.506   8.195   0.604
 2245SOL     OW18765   1.730   8.382   1.517
 2245SOL    HW118766   1.768   8.473   1.532
 2245SOL    HW218767   1.722   8.365   1.418
 2246SOL     OW18768   1.083   8.432   0.087
 2246SOL    HW118769   1.060   8.485   0.005
 2246SOL    HW218770   1.164   8.376   0.068
 2247SOL     OW18771   1.824   7.640   1.227
 2247SOL    HW118772   1.820   7.550   1.271
 2247SOL    HW218773   1.827   7.629   1.128
 2248SOL     OW18774   0.428   7.872   0.520
 2248SOL    HW118775   0.458   7.800   0.458
 2248SOL    HW218776   0.389   7.832   0.603
 2249SOL     OW18777   0.317   7.995   1.280
 2249SOL    HW118778   0.355   7.936   1.352
 2249SOL    HW218779   0.357   7.969   1.192
 2250SOL     OW18780   1.424   7.662   1.112
 2250SOL    HW118781   1.476   7.597   1.167
 2250SOL    HW218782   1.375   7.725   1.173
 2251SOL     OW18783   1.001   7.482   1.154
 2251SOL    HW118784   0.938   7.410   1.123
 2251SOL    HW218785   1.094   7.446   1.154
 2252SOL     OW18786   1.352   7.500   0.168
 2252SOL    HW118787   1.387   7.459   0.084
 2252SOL    HW218788   1.262   7.462   0.188
 2253SOL     OW18789   1.300   7.901   0.691
 2253SOL    HW118790   1.241   7.981   0.695
 2253SOL    HW218791   1.315   7.866   0.784
 2254SOL     OW18792   1.593   7.669   0.882
 2254SOL    HW118793   1.509   7.668   0.936
 2254SOL    HW218794   1.595   7.752   0.826
 2255SOL     OW18795   0.225   7.723   2.858
 2255SOL    HW118796   0.260   7.706   2.950
 2255SOL    HW218797   0.137   7.678   2.846
 2256SOL     OW18798   1.603   7.895   2.599
 2256SOL    HW118799   1.529   7.941   2.549
 2256SOL    HW218800   1.654   7.963   2.652
 2257SOL     OW18801   0.240   8.539   2.748
 2257SOL    HW118802   0.254   8.455   2.800
 2257SOL    HW218803   0.185   8.603   2.803
 2258SOL     OW18804   1.594   7.562   3.342
 2258SOL    HW118805   1.576   7.629   3.270
 2258SOL    HW218806   1.591   7.608   3.431
 2259SOL     OW18807   0.113   8.185   3.459
 2259SOL    HW118808   0.201   8.172   3.504
 2259SOL    HW218809   0.100   8.282   3.437
 2260SOL     OW18810   0.598   8.177   2.132
 2260SOL    HW118811   0.622   8.246   2.064
 2260SOL    HW218812   0.520   8.210   2.186
 2261SOL     OW18813   1.281   7.793   2.806
 2261SOL    HW118814   1.195   7.743   2.793
 2261SOL    HW218815   1.343   7.739   2.862
 2262SOL     OW18816   0.991   7.858   3.104
 2262SOL    HW118817   0.914   7.892   3.158
 2262SOL    HW218818   0.957   7.807   3.025
 2263SOL     OW18819   0.865   7.796   2.057
 2263SOL    HW118820   0.924   7.859   2.008
 2263SOL    HW218821   0.884   7.702   2.028
 2264SOL     OW18822   1.719   8.033   3.693
 2264SOL    HW118823   1.693   8.122   3.657
 2264SOL    HW218824   1.717   7.965   3.620
 2265SOL     OW18825   0.550   7.644   2.747
 2265SOL    HW118826   0.545   7.639   2.847
 2265SOL    HW218827   0.552   7.740   2.718
 2266SOL     OW18828   1.458   8.183   2.590
 2266SOL    HW118829   1.453   8.118   2.665
 2266SOL    HW218830   1.538   8.242   2.603
 2267SOL     OW18831   1.400   7.555   2.288
 2267SOL    HW118832   1.376   7.518   2.198
 2267SOL    HW218833   1.499   7.571   2.292
 2268SOL     OW18834   0.539   7.512   2.374
 2268SOL    HW118835   0.458   7.513   2.432
 2268SOL    HW218836   0.542   7.595   2.319
 2269SOL     OW18837   1.076   8.131   3.326
 2269SOL    HW118838   0.996   8.070   3.329
 2269SOL    HW218839   1.157   8.078   3.302
 2270SOL     OW18840   1.857   8.281   2.239
 2270SOL    HW118841   1.899   8.217   2.303
 2270SOL    HW218842   1.819   8.230   2.161
 2271SOL     OW18843   1.390   8.023   1.940
 2271SOL    HW118844   1.336   8.002   2.021
 2271SOL    HW218845   1.481   7.982   1.949
 2272SOL     OW18846   0.915   7.537   3.264
 2272SOL    HW118847   0.940   7.517   3.169
 2272SOL    HW218848   0.987   7.593   3.306
 2273SOL     OW18849   1.274   7.834   3.124
 2273SOL    HW118850   1.295   7.908   3.188
 2273SOL    HW218851   1.185   7.851   3.081
 2274SOL     OW18852   1.582   8.087   2.334
 2274SOL    HW118853   1.551   8.148   2.407
 2274SOL    HW218854   1.632   8.139   2.265
 2275SOL     OW18855   0.402   8.199   3.460
 2275SOL    HW118856   0.470   8.254   3.413
 2275SOL    HW218857   0.442   8.111   3.487
 2276SOL     OW18858   1.360   8.310   2.907
 2276SOL    HW118859   1.285   8.310   2.841
 2276SOL    HW218860   1.397   8.218   2.916
 2277SOL     OW18861   0.307   7.661   3.093
 2277SOL    HW118862   0.284   7.698   3.183
 2277SOL    HW218863   0.277   7.566   3.087
 2278SOL     OW18864   0.307   7.511   2.480
 2278SOL    HW118865   0.296   7.605   2.513
 2278SOL    HW218866   0.302   7.448   2.557
 2279SOL     OW18867   1.023   8.214   2.828
 2279SOL    HW118868   1.038   8.235   2.924
 2279SOL    HW218869   0.993   8.119   2.819
 2280SOL     OW18870   0.339   7.957   2.868
 2280SOL    HW118871   0.287   7.874   2.851
 2280SOL    HW218872   0.416   7.962   2.804
 2281SOL     OW18873   1.138   7.828   3.540
 2281SOL    HW118874   1.093   7.891   3.604
 2281SOL    HW218875   1.231   7.859   3.523
 2282SOL     OW18876   1.160   7.655   3.339
 2282SOL    HW118877   1.160   7.719   3.416
 2282SOL    HW218878   1.188   7.703   3.256
 2283SOL     OW18879   0.040   7.992   2.976
 2283SOL    HW118880   0.125   7.959   2.935
 2283SOL    HW218881   0.053   8.007   3.074
 2284SOL     OW18882   0.189   7.968   3.584
 2284SOL    HW118883   0.248   7.928   3.514
 2284SOL    HW218884   0.131   8.039   3.543
 2285SOL     OW18885   1.302   8.303   2.171
 2285SOL    HW118886   1.216   8.272   2.213
 2285SOL    HW218887   1.298   8.289   2.072
 2286SOL     OW18888   0.263   7.774   2.582
 2286SOL    HW118889   0.184   7.825   2.548
 2286SOL    HW218890   0.254   7.759   2.680
 2287SOL     OW18891   0.105   8.461   3.588
 2287SOL    HW118892   0.028   8.428   3.642
 2287SOL    HW218893   0.190   8.431   3.630
 2288SOL     OW18894   0.716   8.013   3.570
 2288SOL    HW118895   0.735   8.078   3.644
 2288SOL    HW218896   0.776   7.933   3.579
 2289SOL     OW18897   0.594   8.193   2.514
 2289SOL    HW118898   0.644   8.278   2.495
 2289SOL    HW218899   0.506   8.195   2.466
 2290SOL     OW18900   1.777   7.790   3.504
 2290SOL    HW118901   1.760   7.821   3.410
 2290SOL    HW218902   1.693   7.753   3.542
 2291SOL     OW18903   1.824   7.640   3.089
 2291SOL    HW118904   1.820   7.550   3.133
 2291SOL    HW218905   1.827   7.629   2.990
 2292SOL     OW18906   1.352   7.500   2.030
 2292SOL    HW118907   1.387   7.459   1.946
 2292SOL    HW218908   1.262   7.462   2.050
 2293SOL     OW18909   0.019   7.816   4.371
 2293SOL    HW118910  -0.063   7.859   4.410
 2293SOL    HW218911  -0.009   7.743   4.308
 2294SOL     OW18912   0.768   8.592   4.747
 2294SOL    HW118913   0.690   8.609   4.807
 2294SOL    HW218914   0.802   8.679   4.711
 2295SOL     OW18915   0.850   8.246   5.547
 2295SOL    HW118916   0.846   8.322   5.612
 2295SOL    HW218917   0.872   8.282   5.456
 2296SOL     OW18918   0.685   8.460   4.389
 2296SOL    HW118919   0.754   8.444   4.459
 2296SOL    HW218920   0.612   8.517   4.427
 2297SOL     OW18921   0.438   7.840   5.223
 2297SOL    HW118922   0.520   7.784   5.232
 2297SOL    HW218923   0.357   7.782   5.227
 2298SOL     OW18924   0.240   8.539   4.610
 2298SOL    HW118925   0.254   8.455   4.662
 2298SOL    HW218926   0.185   8.603   4.665
 2299SOL     OW18927   0.809   7.452   4.226
 2299SOL    HW118928   0.849   7.543   4.217
 2299SOL    HW218929   0.709   7.460   4.232
 2300SOL     OW18930   0.197   8.424   4.988
 2300SOL    HW118931   0.286   8.379   4.974
 2300SOL    HW218932   0.124   8.359   4.969
 2301SOL     OW18933   1.525   8.447   3.914
 2301SOL    HW118934   1.462   8.371   3.927
 2301SOL    HW218935   1.573   8.465   4.000
 2302SOL     OW18936   0.807   8.053   5.189
 2302SOL    HW118937   0.760   8.050   5.278
 2302SOL    HW218938   0.756   7.998   5.123
 2303SOL     OW18939   0.973   8.338   5.296
 2303SOL    HW118940   1.019   8.254   5.267
 2303SOL    HW218941   0.917   8.372   5.221
 2304SOL     OW18942   0.076   8.259   4.513
 2304SOL    HW118943   0.175   8.247   4.522
 2304SOL    HW218944   0.052   8.354   4.534
 2305SOL     OW18945   1.719   8.033   5.555
 2305SOL    HW118946   1.693   8.122   5.519
 2305SOL    HW218947   1.717   7.965   5.482
 2306SOL     OW18948   1.547   7.670   5.453
 2306SOL    HW118949   1.542   7.707   5.545
 2306SOL    HW218950   1.475   7.601   5.441
 2307SOL     OW18951   0.781   7.712   5.473
 2307SOL    HW118952   0.848   7.651   5.516
 2307SOL    HW218953   0.708   7.731   5.538
 2308SOL     OW18954   1.076   8.131   5.188
 2308SOL    HW118955   0.996   8.070   5.191
 2308SOL    HW218956   1.157   8.078   5.164
 2309SOL     OW18957   0.078   8.004   5.110
 2309SOL    HW118958   0.170   8.003   5.069
 2309SOL    HW218959   0.072   8.078   5.177
 2310SOL     OW18960   0.866   7.902   4.366
 2310SOL    HW118961   0.834   7.974   4.304
 2310SOL    HW218962   0.890   7.821   4.313
 2311SOL     OW18963   1.017   7.487   4.477
 2311SOL    HW118964   0.945   7.492   4.408
 2311SOL    HW218965   0.993   7.418   4.546
 2312SOL     OW18966   1.857   8.281   4.101
 2312SOL    HW118967   1.899   8.217   4.165
 2312SOL    HW218968   1.819   8.230   4.023
 2313SOL     OW18969   1.390   8.023   3.802
 2313SOL    HW118970   1.336   8.002   3.883
 2313SOL    HW218971   1.481   7.982   3.811
 2314SOL     OW18972   1.638   8.547   4.803
 2314SOL    HW118973   1.643   8.628   4.862
 2314SOL    HW218974   1.552   8.549   4.752
 2315SOL     OW18975   0.915   7.537   5.126
 2315SOL    HW118976   0.940   7.517   5.031
 2315SOL    HW218977   0.987   7.593   5.168
 2316SOL     OW18978   1.274   7.834   4.986
 2316SOL    HW118979   1.295   7.908   5.050
 2316SOL    HW218980   1.185   7.851   4.943
 2317SOL     OW18981   1.582   8.087   4.196
 2317SOL    HW118982   1.551   8.148   4.269
 2317SOL    HW218983   1.632   8.139   4.127
 2318SOL     OW18984   1.013   7.553   5.494
 2318SOL    HW118985   1.019   7.638   5.442
 2318SOL    HW218986   1.045   7.477   5.437
 2319SOL     OW18987   0.504   7.498   5.464
 2319SOL    HW118988   0.462   7.441   5.394
 2319SOL    HW218989   0.438   7.567   5.496
 2320SOL     OW18990   0.307   7.661   4.955
 2320SOL    HW118991   0.284   7.698   5.045
 2320SOL    HW218992   0.277   7.566   4.949
 2321SOL     OW18993   1.728   8.383   5.578
 2321SOL    HW118994   1.682   8.376   5.489
 2321SOL    HW218995   1.666   8.427   5.644
 2322SOL     OW18996   0.307   7.511   4.342
 2322SOL    HW118997   0.296   7.605   4.375
 2322SOL    HW218998   0.302   7.448   4.419
 2323SOL     OW18999   1.622   7.815   4.098
 2323SOL    HW119000   1.624   7.739   4.162
 2323SOL    HW219001   1.574   7.892   4.138
 2324SOL     OW19002   0.350   8.346   5.528
 2324SOL    HW119003   0.426   8.390   5.576
 2324SOL    HW219004   0.385   8.299   5.446
 2325SOL     OW19005   1.138   7.828   5.402
 2325SOL    HW119006   1.093   7.891   5.466
 2325SOL    HW219007   1.231   7.859   5.385
 2326SOL     OW19008   1.160   7.655   5.201
 2326SOL    HW119009   1.160   7.719   5.278
 2326SOL    HW219010   1.188   7.703   5.118
 2327SOL     OW19011   1.369   8.398   5.384
 2327SOL    HW119012   1.408   8.487   5.404
 2327SOL    HW219013   1.379   8.378   5.287
 2328SOL     OW19014   1.657   8.052   4.930
 2328SOL    HW119015   1.619   7.983   4.992
 2328SOL    HW219016   1.739   8.016   4.886
 2329SOL     OW19017   1.347   8.507   4.958
 2329SOL    HW119018   1.371   8.444   4.884
 2329SOL    HW219019   1.257   8.547   4.940
 2330SOL     OW19020   1.302   8.303   4.033
 2330SOL    HW119021   1.216   8.272   4.075
 2330SOL    HW219022   1.298   8.289   3.934
 2331SOL     OW19023   0.105   8.461   5.450
 2331SOL    HW119024   0.028   8.428   5.504
 2331SOL    HW219025   0.190   8.431   5.492
 2332SOL     OW19026   0.672   7.651   5.213
 2332SOL    HW119027   0.762   7.635   5.173
 2332SOL    HW219028   0.680   7.656   5.312
 2333SOL     OW19029   0.072   7.614   4.042
 2333SOL    HW119030   0.055   7.697   3.988
 2333SOL    HW219031   0.162   7.577   4.020
 2334SOL     OW19032   0.613   8.290   5.155
 2334SOL    HW119033   0.669   8.371   5.138
 2334SOL    HW219034   0.672   8.210   5.158
 2335SOL     OW19035   0.716   8.013   5.432
 2335SOL    HW119036   0.735   8.078   5.506
 2335SOL    HW219037   0.776   7.933   5.441
 2336SOL     OW19038   1.777   7.790   5.366
 2336SOL    HW119039   1.760   7.821   5.272
 2336SOL    HW219040   1.693   7.753   5.404
 2337SOL     OW19041   1.730   8.382   5.241
 2337SOL    HW119042   1.768   8.473   5.256
 2337SOL    HW219043   1.722   8.365   5.142
 2338SOL     OW19044   1.083   8.432   3.811
 2338SOL    HW119045   1.060   8.485   3.729
 2338SOL    HW219046   1.164   8.376   3.792
 2339SOL     OW19047   1.001   7.482   4.878
 2339SOL    HW119048   0.938   7.410   4.847
 2339SOL    HW219049   1.094   7.446   4.878
 2340SOL     OW19050   0.230   8.076   5.699
 2340SOL    HW119051   0.137   8.074   5.736
 2340SOL    HW219052   0.231   8.037   5.607
 2341SOL     OW19053   0.225   7.723   6.582
 2341SOL    HW119054   0.260   7.706   6.674
 2341SOL    HW219055   0.137   7.678   6.570
 2342SOL     OW19056   0.019   7.816   6.233
 2342SOL    HW119057  -0.063   7.859   6.272
 2342SOL    HW219058  -0.009   7.743   6.170
 2343SOL     OW19059   1.135   8.151   6.303
 2343SOL    HW119060   1.192   8.229   6.278
 2343SOL    HW219061   1.075   8.177   6.379
 2344SOL     OW19062   1.755   8.055   5.817
 2344SOL    HW119063   1.743   8.042   5.718
 2344SOL    HW219064   1.725   7.974   5.866
 2345SOL     OW19065   0.768   8.592   6.609
 2345SOL    HW119066   0.690   8.609   6.669
 2345SOL    HW219067   0.802   8.679   6.573
 2346SOL     OW19068   0.685   8.460   6.251
 2346SOL    HW119069   0.754   8.444   6.321
 2346SOL    HW219070   0.612   8.517   6.289
 2347SOL     OW19071   0.438   7.840   7.085
 2347SOL    HW119072   0.520   7.784   7.094
 2347SOL    HW219073   0.357   7.782   7.089
 2348SOL     OW19074   1.603   7.895   6.323
 2348SOL    HW119075   1.529   7.941   6.273
 2348SOL    HW219076   1.654   7.963   6.376
 2349SOL     OW19077   0.240   8.539   6.472
 2349SOL    HW119078   0.254   8.455   6.524
 2349SOL    HW219079   0.185   8.603   6.527
 2350SOL     OW19080   1.594   7.562   7.066
 2350SOL    HW119081   1.576   7.629   6.994
 2350SOL    HW219082   1.591   7.608   7.155
 2351SOL     OW19083   0.122   8.091   6.149
 2351SOL    HW119084   0.077   8.003   6.166
 2351SOL    HW219085   0.121   8.145   6.233
 2352SOL     OW19086   0.809   7.452   6.088
 2352SOL    HW119087   0.849   7.543   6.079
 2352SOL    HW219088   0.709   7.460   6.094
 2353SOL     OW19089   0.197   8.424   6.850
 2353SOL    HW119090   0.286   8.379   6.836
 2353SOL    HW219091   0.124   8.359   6.831
 2354SOL     OW19092   1.525   8.447   5.776
 2354SOL    HW119093   1.462   8.371   5.789
 2354SOL    HW219094   1.573   8.465   5.862
 2355SOL     OW19095   0.598   8.177   5.856
 2355SOL    HW119096   0.622   8.246   5.788
 2355SOL    HW219097   0.520   8.210   5.910
 2356SOL     OW19098   1.281   7.793   6.530
 2356SOL    HW119099   1.195   7.743   6.517
 2356SOL    HW219100   1.343   7.739   6.586
 2357SOL     OW19101   0.807   8.053   7.051
 2357SOL    HW119102   0.760   8.050   7.140
 2357SOL    HW219103   0.756   7.998   6.985
 2358SOL     OW19104   0.991   7.858   6.828
 2358SOL    HW119105   0.914   7.892   6.882
 2358SOL    HW219106   0.957   7.807   6.749
 2359SOL     OW19107   1.041   8.149   6.015
 2359SOL    HW119108   1.067   8.145   6.111
 2359SOL    HW219109   0.956   8.098   6.001
 2360SOL     OW19110   0.076   8.259   6.375
 2360SOL    HW119111   0.175   8.247   6.384
 2360SOL    HW219112   0.052   8.354   6.396
 2361SOL     OW19113   0.865   7.796   5.781
 2361SOL    HW119114   0.924   7.859   5.732
 2361SOL    HW219115   0.884   7.702   5.752
 2362SOL     OW19116   0.550   7.644   6.471
 2362SOL    HW119117   0.545   7.639   6.571
 2362SOL    HW219118   0.552   7.740   6.442
 2363SOL     OW19119   1.458   8.183   6.314
 2363SOL    HW119120   1.453   8.118   6.389
 2363SOL    HW219121   1.538   8.242   6.327
 2364SOL     OW19122   1.400   7.555   6.012
 2364SOL    HW119123   1.376   7.518   5.922
 2364SOL    HW219124   1.499   7.571   6.016
 2365SOL     OW19125   0.382   8.148   6.066
 2365SOL    HW119126   0.427   8.058   6.063
 2365SOL    HW219127   0.288   8.137   6.099
 2366SOL     OW19128   0.614   7.570   5.703
 2366SOL    HW119129   0.712   7.548   5.710
 2366SOL    HW219130   0.583   7.553   5.610
 2367SOL     OW19131   0.922   7.951   6.485
 2367SOL    HW119132   0.897   7.942   6.389
 2367SOL    HW219133   0.970   7.869   6.516
 2368SOL     OW19134   0.539   7.512   6.098
 2368SOL    HW119135   0.458   7.513   6.156
 2368SOL    HW219136   0.542   7.595   6.043
 2369SOL     OW19137   0.297   7.483   5.757
 2369SOL    HW119138   0.346   7.567   5.736
 2369SOL    HW219139   0.359   7.418   5.802
 2370SOL     OW19140   0.935   7.684   6.066
 2370SOL    HW119141   0.887   7.725   5.988
 2370SOL    HW219142   1.034   7.682   6.047
 2371SOL     OW19143   1.032   7.997   5.602
 2371SOL    HW119144   0.991   8.079   5.563
 2371SOL    HW219145   1.096   8.023   5.675
 2372SOL     OW19146   0.078   8.004   6.972
 2372SOL    HW119147   0.170   8.003   6.931
 2372SOL    HW219148   0.072   8.078   7.039
 2373SOL     OW19149   0.561   7.670   6.733
 2373SOL    HW119150   0.599   7.586   6.770
 2373SOL    HW219151   0.473   7.689   6.777
 2374SOL     OW19152   0.866   7.902   6.228
 2374SOL    HW119153   0.834   7.974   6.166
 2374SOL    HW219154   0.890   7.821   6.175
 2375SOL     OW19155   1.017   7.487   6.339
 2375SOL    HW119156   0.945   7.492   6.270
 2375SOL    HW219157   0.993   7.418   6.408
 2376SOL     OW19158   1.466   8.038   6.578
 2376SOL    HW119159   1.436   7.943   6.585
 2376SOL    HW219160   1.539   8.054   6.644
 2377SOL     OW19161   1.857   8.281   5.963
 2377SOL    HW119162   1.899   8.217   6.027
 2377SOL    HW219163   1.819   8.230   5.885
 2378SOL     OW19164   1.390   8.023   5.664
 2378SOL    HW119165   1.336   8.002   5.745
 2378SOL    HW219166   1.481   7.982   5.673
 2379SOL     OW19167   0.527   7.704   5.914
 2379SOL    HW119168   0.554   7.645   5.839
 2379SOL    HW219169   0.527   7.799   5.883
 2380SOL     OW19170   1.638   8.547   6.665
 2380SOL    HW119171   1.643   8.628   6.724
 2380SOL    HW219172   1.552   8.549   6.614
 2381SOL     OW19173   0.915   7.537   6.988
 2381SOL    HW119174   0.940   7.517   6.893
 2381SOL    HW219175   0.987   7.593   7.030
 2382SOL     OW19176   0.410   8.261   6.837
 2382SOL    HW119177   0.496   8.273   6.887
 2382SOL    HW219178   0.368   8.174   6.864
 2383SOL     OW19179   1.274   7.834   6.848
 2383SOL    HW119180   1.295   7.908   6.912
 2383SOL    HW219181   1.185   7.851   6.805
 2384SOL     OW19182   0.566   7.985   6.451
 2384SOL    HW119183   0.578   8.051   6.377
 2384SOL    HW219184   0.612   8.019   6.534
 2385SOL     OW19185   1.582   8.087   6.058
 2385SOL    HW119186   1.551   8.148   6.131
 2385SOL    HW219187   1.632   8.139   5.989
 2386SOL     OW19188   0.402   8.199   7.184
 2386SOL    HW119189   0.470   8.254   7.137
 2386SOL    HW219190   0.442   8.111   7.211
 2387SOL     OW19191   1.587   8.227   7.256
 2387SOL    HW119192   1.495   8.265   7.251
 2387SOL    HW219193   1.647   8.274   7.191
 2388SOL     OW19194   0.573   8.318   6.615
 2388SOL    HW119195   0.617   8.407   6.606
 2388SOL    HW219196   0.510   8.318   6.692
 2389SOL     OW19197   1.360   8.310   6.631
 2389SOL    HW119198   1.285   8.310   6.565
 2389SOL    HW219199   1.397   8.218   6.640
 2390SOL     OW19200   1.209   7.973   5.861
 2390SOL    HW119201   1.222   7.889   5.915
 2390SOL    HW219202   1.180   8.047   5.921
 2391SOL     OW19203   0.307   7.661   6.817
 2391SOL    HW119204   0.284   7.698   6.907
 2391SOL    HW219205   0.277   7.566   6.811
 2392SOL     OW19206   0.037   8.758   6.868
 2392SOL    HW119207   0.090   8.709   6.936
 2392SOL    HW219208   0.059   8.856   6.873
 2393SOL     OW19209   0.732   8.082   6.650
 2393SOL    HW119210   0.791   8.056   6.574
 2393SOL    HW219211   0.704   8.178   6.639
 2394SOL     OW19212   0.307   7.511   6.204
 2394SOL    HW119213   0.296   7.605   6.237
 2394SOL    HW219214   0.302   7.448   6.281
 2395SOL     OW19215   1.622   7.815   5.960
 2395SOL    HW119216   1.624   7.739   6.024
 2395SOL    HW219217   1.574   7.892   6.000
 2396SOL     OW19218   1.023   8.214   6.552
 2396SOL    HW119219   1.038   8.235   6.648
 2396SOL    HW219220   0.993   8.119   6.543
 2397SOL     OW19221   1.540   7.722   5.711
 2397SOL    HW119222   1.479   7.647   5.734
 2397SOL    HW219223   1.562   7.774   5.794
 2398SOL     OW19224   1.303   8.286   5.628
 2398SOL    HW119225   1.337   8.193   5.643
 2398SOL    HW219226   1.321   8.313   5.533
 2399SOL     OW19227   0.319   8.258   6.535
 2399SOL    HW119228   0.412   8.294   6.540
 2399SOL    HW219229   0.313   8.173   6.587
 2400SOL     OW19230   0.339   7.957   6.592
 2400SOL    HW119231   0.287   7.874   6.575
 2400SOL    HW219232   0.416   7.962   6.528
 2401SOL     OW19233   1.138   7.828   7.264
 2401SOL    HW119234   1.093   7.891   7.328
 2401SOL    HW219235   1.231   7.859   7.247
 2402SOL     OW19236   1.160   7.655   7.063
 2402SOL    HW119237   1.160   7.719   7.140
 2402SOL    HW219238   1.188   7.703   6.980
 2403SOL     OW19239   1.002   8.244   6.824
 2403SOL    HW119240   1.043   8.212   6.910
 2403SOL    HW219241   0.906   8.217   6.821
 2404SOL     OW19242   0.040   7.992   6.700
 2404SOL    HW119243   0.125   7.959   6.659
 2404SOL    HW219244   0.053   8.007   6.798
 2405SOL     OW19245   0.815   8.020   5.911
 2405SOL    HW119246   0.822   7.931   5.865
 2405SOL    HW219247   0.721   8.054   5.903
 2406SOL     OW19248   1.657   8.052   6.792
 2406SOL    HW119249   1.619   7.983   6.854
 2406SOL    HW219250   1.739   8.016   6.748
 2407SOL     OW19251   0.671   7.912   6.855
 2407SOL    HW119252   0.637   7.823   6.825
 2407SOL    HW219253   0.697   7.966   6.775
 2408SOL     OW19254   0.473   7.948   5.777
 2408SOL    HW119255   0.534   8.028   5.781
 2408SOL    HW219256   0.378   7.979   5.784
 2409SOL     OW19257   0.159   8.585   7.052
 2409SOL    HW119258   0.181   8.524   7.128
 2409SOL    HW219259   0.169   8.536   6.966
 2410SOL     OW19260   1.347   8.507   6.820
 2410SOL    HW119261   1.371   8.444   6.746
 2410SOL    HW219262   1.257   8.547   6.802
 2411SOL     OW19263   1.302   8.303   5.895
 2411SOL    HW119264   1.216   8.272   5.937
 2411SOL    HW219265   1.298   8.289   5.796
 2412SOL     OW19266   1.726   7.583   6.109
 2412SOL    HW119267   1.799   7.566   6.042
 2412SOL    HW219268   1.695   7.496   6.147
 2413SOL     OW19269   1.280   8.375   6.258
 2413SOL    HW119270   1.340   8.294   6.260
 2413SOL    HW219271   1.320   8.444   6.198
 2414SOL     OW19272   1.841   7.623   6.549
 2414SOL    HW119273   1.880   7.538   6.513
 2414SOL    HW219274   1.743   7.625   6.530
 2415SOL     OW19275   0.263   7.774   6.306
 2415SOL    HW119276   0.184   7.825   6.272
 2415SOL    HW219277   0.254   7.759   6.404
 2416SOL     OW19278   0.916   8.358   5.877
 2416SOL    HW119279   0.979   8.396   5.809
 2416SOL    HW219280   0.956   8.275   5.916
 2417SOL     OW19281   1.014   7.684   6.557
 2417SOL    HW119282   1.006   7.648   6.464
 2417SOL    HW219283   1.012   7.608   6.622
 2418SOL     OW19284   1.709   7.833   6.967
 2418SOL    HW119285   1.782   7.902   6.971
 2418SOL    HW219286   1.737   7.758   6.908
 2419SOL     OW19287   1.440   8.304   6.984
 2419SOL    HW119288   1.383   8.356   6.921
 2419SOL    HW219289   1.536   8.316   6.960
 2420SOL     OW19290   0.072   7.614   5.904
 2420SOL    HW119291   0.055   7.697   5.850
 2420SOL    HW219292   0.162   7.577   5.882
 2421SOL     OW19293   0.613   8.290   7.017
 2421SOL    HW119294   0.669   8.371   7.000
 2421SOL    HW219295   0.672   8.210   7.020
 2422SOL     OW19296   1.674   8.331   6.840
 2422SOL    HW119297   1.647   8.242   6.803
 2422SOL    HW219298   1.675   8.399   6.767
 2423SOL     OW19299   1.225   7.773   6.035
 2423SOL    HW119300   1.290   7.699   6.024
 2423SOL    HW219301   1.245   7.823   6.119
 2424SOL     OW19302   0.594   8.193   6.238
 2424SOL    HW119303   0.644   8.278   6.219
 2424SOL    HW219304   0.506   8.195   6.190
 2425SOL     OW19305   1.777   7.790   7.228
 2425SOL    HW119306   1.760   7.821   7.134
 2425SOL    HW219307   1.693   7.753   7.266
 2426SOL     OW19308   1.730   8.382   7.103
 2426SOL    HW119309   1.768   8.473   7.118
 2426SOL    HW219310   1.722   8.365   7.004
 2427SOL     OW19311   1.083   8.432   5.673
 2427SOL    HW119312   1.060   8.485   5.591
 2427SOL    HW219313   1.164   8.376   5.654
 2428SOL     OW19314   1.824   7.640   6.813
 2428SOL    HW119315   1.820   7.550   6.857
 2428SOL    HW219316   1.827   7.629   6.714
 2429SOL     OW19317   0.428   7.872   6.106
 2429SOL    HW119318   0.458   7.800   6.044
 2429SOL    HW219319   0.389   7.832   6.189
 2430SOL     OW19320   0.317   7.995   6.866
 2430SOL    HW119321   0.355   7.936   6.938
 2430SOL    HW219322   0.357   7.969   6.778
 2431SOL     OW19323   1.424   7.662   6.698
 2431SOL    HW119324   1.476   7.597   6.753
 2431SOL    HW219325   1.375   7.725   6.759
 2432SOL     OW19326   1.001   7.482   6.740
 2432SOL    HW119327   0.938   7.410   6.709
 2432SOL    HW219328   1.094   7.446   6.740
 2433SOL     OW19329   1.352   7.500   5.754
 2433SOL    HW119330   1.387   7.459   5.670
 2433SOL    HW219331   1.262   7.462   5.774
 2434SOL     OW19332   1.300   7.901   6.277
 2434SOL    HW119333   1.241   7.981   6.281
 2434SOL    HW219334   1.315   7.866   6.370
 2435SOL     OW19335   1.593   7.669   6.468
 2435SOL    HW119336   1.509   7.668   6.522
 2435SOL    HW219337   1.595   7.752   6.412
 2436SOL     OW19338   2.092   0.628   0.113
 2436SOL    HW119339   1.999   0.626   0.150
 2436SOL    HW219340   2.093   0.589   0.021
 2437SOL     OW19341   2.087   0.275   0.996
 2437SOL    HW119342   2.122   0.258   1.088
 2437SOL    HW219343   1.999   0.230   0.984
 2438SOL     OW19344   1.881   0.368   0.647
 2438SOL    HW119345   1.799   0.411   0.686
 2438SOL    HW219346   1.853   0.295   0.584
 2439SOL     OW19347   2.431   1.275   1.165
 2439SOL    HW119348   2.338   1.268   1.128
 2439SOL    HW219349   2.442   1.364   1.209
 2440SOL     OW19350   3.417   1.511   0.703
 2440SOL    HW119351   3.360   1.495   0.784
 2440SOL    HW219352   3.358   1.521   0.623
 2441SOL     OW19353   2.997   0.703   0.717
 2441SOL    HW119354   3.054   0.781   0.692
 2441SOL    HW219355   2.937   0.729   0.793
 2442SOL     OW19356   3.617   0.607   0.231
 2442SOL    HW119357   3.605   0.594   0.132
 2442SOL    HW219358   3.587   0.526   0.280
 2443SOL     OW19359   2.630   1.144   1.023
 2443SOL    HW119360   2.552   1.161   1.083
 2443SOL    HW219361   2.664   1.231   0.987
 2444SOL     OW19362   2.712   0.798   1.823
 2444SOL    HW119363   2.708   0.874   1.888
 2444SOL    HW219364   2.734   0.834   1.732
 2445SOL     OW19365   2.547   1.012   0.665
 2445SOL    HW119366   2.616   0.996   0.735
 2445SOL    HW219367   2.474   1.069   0.703
 2446SOL     OW19368   2.197   1.435   1.061
 2446SOL    HW119369   2.119   1.404   1.008
 2446SOL    HW219370   2.255   1.493   1.004
 2447SOL     OW19371   3.322   1.505   1.339
 2447SOL    HW119372   3.346   1.599   1.365
 2447SOL    HW219373   3.306   1.451   1.421
 2448SOL     OW19374   2.300   0.392   1.499
 2448SOL    HW119375   2.382   0.336   1.508
 2448SOL    HW219376   2.219   0.334   1.503
 2449SOL     OW19377   3.465   0.447   0.737
 2449SOL    HW119378   3.391   0.493   0.687
 2449SOL    HW219379   3.516   0.515   0.790
 2450SOL     OW19380   2.093   1.713   0.483
 2450SOL    HW119381   2.127   1.790   0.537
 2450SOL    HW219382   2.137   1.713   0.393
 2451SOL     OW19383   2.989   1.341   1.690
 2451SOL    HW119384   3.036   1.341   1.778
 2451SOL    HW219385   2.941   1.254   1.679
 2452SOL     OW19386   2.092   1.434   0.538
 2452SOL    HW119387   2.066   1.530   0.538
 2452SOL    HW219388   2.021   1.380   0.583
 2453SOL     OW19389   2.102   1.091   0.886
 2453SOL    HW119390   2.116   1.007   0.938
 2453SOL    HW219391   2.047   1.155   0.941
 2454SOL     OW19392   2.482   1.786   1.439
 2454SOL    HW119393   2.390   1.769   1.474
 2454SOL    HW219394   2.510   1.878   1.465
 2455SOL     OW19395   2.468   0.964   0.123
 2455SOL    HW119396   2.475   1.048   0.069
 2455SOL    HW219397   2.514   0.977   0.211
 2456SOL     OW19398   3.456   0.114   1.480
 2456SOL    HW119399   3.438   0.181   1.408
 2456SOL    HW219400   3.453   0.160   1.569
 2457SOL     OW19401   1.984   0.643   0.563
 2457SOL    HW119402   1.939   0.555   0.580
 2457SOL    HW219403   1.983   0.697   0.647
 2458SOL     OW19404   3.704   1.767   0.359
 2458SOL    HW119405   3.758   1.738   0.439
 2458SOL    HW219406   3.734   1.857   0.330
 2459SOL     OW19407   1.889   1.596   0.117
 2459SOL    HW119408   1.870   1.500   0.138
 2459SOL    HW219409   1.856   1.654   0.192
 2460SOL     OW19410   3.551   0.922   0.612
 2460SOL    HW119411   3.646   0.893   0.620
 2460SOL    HW219412   3.543   0.987   0.537
 2461SOL     OW19413   3.503   1.108   0.432
 2461SOL    HW119414   3.589   1.110   0.380
 2461SOL    HW219415   3.517   1.155   0.520
 2462SOL     OW19416   1.975   0.737   1.597
 2462SOL    HW119417   2.063   0.724   1.642
 2462SOL    HW219418   1.962   0.834   1.575
 2463SOL     OW19419   2.475   1.365   0.726
 2463SOL    HW119420   2.426   1.278   0.735
 2463SOL    HW219421   2.452   1.408   0.639
 2464SOL     OW19422   3.155   1.228   1.423
 2464SOL    HW119423   3.192   1.155   1.365
 2464SOL    HW219424   3.207   1.233   1.508
 2465SOL     OW19425   2.671   0.004   0.502
 2465SOL    HW119426   2.711   0.095   0.493
 2465SOL    HW219427   2.571   0.012   0.508
 2466SOL     OW19428   2.059   0.976   1.264
 2466SOL    HW119429   2.148   0.931   1.250
 2466SOL    HW219430   1.986   0.911   1.245
 2467SOL     OW19431   3.387   0.999   0.190
 2467SOL    HW119432   3.324   0.923   0.203
 2467SOL    HW219433   3.435   1.017   0.276
 2468SOL     OW19434   3.049   1.792   1.616
 2468SOL    HW119435   3.073   1.852   1.540
 2468SOL    HW219436   3.056   1.697   1.586
 2469SOL     OW19437   3.328   1.417   0.953
 2469SOL    HW119438   3.269   1.423   1.033
 2469SOL    HW219439   3.313   1.329   0.907
 2470SOL     OW19440   3.529   1.714   0.572
 2470SOL    HW119441   3.488   1.691   0.484
 2470SOL    HW219442   3.511   1.640   0.637
 2471SOL     OW19443   2.460   0.729   0.270
 2471SOL    HW119444   2.484   0.798   0.202
 2471SOL    HW219445   2.382   0.762   0.324
 2472SOL     OW19446   3.143   0.345   0.944
 2472SOL    HW119447   3.057   0.295   0.931
 2472SOL    HW219448   3.205   0.291   1.000
 2473SOL     OW19449   3.438   1.662   0.307
 2473SOL    HW119450   3.527   1.708   0.310
 2473SOL    HW219451   3.417   1.638   0.212
 2474SOL     OW19452   2.669   0.605   1.465
 2474SOL    HW119453   2.622   0.602   1.554
 2474SOL    HW219454   2.618   0.550   1.399
 2475SOL     OW19455   3.256   0.469   1.674
 2475SOL    HW119456   3.236   0.512   1.762
 2475SOL    HW219457   3.334   0.407   1.683
 2476SOL     OW19458   2.835   0.890   1.572
 2476SOL    HW119459   2.881   0.806   1.543
 2476SOL    HW219460   2.779   0.924   1.497
 2477SOL     OW19461   2.853   0.410   1.242
 2477SOL    HW119462   2.776   0.444   1.296
 2477SOL    HW219463   2.819   0.359   1.163
 2478SOL     OW19464   2.903   0.701   0.429
 2478SOL    HW119465   2.929   0.697   0.525
 2478SOL    HW219466   2.818   0.650   0.415
 2479SOL     OW19467   1.938   0.811   0.789
 2479SOL    HW119468   2.037   0.799   0.798
 2479SOL    HW219469   1.914   0.906   0.810
 2480SOL     OW19470   2.727   0.348   0.195
 2480SOL    HW119471   2.786   0.411   0.146
 2480SOL    HW219472   2.746   0.254   0.166
 2481SOL     OW19473   3.224   1.144   0.545
 2481SOL    HW119474   3.307   1.115   0.497
 2481SOL    HW219475   3.175   1.211   0.489
 2482SOL     OW19476   2.412   0.196   0.885
 2482SOL    HW119477   2.407   0.191   0.985
 2482SOL    HW219478   2.414   0.292   0.856
 2483SOL     OW19479   2.870   1.456   0.477
 2483SOL    HW119480   2.824   1.528   0.425
 2483SOL    HW219481   2.866   1.476   0.575
 2484SOL     OW19482   2.213   1.801   0.853
 2484SOL    HW119483   2.263   1.715   0.859
 2484SOL    HW219484   2.278   1.878   0.850
 2485SOL     OW19485   3.657   1.066   0.873
 2485SOL    HW119486   3.595   1.051   0.797
 2485SOL    HW219487   3.605   1.077   0.958
 2486SOL     OW19488   3.089   1.550   1.506
 2486SOL    HW119489   3.095   1.473   1.570
 2486SOL    HW219490   3.037   1.524   1.426
 2487SOL     OW19491   2.183   0.943   0.242
 2487SOL    HW119492   2.265   0.982   0.200
 2487SOL    HW219493   2.156   0.861   0.193
 2488SOL     OW19494   3.320   0.735   0.728
 2488SOL    HW119495   3.315   0.670   0.803
 2488SOL    HW219496   3.400   0.794   0.741
 2489SOL     OW19497   2.323   1.266   1.727
 2489SOL    HW119498   2.273   1.267   1.641
 2489SOL    HW219499   2.260   1.248   1.803
 2490SOL     OW19500   2.973   1.776   0.237
 2490SOL    HW119501   2.913   1.714   0.287
 2490SOL    HW219502   3.004   1.732   0.152
 2491SOL     OW19503   2.064   0.285   1.498
 2491SOL    HW119504   1.984   0.345   1.485
 2491SOL    HW219505   2.054   0.236   1.584
 2492SOL     OW19506   3.494   1.377   0.081
 2492SOL    HW119507   3.462   1.471   0.071
 2492SOL    HW219508   3.418   1.314   0.069
 2493SOL     OW19509   2.326   1.743   0.323
 2493SOL    HW119510   2.359   1.782   0.409
 2493SOL    HW219511   2.402   1.736   0.258
 2494SOL     OW19512   3.262   0.107   0.426
 2494SOL    HW119513   3.238   0.070   0.336
 2494SOL    HW219514   3.361   0.123   0.430
 2495SOL     OW19515   2.111   1.785   1.241
 2495SOL    HW119516   2.168   1.720   1.291
 2495SOL    HW219517   2.095   1.752   1.148
 2496SOL     OW19518   2.802   1.698   0.904
 2496SOL    HW119519   2.882   1.641   0.925
 2496SOL    HW219520   2.753   1.658   0.827
 2497SOL     OW19521   2.244   0.700   0.480
 2497SOL    HW119522   2.289   0.610   0.477
 2497SOL    HW219523   2.150   0.689   0.513
 2498SOL     OW19524   2.476   0.122   0.117
 2498SOL    HW119525   2.574   0.100   0.124
 2498SOL    HW219526   2.445   0.105   0.024
 2499SOL     OW19527   2.750   1.514   1.195
 2499SOL    HW119528   2.727   1.489   1.101
 2499SOL    HW219529   2.811   1.445   1.234
 2500SOL     OW19530   3.213   0.590   1.433
 2500SOL    HW119531   3.241   0.547   1.518
 2500SOL    HW219532   3.238   0.686   1.434
 2501SOL     OW19533   2.665   1.402   0.924
 2501SOL    HW119534   2.755   1.416   0.882
 2501SOL    HW219535   2.594   1.404   0.853
 2502SOL     OW19536   2.784   0.503   0.899
 2502SOL    HW119537   2.759   0.494   0.803
 2502SOL    HW219538   2.832   0.421   0.930
 2503SOL     OW19539   2.401   0.064   0.512
 2503SOL    HW119540   2.320   0.065   0.570
 2503SOL    HW219541   2.404   0.147   0.457
 2504SOL     OW19542   3.296   1.188   0.041
 2504SOL    HW119543   3.328   1.112   0.098
 2504SOL    HW219544   3.204   1.215   0.071
 2505SOL     OW19545   2.159   0.035   0.171
 2505SOL    HW119546   2.208   0.119   0.150
 2505SOL    HW219547   2.221  -0.030   0.216
 2506SOL     OW19548   2.797   0.236   0.480
 2506SOL    HW119549   2.749   0.277   0.402
 2506SOL    HW219550   2.896   0.234   0.461
 2507SOL     OW19551   2.938   0.683   1.464
 2507SOL    HW119552   2.858   0.622   1.467
 2507SOL    HW219553   3.019   0.630   1.440
 2508SOL     OW19554   3.089   1.570   0.793
 2508SOL    HW119555   3.110   1.644   0.728
 2508SOL    HW219556   3.157   1.570   0.866
 2509SOL     OW19557   2.321   1.152   0.741
 2509SOL    HW119558   2.250   1.125   0.806
 2509SOL    HW219559   2.295   1.124   0.648
 2510SOL     OW19560   3.133   1.797   0.591
 2510SOL    HW119561   3.177   1.861   0.527
 2510SOL    HW219562   3.083   1.849   0.661
 2511SOL     OW19563   2.894   0.549   0.016
 2511SOL    HW119564   2.853   0.631  -0.023
 2511SOL    HW219565   2.958   0.575   0.089
 2512SOL     OW19566   1.940   0.556   1.386
 2512SOL    HW119567   2.032   0.555   1.345
 2512SOL    HW219568   1.934   0.630   1.453
 2513SOL     OW19569   2.423   0.222   1.147
 2513SOL    HW119570   2.461   0.138   1.184
 2513SOL    HW219571   2.335   0.241   1.191
 2514SOL     OW19572   2.728   0.454   0.642
 2514SOL    HW119573   2.696   0.526   0.580
 2514SOL    HW219574   2.752   0.373   0.589
 2515SOL     OW19575   2.879   0.039   0.753
 2515SOL    HW119576   2.807   0.044   0.684
 2515SOL    HW219577   2.855  -0.030   0.822
 2516SOL     OW19578   3.291   1.173   0.867
 2516SOL    HW119579   3.236   1.089   0.860
 2516SOL    HW219580   3.317   1.202   0.775
 2517SOL     OW19581   3.328   0.590   0.992
 2517SOL    HW119582   3.298   0.495   0.999
 2517SOL    HW219583   3.401   0.606   1.058
 2518SOL     OW19584   3.719   0.833   0.377
 2518SOL    HW119585   3.761   0.769   0.441
 2518SOL    HW219586   3.681   0.782   0.299
 2519SOL     OW19587   2.350   1.385   0.174
 2519SOL    HW119588   2.263   1.370   0.221
 2519SOL    HW219589   2.333   1.411   0.079
 2520SOL     OW19590   3.526   1.280   0.657
 2520SOL    HW119591   3.625   1.288   0.671
 2520SOL    HW219592   3.481   1.364   0.688
 2521SOL     OW19593   3.252   0.575   0.078
 2521SOL    HW119594   3.198   0.554   0.159
 2521SOL    HW219595   3.343   0.534   0.087
 2522SOL     OW19596   2.389   0.256   0.328
 2522SOL    HW119597   2.416   0.197   0.253
 2522SOL    HW219598   2.389   0.351   0.297
 2523SOL     OW19599   3.616   1.223   1.588
 2523SOL    HW119600   3.707   1.184   1.575
 2523SOL    HW219601   3.624   1.319   1.612
 2524SOL     OW19602   2.926   1.347   1.340
 2524SOL    HW119603   2.846   1.324   1.395
 2524SOL    HW219604   3.009   1.321   1.389
 2525SOL     OW19605   3.454   1.629   1.625
 2525SOL    HW119606   3.481   1.663   1.535
 2525SOL    HW219607   3.533   1.591   1.671
 2526SOL     OW19608   2.973   1.195   1.100
 2526SOL    HW119609   2.933   1.239   1.181
 2526SOL    HW219610   2.932   1.232   1.017
 2527SOL     OW19611   3.500   1.099   1.079
 2527SOL    HW119612   3.505   1.180   1.138
 2527SOL    HW219613   3.414   1.101   1.028
 2528SOL     OW19614   2.777   0.089   1.402
 2528SOL    HW119615   2.802   0.069   1.307
 2528SOL    HW219616   2.849   0.145   1.444
 2529SOL     OW19617   2.842   1.116   1.719
 2529SOL    HW119618   2.743   1.122   1.729
 2529SOL    HW219619   2.865   1.036   1.663
 2530SOL     OW19620   2.567   1.050   0.368
 2530SOL    HW119621   2.553   1.057   0.467
 2530SOL    HW219622   2.651   0.999   0.350
 2531SOL     OW19623   2.272   0.813   1.251
 2531SOL    HW119624   2.358   0.825   1.301
 2531SOL    HW219625   2.230   0.726   1.278
 2532SOL     OW19626   3.136   0.386   1.262
 2532SOL    HW119627   3.157   0.460   1.326
 2532SOL    HW219628   3.047   0.403   1.219
 2533SOL     OW19629   1.926   1.564   1.331
 2533SOL    HW119630   1.880   1.646   1.297
 2533SOL    HW219631   2.024   1.583   1.340
 2534SOL     OW19632   2.229   1.100   0.501
 2534SOL    HW119633   2.222   1.183   0.445
 2534SOL    HW219634   2.233   1.020   0.441
 2535SOL     OW19635   2.428   0.537   0.865
 2535SOL    HW119636   2.440   0.603   0.791
 2535SOL    HW219637   2.474   0.571   0.948
 2536SOL     OW19638   3.114   1.348   0.388
 2536SOL    HW119639   3.164   1.425   0.428
 2536SOL    HW219640   3.019   1.350   0.420
 2537SOL     OW19641   3.134   1.445   1.142
 2537SOL    HW119642   3.181   1.458   1.229
 2537SOL    HW219643   3.068   1.371   1.151
 2538SOL     OW19644   3.444   0.639   0.472
 2538SOL    HW119645   3.413   0.700   0.545
 2538SOL    HW219646   3.494   0.691   0.403
 2539SOL     OW19647   2.216   1.510   1.329
 2539SOL    HW119648   2.195   1.466   1.242
 2539SOL    HW219649   2.313   1.536   1.332
 2540SOL     OW19650   2.435   0.870   1.029
 2540SOL    HW119651   2.479   0.959   1.020
 2540SOL    HW219652   2.372   0.870   1.106
 2541SOL     OW19653   3.222   0.862   1.045
 2541SOL    HW119654   3.147   0.862   0.979
 2541SOL    HW219655   3.259   0.770   1.054
 2542SOL     OW19656   3.071   0.525   0.275
 2542SOL    HW119657   3.084   0.441   0.329
 2542SOL    HW219658   3.042   0.599   0.335
 2543SOL     OW19659   2.169   0.213   1.231
 2543SOL    HW119660   2.146   0.250   1.321
 2543SOL    HW219661   2.139   0.118   1.225
 2544SOL     OW19662   1.899   1.310   1.282
 2544SOL    HW119663   1.952   1.261   1.350
 2544SOL    HW219664   1.921   1.408   1.287
 2545SOL     OW19665   2.594   0.634   1.064
 2545SOL    HW119666   2.653   0.608   0.988
 2545SOL    HW219667   2.566   0.730   1.053
 2546SOL     OW19668   2.169   0.063   0.618
 2546SOL    HW119669   2.158   0.157   0.651
 2546SOL    HW219670   2.164   0.000   0.695
 2547SOL     OW19671   3.484   0.367   0.374
 2547SOL    HW119672   3.486   0.291   0.438
 2547SOL    HW219673   3.436   0.444   0.414
 2548SOL     OW19674   2.885   0.766   0.966
 2548SOL    HW119675   2.900   0.787   1.062
 2548SOL    HW219676   2.855   0.671   0.957
 2549SOL     OW19677   2.842   1.573   1.700
 2549SOL    HW119678   2.822   1.617   1.612
 2549SOL    HW219679   2.881   1.482   1.684
 2550SOL     OW19680   3.721   1.518   1.605
 2550SOL    HW119681   3.735   1.545   1.510
 2550SOL    HW219682   3.804   1.540   1.658
 2551SOL     OW19683   3.402   0.274   0.125
 2551SOL    HW119684   3.341   0.199   0.148
 2551SOL    HW219685   3.424   0.326   0.208
 2552SOL     OW19686   3.165   0.838   0.042
 2552SOL    HW119687   3.199   0.745   0.057
 2552SOL    HW219688   3.183   0.865  -0.053
 2553SOL     OW19689   2.930   1.333   0.849
 2553SOL    HW119690   2.937   1.249   0.794
 2553SOL    HW219691   2.992   1.402   0.813
 2554SOL     OW19692   2.181   0.810   0.949
 2554SOL    HW119693   2.274   0.846   0.954
 2554SOL    HW219694   2.175   0.725   1.001
 2555SOL     OW19695   2.201   0.509   1.006
 2555SOL    HW119696   2.149   0.426   0.989
 2555SOL    HW219697   2.278   0.514   0.942
 2556SOL     OW19698   3.000   0.380   1.678
 2556SOL    HW119699   2.955   0.443   1.742
 2556SOL    HW219700   3.093   0.411   1.661
 2557SOL     OW19701   3.022   0.207   1.477
 2557SOL    HW119702   3.022   0.271   1.554
 2557SOL    HW219703   3.050   0.255   1.394
 2558SOL     OW19704   1.870   1.326   0.200
 2558SOL    HW119705   1.777   1.347   0.169
 2558SOL    HW219706   1.880   1.227   0.213
 2559SOL     OW19707   1.950   1.801   0.927
 2559SOL    HW119708   1.908   1.715   0.900
 2559SOL    HW219709   2.044   1.804   0.893
 2560SOL     OW19710   2.366   1.568   0.910
 2560SOL    HW119711   2.432   1.642   0.919
 2560SOL    HW219712   2.410   1.489   0.868
 2561SOL     OW19713   2.864   0.796   1.238
 2561SOL    HW119714   2.905   0.764   1.324
 2561SOL    HW219715   2.768   0.769   1.235
 2562SOL     OW19716   1.902   0.544   1.114
 2562SOL    HW119717   1.987   0.511   1.073
 2562SOL    HW219718   1.915   0.559   1.212
 2563SOL     OW19719   2.051   0.520   1.722
 2563SOL    HW119720   2.110   0.480   1.652
 2563SOL    HW219721   1.993   0.591   1.681
 2564SOL     OW19722   2.677   0.572   0.325
 2564SOL    HW119723   2.684   0.483   0.279
 2564SOL    HW219724   2.583   0.606   0.317
 2565SOL     OW19725   3.519   0.604   1.206
 2565SOL    HW119726   3.481   0.535   1.268
 2565SOL    HW219727   3.601   0.568   1.162
 2566SOL     OW19728   2.114   1.564   1.744
 2566SOL    HW119729   2.084   1.621   1.820
 2566SOL    HW219730   2.107   1.467   1.770
 2567SOL     OW19731   2.533   0.464   1.269
 2567SOL    HW119732   2.499   0.375   1.239
 2567SOL    HW219733   2.559   0.518   1.189
 2568SOL     OW19734   2.792   1.678   1.465
 2568SOL    HW119735   2.768   1.660   1.370
 2568SOL    HW219736   2.822   1.772   1.475
 2569SOL     OW19737   2.335   0.500   0.191
 2569SOL    HW119738   2.396   0.580   0.195
 2569SOL    HW219739   2.240   0.531   0.198
 2570SOL     OW19740   3.209   1.059   1.234
 2570SOL    HW119741   3.233   0.996   1.160
 2570SOL    HW219742   3.119   1.099   1.216
 2571SOL     OW19743   3.164   0.855   0.309
 2571SOL    HW119744   3.078   0.824   0.351
 2571SOL    HW219745   3.160   0.841   0.210
 2572SOL     OW19746   3.621   1.747   1.154
 2572SOL    HW119747   3.682   1.777   1.081
 2572SOL    HW219748   3.583   1.658   1.132
 2573SOL     OW19749   3.114   1.731   1.128
 2573SOL    HW119750   3.198   1.736   1.074
 2573SOL    HW219751   3.091   1.635   1.146
 2574SOL     OW19752   1.945   1.258   1.022
 2574SOL    HW119753   1.940   1.257   1.122
 2574SOL    HW219754   1.862   1.217   0.984
 2575SOL     OW19755   2.550   1.662   1.716
 2575SOL    HW119756   2.494   1.743   1.725
 2575SOL    HW219757   2.602   1.666   1.630
 2576SOL     OW19758   2.765   0.086   0.133
 2576SOL    HW119759   2.816   0.087   0.047
 2576SOL    HW219760   2.821   0.044   0.204
 2577SOL     OW19761   3.588   0.135   0.523
 2577SOL    HW119762   3.661   0.118   0.456
 2577SOL    HW219763   3.557   0.048   0.561
 2578SOL     OW19764   3.250   1.573   0.477
 2578SOL    HW119765   3.317   1.585   0.403
 2578SOL    HW219766   3.210   1.662   0.500
 2579SOL     OW19767   3.142   0.927   0.672
 2579SOL    HW119768   3.202   0.846   0.674
 2579SOL    HW219769   3.182   0.996   0.612
 2580SOL     OW19770   2.692   1.273   1.422
 2580SOL    HW119771   2.687   1.306   1.517
 2580SOL    HW219772   2.606   1.292   1.376
 2581SOL     OW19773   2.534   1.616   0.154
 2581SOL    HW119774   2.543   1.626   0.055
 2581SOL    HW219775   2.494   1.527   0.175
 2582SOL     OW19776   3.512   1.720   1.394
 2582SOL    HW119777   3.565   1.730   1.310
 2582SOL    HW219778   3.485   1.810   1.428
 2583SOL     OW19779   3.703   0.175   0.963
 2583SOL    HW119780   3.742   0.090   0.927
 2583SOL    HW219781   3.605   0.177   0.944
 2584SOL     OW19782   2.125   0.326   0.720
 2584SOL    HW119783   2.046   0.377   0.686
 2584SOL    HW219784   2.116   0.311   0.818
 2585SOL     OW19785   3.056   1.612   0.031
 2585SOL    HW119786   3.062   1.519   0.068
 2585SOL    HW219787   2.997   1.612  -0.049
 2586SOL     OW19788   2.684   1.002   1.372
 2586SOL    HW119789   2.724   1.001   1.280
 2586SOL    HW219790   2.694   1.094   1.412
 2587SOL     OW19791   2.778   0.910   0.291
 2587SOL    HW119792   2.841   0.948   0.223
 2587SOL    HW219793   2.818   0.827   0.330
 2588SOL     OW19794   3.366   1.607   0.044
 2588SOL    HW119795   3.274   1.644   0.051
 2588SOL    HW219796   3.404   1.627  -0.046
 2589SOL     OW19797   2.234   1.288   1.490
 2589SOL    HW119798   2.221   1.381   1.456
 2589SOL    HW219799   2.150   1.236   1.477
 2590SOL     OW19800   3.476   1.292   1.289
 2590SOL    HW119801   3.536   1.295   1.369
 2590SOL    HW219802   3.401   1.356   1.302
 2591SOL     OW19803   2.901   1.098   0.696
 2591SOL    HW119804   2.831   1.051   0.750
 2591SOL    HW219805   2.960   1.030   0.653
 2592SOL     OW19806   2.876   0.236   0.971
 2592SOL    HW119807   2.868   0.200   0.878
 2592SOL    HW219808   2.874   0.160   1.036
 2593SOL     OW19809   2.452   1.487   0.491
 2593SOL    HW119810   2.494   1.429   0.421
 2593SOL    HW219811   2.408   1.566   0.447
 2594SOL     OW19812   3.571   0.385   1.381
 2594SOL    HW119813   3.644   0.454   1.385
 2594SOL    HW219814   3.599   0.310   1.322
 2595SOL     OW19815   2.117   1.348   0.290
 2595SOL    HW119816   2.021   1.349   0.263
 2595SOL    HW219817   2.129   1.401   0.374
 2596SOL     OW19818   2.534   0.203   1.489
 2596SOL    HW119819   2.624   0.187   1.449
 2596SOL    HW219820   2.542   0.208   1.588
 2597SOL     OW19821   3.302   0.856   1.398
 2597SOL    HW119822   3.245   0.908   1.335
 2597SOL    HW219823   3.398   0.868   1.374
 2598SOL     OW19824   1.934   0.166   0.318
 2598SOL    HW119825   1.917   0.249   0.264
 2598SOL    HW219826   2.024   0.129   0.296
 2599SOL     OW19827   3.045   1.335   0.119
 2599SOL    HW119828   2.946   1.324   0.121
 2599SOL    HW219829   3.079   1.350   0.212
 2600SOL     OW19830   2.475   0.842   1.431
 2600SOL    HW119831   2.531   0.923   1.414
 2600SOL    HW219832   2.534   0.762   1.434
 2601SOL     OW19833   3.355   1.767   0.959
 2601SOL    HW119834   3.388   1.831   0.890
 2601SOL    HW219835   3.421   1.761   1.034
 2602SOL     OW19836   2.578   0.565   1.708
 2602SOL    HW119837   2.597   0.630   1.782
 2602SOL    HW219838   2.638   0.485   1.717
 2603SOL     OW19839   3.312   1.220   1.633
 2603SOL    HW119840   3.303   1.210   1.732
 2603SOL    HW219841   3.408   1.213   1.607
 2604SOL     OW19842   3.536   0.883   1.254
 2604SOL    HW119843   3.509   0.794   1.217
 2604SOL    HW219844   3.537   0.951   1.181
 2605SOL     OW19845   3.087   0.325   0.449
 2605SOL    HW119846   3.152   0.251   0.438
 2605SOL    HW219847   3.107   0.375   0.533
 2606SOL     OW19848   2.456   0.745   0.652
 2606SOL    HW119849   2.506   0.830   0.633
 2606SOL    HW219850   2.368   0.747   0.604
 2607SOL     OW19851   3.639   0.342   1.642
 2607SOL    HW119852   3.622   0.373   1.548
 2607SOL    HW219853   3.555   0.305   1.680
 2608SOL     OW19854   2.721   1.374   0.016
 2608SOL    HW119855   2.675   1.389   0.104
 2608SOL    HW219856   2.765   1.459  -0.014
 2609SOL     OW19857   2.523   1.790   0.953
 2609SOL    HW119858   2.477   1.878   0.940
 2609SOL    HW219859   2.622   1.802   0.946
 2610SOL     OW19860   2.721   0.956   0.861
 2610SOL    HW119861   2.775   0.887   0.909
 2610SOL    HW219862   2.689   1.025   0.927
 2611SOL     OW19863   2.945   0.984   0.087
 2611SOL    HW119864   2.922   1.037   0.005
 2611SOL    HW219865   3.026   0.928   0.068
 2612SOL     OW19866   3.723   1.569   0.851
 2612SOL    HW119867   3.652   1.557   0.781
 2612SOL    HW219868   3.724   1.490   0.911
 2613SOL     OW19869   2.083   1.314   1.844
 2613SOL    HW119870   2.018   1.241   1.823
 2613SOL    HW219871   2.087   1.328   1.942
 2614SOL     OW19872   1.941   1.240   0.653
 2614SOL    HW119873   1.940   1.193   0.741
 2614SOL    HW219874   2.023   1.212   0.602
 2615SOL     OW19875   2.534   1.391   1.624
 2615SOL    HW119876   2.456   1.341   1.662
 2615SOL    HW219877   2.531   1.486   1.655
 2616SOL     OW19878   3.686   0.192   1.227
 2616SOL    HW119879   3.682   0.102   1.271
 2616SOL    HW219880   3.689   0.181   1.128
 2617SOL     OW19881   2.290   0.424   0.520
 2617SOL    HW119882   2.320   0.352   0.458
 2617SOL    HW219883   2.251   0.384   0.603
 2618SOL     OW19884   3.567   1.487   1.104
 2618SOL    HW119885   3.474   1.462   1.077
 2618SOL    HW219886   3.593   1.437   1.186
 2619SOL     OW19887   2.179   0.547   1.280
 2619SOL    HW119888   2.217   0.488   1.352
 2619SOL    HW219889   2.219   0.521   1.192
 2620SOL     OW19890   2.674   1.586   0.687
 2620SOL    HW119891   2.706   1.596   0.593
 2620SOL    HW219892   2.595   1.524   0.689
 2621SOL     OW19893   3.286   0.214   1.112
 2621SOL    HW119894   3.338   0.149   1.167
 2621SOL    HW219895   3.237   0.277   1.173
 2622SOL     OW19896   2.863   0.034   1.154
 2622SOL    HW119897   2.800  -0.038   1.123
 2622SOL    HW219898   2.956  -0.002   1.154
 2623SOL     OW19899   2.632   1.330   0.301
 2623SOL    HW119900   2.586   1.243   0.318
 2623SOL    HW219901   2.723   1.327   0.342
 2624SOL     OW19902   2.480   1.567   1.284
 2624SOL    HW119903   2.475   1.649   1.341
 2624SOL    HW219904   2.569   1.564   1.239
 2625SOL     OW19905   3.214   0.052   0.168
 2625SOL    HW119906   3.249   0.011   0.084
 2625SOL    HW219907   3.124   0.014   0.188
 2626SOL     OW19908   3.162   0.453   0.691
 2626SOL    HW119909   3.103   0.533   0.695
 2626SOL    HW219910   3.177   0.418   0.784
 2627SOL     OW19911   3.455   0.221   0.882
 2627SOL    HW119912   3.371   0.220   0.936
 2627SOL    HW219913   3.457   0.304   0.826
 2628SOL     OW19914   1.901   1.077   0.300
 2628SOL    HW119915   2.000   1.066   0.291
 2628SOL    HW219916   1.861   0.991   0.332
 2629SOL     OW19917   2.737   1.646   0.337
 2629SOL    HW119918   2.660   1.611   0.283
 2629SOL    HW219919   2.705   1.717   0.399
 2630SOL     OW19920   2.087   0.275   2.858
 2630SOL    HW119921   2.122   0.258   2.950
 2630SOL    HW219922   1.999   0.230   2.846
 2631SOL     OW19923   3.417   1.511   2.565
 2631SOL    HW119924   3.360   1.495   2.646
 2631SOL    HW219925   3.358   1.521   2.485
 2632SOL     OW19926   2.547   1.012   2.527
 2632SOL    HW119927   2.616   0.996   2.597
 2632SOL    HW219928   2.474   1.069   2.565
 2633SOL     OW19929   2.548   1.161   3.665
 2633SOL    HW119930   2.608   1.240   3.679
 2633SOL    HW219931   2.462   1.192   3.624
 2634SOL     OW19932   2.197   1.435   2.923
 2634SOL    HW119933   2.119   1.404   2.870
 2634SOL    HW219934   2.255   1.493   2.866
 2635SOL     OW19935   2.989   1.341   3.552
 2635SOL    HW119936   3.036   1.341   3.640
 2635SOL    HW219937   2.941   1.254   3.541
 2636SOL     OW19938   2.092   1.434   2.400
 2636SOL    HW119939   2.066   1.530   2.400
 2636SOL    HW219940   2.021   1.380   2.445
 2637SOL     OW19941   3.551   0.922   2.474
 2637SOL    HW119942   3.646   0.893   2.482
 2637SOL    HW219943   3.543   0.987   2.399
 2638SOL     OW19944   3.503   1.108   2.294
 2638SOL    HW119945   3.589   1.110   2.242
 2638SOL    HW219946   3.517   1.155   2.382
 2639SOL     OW19947   3.387   0.999   2.052
 2639SOL    HW119948   3.324   0.923   2.065
 2639SOL    HW219949   3.435   1.017   2.138
 2640SOL     OW19950   3.049   1.792   3.478
 2640SOL    HW119951   3.073   1.852   3.402
 2640SOL    HW219952   3.056   1.697   3.448
 2641SOL     OW19953   2.179   0.251   3.663
 2641SOL    HW119954   2.250   0.322   3.669
 2641SOL    HW219955   2.091   0.290   3.691
 2642SOL     OW19956   2.669   0.605   3.327
 2642SOL    HW119957   2.622   0.602   3.416
 2642SOL    HW219958   2.618   0.550   3.261
 2643SOL     OW19959   2.853   0.410   3.104
 2643SOL    HW119960   2.776   0.444   3.158
 2643SOL    HW219961   2.819   0.359   3.025
 2644SOL     OW19962   1.992   1.821   3.433
 2644SOL    HW119963   1.982   1.806   3.532
 2644SOL    HW219964   1.906   1.857   3.397
 2645SOL     OW19965   3.581   0.585   3.693
 2645SOL    HW119966   3.555   0.674   3.657
 2645SOL    HW219967   3.579   0.517   3.620
 2646SOL     OW19968   3.224   1.144   2.407
 2646SOL    HW119969   3.307   1.115   2.359
 2646SOL    HW219970   3.175   1.211   2.351
 2647SOL     OW19971   3.089   1.550   3.368
 2647SOL    HW119972   3.095   1.473   3.432
 2647SOL    HW219973   3.037   1.524   3.288
 2648SOL     OW19974   3.320   0.735   2.590
 2648SOL    HW119975   3.315   0.670   2.665
 2648SOL    HW219976   3.400   0.794   2.603
 2649SOL     OW19977   2.973   1.776   2.099
 2649SOL    HW119978   2.913   1.714   2.149
 2649SOL    HW219979   3.004   1.732   2.014
 2650SOL     OW19980   3.494   1.377   1.943
 2650SOL    HW119981   3.462   1.471   1.933
 2650SOL    HW219982   3.418   1.314   1.931
 2651SOL     OW19983   2.111   1.785   3.103
 2651SOL    HW119984   2.168   1.720   3.153
 2651SOL    HW219985   2.095   1.752   3.010
 2652SOL     OW19986   3.409   0.222   3.591
 2652SOL    HW119987   3.404   0.259   3.683
 2652SOL    HW219988   3.337   0.153   3.579
 2653SOL     OW19989   2.476   0.122   1.979
 2653SOL    HW119990   2.574   0.100   1.986
 2653SOL    HW219991   2.445   0.105   1.886
 2654SOL     OW19992   3.213   0.590   3.295
 2654SOL    HW119993   3.241   0.547   3.380
 2654SOL    HW219994   3.238   0.686   3.296
 2655SOL     OW19995   2.665   1.402   2.786
 2655SOL    HW119996   2.755   1.416   2.744
 2655SOL    HW219997   2.594   1.404   2.715
 2656SOL     OW19998   2.784   0.503   2.761
 2656SOL    HW119999   2.759   0.494   2.665
 2656SOL    HW220000   2.832   0.421   2.792
 2657SOL     OW20001   3.296   1.188   1.903
 2657SOL    HW120002   3.328   1.112   1.960
 2657SOL    HW220003   3.204   1.215   1.933
 2658SOL     OW20004   2.938   0.683   3.326
 2658SOL    HW120005   2.858   0.622   3.329
 2658SOL    HW220006   3.019   0.630   3.302
 2659SOL     OW20007   3.089   1.570   2.655
 2659SOL    HW120008   3.110   1.644   2.590
 2659SOL    HW220009   3.157   1.570   2.728
 2660SOL     OW20010   3.133   1.797   2.453
 2660SOL    HW120011   3.177   1.861   2.389
 2660SOL    HW220012   3.083   1.849   2.523
 2661SOL     OW20013   2.894   0.549   1.878
 2661SOL    HW120014   2.853   0.631   1.839
 2661SOL    HW220015   2.958   0.575   1.951
 2662SOL     OW20016   2.423   0.222   3.009
 2662SOL    HW120017   2.461   0.138   3.046
 2662SOL    HW220018   2.335   0.241   3.053
 2663SOL     OW20019   2.389   0.256   2.190
 2663SOL    HW120020   2.416   0.197   2.115
 2663SOL    HW220021   2.389   0.351   2.159
 2664SOL     OW20022   3.500   1.099   2.941
 2664SOL    HW120023   3.505   1.180   3.000
 2664SOL    HW220024   3.414   1.101   2.890
 2665SOL     OW20025   2.842   1.116   3.581
 2665SOL    HW120026   2.743   1.122   3.591
 2665SOL    HW220027   2.865   1.036   3.525
 2666SOL     OW20028   2.567   1.050   2.230
 2666SOL    HW120029   2.553   1.057   2.329
 2666SOL    HW220030   2.651   0.999   2.212
 2667SOL     OW20031   2.272   0.813   3.113
 2667SOL    HW120032   2.358   0.825   3.163
 2667SOL    HW220033   2.230   0.726   3.140
 2668SOL     OW20034   2.229   1.100   2.363
 2668SOL    HW120035   2.222   1.183   2.307
 2668SOL    HW220036   2.233   1.020   2.303
 2669SOL     OW20037   3.114   1.348   2.250
 2669SOL    HW120038   3.164   1.425   2.290
 2669SOL    HW220039   3.019   1.350   2.282
 2670SOL     OW20040   3.444   0.639   2.334
 2670SOL    HW120041   3.413   0.700   2.407
 2670SOL    HW220042   3.494   0.691   2.265
 2671SOL     OW20043   2.875   0.105   3.632
 2671SOL    HW120044   2.881   0.190   3.580
 2671SOL    HW220045   2.907   0.029   3.575
 2672SOL     OW20046   2.366   0.050   3.602
 2672SOL    HW120047   2.324  -0.007   3.532
 2672SOL    HW220048   2.300   0.119   3.634
 2673SOL     OW20049   3.071   0.525   2.137
 2673SOL    HW120050   3.084   0.441   2.191
 2673SOL    HW220051   3.042   0.599   2.197
 2674SOL     OW20052   3.721   1.518   3.467
 2674SOL    HW120053   3.735   1.545   3.372
 2674SOL    HW220054   3.804   1.540   3.520
 2675SOL     OW20055   3.165   0.838   1.904
 2675SOL    HW120056   3.199   0.745   1.919
 2675SOL    HW220057   3.183   0.865   1.809
 2676SOL     OW20058   2.930   1.333   2.711
 2676SOL    HW120059   2.937   1.249   2.656
 2676SOL    HW220060   2.992   1.402   2.675
 2677SOL     OW20061   3.519   0.604   3.068
 2677SOL    HW120062   3.481   0.535   3.130
 2677SOL    HW220063   3.601   0.568   3.024
 2678SOL     OW20064   2.533   0.464   3.131
 2678SOL    HW120065   2.499   0.375   3.101
 2678SOL    HW220066   2.559   0.518   3.051
 2679SOL     OW20067   2.335   0.500   2.053
 2679SOL    HW120068   2.396   0.580   2.057
 2679SOL    HW220069   2.240   0.531   2.060
 2680SOL     OW20070   3.209   1.059   3.096
 2680SOL    HW120071   3.233   0.996   3.022
 2680SOL    HW220072   3.119   1.099   3.078
 2681SOL     OW20073   3.164   0.855   2.171
 2681SOL    HW120074   3.078   0.824   2.213
 2681SOL    HW220075   3.160   0.841   2.072
 2682SOL     OW20076   2.550   1.662   3.578
 2682SOL    HW120077   2.494   1.743   3.587
 2682SOL    HW220078   2.602   1.666   3.492
 2683SOL     OW20079   3.142   0.927   2.534
 2683SOL    HW120080   3.202   0.846   2.536
 2683SOL    HW220081   3.182   0.996   2.474
 2684SOL     OW20082   3.056   1.612   1.893
 2684SOL    HW120083   3.062   1.519   1.930
 2684SOL    HW220084   2.997   1.612   1.813
 2685SOL     OW20085   2.778   0.910   2.153
 2685SOL    HW120086   2.841   0.948   2.085
 2685SOL    HW220087   2.818   0.827   2.192
 2686SOL     OW20088   3.366   1.607   1.906
 2686SOL    HW120089   3.274   1.644   1.913
 2686SOL    HW220090   3.404   1.627   1.816
 2687SOL     OW20091   2.901   1.098   2.558
 2687SOL    HW120092   2.831   1.051   2.612
 2687SOL    HW220093   2.960   1.030   2.515
 2688SOL     OW20094   2.117   1.348   2.152
 2688SOL    HW120095   2.021   1.349   2.125
 2688SOL    HW220096   2.129   1.401   2.236
 2689SOL     OW20097   1.967   1.013   3.588
 2689SOL    HW120098   1.890   0.980   3.642
 2689SOL    HW220099   2.052   0.983   3.630
 2690SOL     OW20100   1.937   0.345   1.895
 2690SOL    HW120101   1.845   0.317   1.866
 2690SOL    HW220102   1.968   0.422   1.839
 2691SOL     OW20103   1.934   0.166   2.180
 2691SOL    HW120104   1.917   0.249   2.126
 2691SOL    HW220105   2.024   0.129   2.158
 2692SOL     OW20106   3.045   1.335   1.981
 2692SOL    HW120107   2.946   1.324   1.983
 2692SOL    HW220108   3.079   1.350   2.074
 2693SOL     OW20109   2.578   0.565   3.570
 2693SOL    HW120110   2.597   0.630   3.644
 2693SOL    HW220111   2.638   0.485   3.579
 2694SOL     OW20112   3.536   0.883   3.116
 2694SOL    HW120113   3.509   0.794   3.079
 2694SOL    HW220114   3.537   0.951   3.043
 2695SOL     OW20115   2.456   0.745   2.514
 2695SOL    HW120116   2.506   0.830   2.495
 2695SOL    HW220117   2.368   0.747   2.466
 2696SOL     OW20118   2.721   1.374   1.878
 2696SOL    HW120119   2.675   1.389   1.966
 2696SOL    HW220120   2.765   1.459   1.848
 2697SOL     OW20121   2.523   1.790   2.815
 2697SOL    HW120122   2.477   1.878   2.802
 2697SOL    HW220123   2.622   1.802   2.808
 2698SOL     OW20124   2.945   0.984   1.949
 2698SOL    HW120125   2.922   1.037   1.867
 2698SOL    HW220126   3.026   0.928   1.930
 2699SOL     OW20127   2.290   0.424   2.382
 2699SOL    HW120128   2.320   0.352   2.320
 2699SOL    HW220129   2.251   0.384   2.465
 2700SOL     OW20130   2.674   1.586   2.549
 2700SOL    HW120131   2.706   1.596   2.455
 2700SOL    HW220132   2.595   1.524   2.551
 2701SOL     OW20133   2.087   0.275   4.720
 2701SOL    HW120134   2.122   0.258   4.812
 2701SOL    HW220135   1.999   0.230   4.708
 2702SOL     OW20136   3.417   1.511   4.427
 2702SOL    HW120137   3.360   1.495   4.508
 2702SOL    HW220138   3.358   1.521   4.347
 2703SOL     OW20139   3.617   0.607   3.955
 2703SOL    HW120140   3.605   0.594   3.856
 2703SOL    HW220141   3.587   0.526   4.004
 2704SOL     OW20142   2.197   1.435   4.785
 2704SOL    HW120143   2.119   1.404   4.732
 2704SOL    HW220144   2.255   1.493   4.728
 2705SOL     OW20145   2.300   0.392   5.223
 2705SOL    HW120146   2.382   0.336   5.232
 2705SOL    HW220147   2.219   0.334   5.227
 2706SOL     OW20148   2.989   1.341   5.414
 2706SOL    HW120149   3.036   1.341   5.502
 2706SOL    HW220150   2.941   1.254   5.403
 2707SOL     OW20151   2.092   1.434   4.262
 2707SOL    HW120152   2.066   1.530   4.262
 2707SOL    HW220153   2.021   1.380   4.307
 2708SOL     OW20154   1.975   0.737   5.321
 2708SOL    HW120155   2.063   0.724   5.366
 2708SOL    HW220156   1.962   0.834   5.299
 2709SOL     OW20157   2.179   0.251   5.525
 2709SOL    HW120158   2.250   0.322   5.531
 2709SOL    HW220159   2.091   0.290   5.553
 2710SOL     OW20160   3.256   0.469   5.398
 2710SOL    HW120161   3.236   0.512   5.486
 2710SOL    HW220162   3.334   0.407   5.407
 2711SOL     OW20163   2.853   0.410   4.966
 2711SOL    HW120164   2.776   0.444   5.020
 2711SOL    HW220165   2.819   0.359   4.887
 2712SOL     OW20166   2.903   0.701   4.153
 2712SOL    HW120167   2.929   0.697   4.249
 2712SOL    HW220168   2.818   0.650   4.139
 2713SOL     OW20169   2.727   0.348   3.919
 2713SOL    HW120170   2.786   0.411   3.870
 2713SOL    HW220171   2.746   0.254   3.890
 2714SOL     OW20172   3.224   1.144   4.269
 2714SOL    HW120173   3.307   1.115   4.221
 2714SOL    HW220174   3.175   1.211   4.213
 2715SOL     OW20175   2.213   1.801   4.577
 2715SOL    HW120176   2.263   1.715   4.583
 2715SOL    HW220177   2.278   1.878   4.574
 2716SOL     OW20178   3.657   1.066   4.597
 2716SOL    HW120179   3.595   1.051   4.521
 2716SOL    HW220180   3.605   1.077   4.682
 2717SOL     OW20181   2.183   0.943   3.966
 2717SOL    HW120182   2.265   0.982   3.924
 2717SOL    HW220183   2.156   0.861   3.917
 2718SOL     OW20184   2.323   1.266   5.451
 2718SOL    HW120185   2.273   1.267   5.365
 2718SOL    HW220186   2.260   1.248   5.527
 2719SOL     OW20187   2.326   1.743   4.047
 2719SOL    HW120188   2.359   1.782   4.133
 2719SOL    HW220189   2.402   1.736   3.982
 2720SOL     OW20190   3.262   0.107   4.150
 2720SOL    HW120191   3.238   0.070   4.060
 2720SOL    HW220192   3.361   0.123   4.154
 2721SOL     OW20193   2.111   1.785   4.965
 2721SOL    HW120194   2.168   1.720   5.015
 2721SOL    HW220195   2.095   1.752   4.872
 2722SOL     OW20196   3.409   0.222   5.453
 2722SOL    HW120197   3.404   0.259   5.545
 2722SOL    HW220198   3.337   0.153   5.441
 2723SOL     OW20199   2.643   0.264   5.473
 2723SOL    HW120200   2.710   0.203   5.516
 2723SOL    HW220201   2.570   0.283   5.538
 2724SOL     OW20202   3.213   0.590   5.157
 2724SOL    HW120203   3.241   0.547   5.242
 2724SOL    HW220204   3.238   0.686   5.158
 2725SOL     OW20205   2.159   0.035   3.895
 2725SOL    HW120206   2.208   0.119   3.874
 2725SOL    HW220207   2.221  -0.030   3.940
 2726SOL     OW20208   2.797   0.236   4.204
 2726SOL    HW120209   2.749   0.277   4.126
 2726SOL    HW220210   2.896   0.234   4.185
 2727SOL     OW20211   2.938   0.683   5.188
 2727SOL    HW120212   2.858   0.622   5.191
 2727SOL    HW220213   3.019   0.630   5.164
 2728SOL     OW20214   2.321   1.152   4.465
 2728SOL    HW120215   2.250   1.125   4.530
 2728SOL    HW220216   2.295   1.124   4.372
 2729SOL     OW20217   2.423   0.222   4.871
 2729SOL    HW120218   2.461   0.138   4.908
 2729SOL    HW220219   2.335   0.241   4.915
 2730SOL     OW20220   3.719   0.833   4.101
 2730SOL    HW120221   3.761   0.769   4.165
 2730SOL    HW220222   3.681   0.782   4.023
 2731SOL     OW20223   3.526   1.280   4.381
 2731SOL    HW120224   3.625   1.288   4.395
 2731SOL    HW220225   3.481   1.364   4.412
 2732SOL     OW20226   2.973   1.195   4.824
 2732SOL    HW120227   2.933   1.239   4.905
 2732SOL    HW220228   2.932   1.232   4.741
 2733SOL     OW20229   2.842   1.116   5.443
 2733SOL    HW120230   2.743   1.122   5.453
 2733SOL    HW220231   2.865   1.036   5.387
 2734SOL     OW20232   2.272   0.813   4.975
 2734SOL    HW120233   2.358   0.825   5.025
 2734SOL    HW220234   2.230   0.726   5.002
 2735SOL     OW20235   3.136   0.386   4.986
 2735SOL    HW120236   3.157   0.460   5.050
 2735SOL    HW220237   3.047   0.403   4.943
 2736SOL     OW20238   1.926   1.564   5.055
 2736SOL    HW120239   1.880   1.646   5.021
 2736SOL    HW220240   2.024   1.583   5.064
 2737SOL     OW20241   2.428   0.537   4.589
 2737SOL    HW120242   2.440   0.603   4.515
 2737SOL    HW220243   2.474   0.571   4.672
 2738SOL     OW20244   3.114   1.348   4.112
 2738SOL    HW120245   3.164   1.425   4.152
 2738SOL    HW220246   3.019   1.350   4.144
 2739SOL     OW20247   3.449   0.779   5.394
 2739SOL    HW120248   3.357   0.817   5.389
 2739SOL    HW220249   3.509   0.826   5.329
 2740SOL     OW20250   2.875   0.105   5.494
 2740SOL    HW120251   2.881   0.190   5.442
 2740SOL    HW220252   2.907   0.029   5.437
 2741SOL     OW20253   2.366   0.050   5.464
 2741SOL    HW120254   2.324  -0.007   5.394
 2741SOL    HW220255   2.300   0.119   5.496
 2742SOL     OW20256   2.435   0.870   4.753
 2742SOL    HW120257   2.479   0.959   4.744
 2742SOL    HW220258   2.372   0.870   4.830
 2743SOL     OW20259   3.222   0.862   4.769
 2743SOL    HW120260   3.147   0.862   4.703
 2743SOL    HW220261   3.259   0.770   4.778
 2744SOL     OW20262   2.169   0.213   4.955
 2744SOL    HW120263   2.146   0.250   5.045
 2744SOL    HW220264   2.139   0.118   4.949
 2745SOL     OW20265   1.899   1.310   5.006
 2745SOL    HW120266   1.952   1.261   5.074
 2745SOL    HW220267   1.921   1.408   5.011
 2746SOL     OW20268   3.590   0.935   5.578
 2746SOL    HW120269   3.544   0.928   5.489
 2746SOL    HW220270   3.528   0.979   5.644
 2747SOL     OW20271   2.169   0.063   4.342
 2747SOL    HW120272   2.158   0.157   4.375
 2747SOL    HW220273   2.164   0.000   4.419
 2748SOL     OW20274   2.181   0.810   4.673
 2748SOL    HW120275   2.274   0.846   4.678
 2748SOL    HW220276   2.175   0.725   4.725
 2749SOL     OW20277   3.000   0.380   5.402
 2749SOL    HW120278   2.955   0.443   5.466
 2749SOL    HW220279   3.093   0.411   5.385
 2750SOL     OW20280   2.366   1.568   4.634
 2750SOL    HW120281   2.432   1.642   4.643
 2750SOL    HW220282   2.410   1.489   4.592
 2751SOL     OW20283   2.051   0.520   5.446
 2751SOL    HW120284   2.110   0.480   5.376
 2751SOL    HW220285   1.993   0.591   5.405
 2752SOL     OW20286   3.231   0.950   5.384
 2752SOL    HW120287   3.270   1.039   5.404
 2752SOL    HW220288   3.241   0.930   5.287
 2753SOL     OW20289   2.114   1.564   5.468
 2753SOL    HW120290   2.084   1.621   5.544
 2753SOL    HW220291   2.107   1.467   5.494
 2754SOL     OW20292   2.533   0.464   4.993
 2754SOL    HW120293   2.499   0.375   4.963
 2754SOL    HW220294   2.559   0.518   4.913
 2755SOL     OW20295   2.792   1.678   5.189
 2755SOL    HW120296   2.768   1.660   5.094
 2755SOL    HW220297   2.822   1.772   5.199
 2756SOL     OW20298   2.335   0.500   3.915
 2756SOL    HW120299   2.396   0.580   3.919
 2756SOL    HW220300   2.240   0.531   3.922
 2757SOL     OW20301   3.142   0.927   4.396
 2757SOL    HW120302   3.202   0.846   4.398
 2757SOL    HW220303   3.182   0.996   4.336
 2758SOL     OW20304   2.534   1.616   3.878
 2758SOL    HW120305   2.543   1.626   3.779
 2758SOL    HW220306   2.494   1.527   3.899
 2759SOL     OW20307   3.476   1.292   5.013
 2759SOL    HW120308   3.536   1.295   5.093
 2759SOL    HW220309   3.401   1.356   5.026
 2760SOL     OW20310   2.901   1.098   4.420
 2760SOL    HW120311   2.831   1.051   4.474
 2760SOL    HW220312   2.960   1.030   4.377
 2761SOL     OW20313   2.452   1.487   4.215
 2761SOL    HW120314   2.494   1.429   4.145
 2761SOL    HW220315   2.408   1.566   4.171
 2762SOL     OW20316   1.937   0.345   3.757
 2762SOL    HW120317   1.845   0.317   3.728
 2762SOL    HW220318   1.968   0.422   3.701
 2763SOL     OW20319   1.934   0.166   4.042
 2763SOL    HW120320   1.917   0.249   3.988
 2763SOL    HW220321   2.024   0.129   4.020
 2764SOL     OW20322   3.045   1.335   3.843
 2764SOL    HW120323   2.946   1.324   3.845
 2764SOL    HW220324   3.079   1.350   3.936
 2765SOL     OW20325   2.578   0.565   5.432
 2765SOL    HW120326   2.597   0.630   5.506
 2765SOL    HW220327   2.638   0.485   5.441
 2766SOL     OW20328   3.087   0.325   4.173
 2766SOL    HW120329   3.152   0.251   4.162
 2766SOL    HW220330   3.107   0.375   4.257
 2767SOL     OW20331   3.592   0.934   5.241
 2767SOL    HW120332   3.630   1.025   5.256
 2767SOL    HW220333   3.584   0.917   5.142
 2768SOL     OW20334   2.721   0.956   4.585
 2768SOL    HW120335   2.775   0.887   4.633
 2768SOL    HW220336   2.689   1.025   4.651
 2769SOL     OW20337   2.945   0.984   3.811
 2769SOL    HW120338   2.922   1.037   3.729
 2769SOL    HW220339   3.026   0.928   3.792
 2770SOL     OW20340   3.723   1.569   4.575
 2770SOL    HW120341   3.652   1.557   4.505
 2770SOL    HW220342   3.724   1.490   4.635
 2771SOL     OW20343   3.214   0.052   3.892
 2771SOL    HW120344   3.249   0.011   3.808
 2771SOL    HW220345   3.124   0.014   3.912
 2772SOL     OW20346   2.092   0.628   5.699
 2772SOL    HW120347   1.999   0.626   5.736
 2772SOL    HW220348   2.093   0.589   5.607
 2773SOL     OW20349   2.087   0.275   6.582
 2773SOL    HW120350   2.122   0.258   6.674
 2773SOL    HW220351   1.999   0.230   6.570
 2774SOL     OW20352   1.881   0.368   6.233
 2774SOL    HW120353   1.799   0.411   6.272
 2774SOL    HW220354   1.853   0.295   6.170
 2775SOL     OW20355   2.431   1.275   6.751
 2775SOL    HW120356   2.338   1.268   6.714
 2775SOL    HW220357   2.442   1.364   6.795
 2776SOL     OW20358   3.417   1.511   6.289
 2776SOL    HW120359   3.360   1.495   6.370
 2776SOL    HW220360   3.358   1.521   6.209
 2777SOL     OW20361   2.997   0.703   6.303
 2777SOL    HW120362   3.054   0.781   6.278
 2777SOL    HW220363   2.937   0.729   6.379
 2778SOL     OW20364   3.617   0.607   5.817
 2778SOL    HW120365   3.605   0.594   5.718
 2778SOL    HW220366   3.587   0.526   5.866
 2779SOL     OW20367   2.630   1.144   6.609
 2779SOL    HW120368   2.552   1.161   6.669
 2779SOL    HW220369   2.664   1.231   6.573
 2780SOL     OW20370   2.547   1.012   6.251
 2780SOL    HW120371   2.616   0.996   6.321
 2780SOL    HW220372   2.474   1.069   6.289
 2781SOL     OW20373   2.197   1.435   6.647
 2781SOL    HW120374   2.119   1.404   6.594
 2781SOL    HW220375   2.255   1.493   6.590
 2782SOL     OW20376   3.322   1.505   6.925
 2782SOL    HW120377   3.346   1.599   6.951
 2782SOL    HW220378   3.306   1.451   7.007
 2783SOL     OW20379   2.300   0.392   7.085
 2783SOL    HW120380   2.382   0.336   7.094
 2783SOL    HW220381   2.219   0.334   7.089
 2784SOL     OW20382   3.465   0.447   6.323
 2784SOL    HW120383   3.391   0.493   6.273
 2784SOL    HW220384   3.516   0.515   6.376
 2785SOL     OW20385   2.093   1.713   6.069
 2785SOL    HW120386   2.127   1.790   6.123
 2785SOL    HW220387   2.137   1.713   5.979
 2786SOL     OW20388   2.092   1.434   6.124
 2786SOL    HW120389   2.066   1.530   6.124
 2786SOL    HW220390   2.021   1.380   6.169
 2787SOL     OW20391   2.102   1.091   6.472
 2787SOL    HW120392   2.116   1.007   6.524
 2787SOL    HW220393   2.047   1.155   6.527
 2788SOL     OW20394   2.482   1.786   7.025
 2788SOL    HW120395   2.390   1.769   7.060
 2788SOL    HW220396   2.510   1.878   7.051
 2789SOL     OW20397   3.456   0.114   7.066
 2789SOL    HW120398   3.438   0.181   6.994
 2789SOL    HW220399   3.453   0.160   7.155
 2790SOL     OW20400   1.984   0.643   6.149
 2790SOL    HW120401   1.939   0.555   6.166
 2790SOL    HW220402   1.983   0.697   6.233
 2791SOL     OW20403   3.704   1.767   5.945
 2791SOL    HW120404   3.758   1.738   6.025
 2791SOL    HW220405   3.734   1.857   5.916
 2792SOL     OW20406   1.889   1.596   5.703
 2792SOL    HW120407   1.870   1.500   5.724
 2792SOL    HW220408   1.856   1.654   5.778
 2793SOL     OW20409   3.551   0.922   6.198
 2793SOL    HW120410   3.646   0.893   6.206
 2793SOL    HW220411   3.543   0.987   6.123
 2794SOL     OW20412   3.503   1.108   6.018
 2794SOL    HW120413   3.589   1.110   5.966
 2794SOL    HW220414   3.517   1.155   6.106
 2795SOL     OW20415   2.475   1.365   6.312
 2795SOL    HW120416   2.426   1.278   6.321
 2795SOL    HW220417   2.452   1.408   6.225
 2796SOL     OW20418   2.671   0.004   6.088
 2796SOL    HW120419   2.711   0.095   6.079
 2796SOL    HW220420   2.571   0.012   6.094
 2797SOL     OW20421   2.059   0.976   6.850
 2797SOL    HW120422   2.148   0.931   6.836
 2797SOL    HW220423   1.986   0.911   6.831
 2798SOL     OW20424   3.328   1.417   6.539
 2798SOL    HW120425   3.269   1.423   6.619
 2798SOL    HW220426   3.313   1.329   6.493
 2799SOL     OW20427   3.529   1.714   6.158
 2799SOL    HW120428   3.488   1.691   6.070
 2799SOL    HW220429   3.511   1.640   6.223
 2800SOL     OW20430   2.460   0.729   5.856
 2800SOL    HW120431   2.484   0.798   5.788
 2800SOL    HW220432   2.382   0.762   5.910
 2801SOL     OW20433   3.143   0.345   6.530
 2801SOL    HW120434   3.057   0.295   6.517
 2801SOL    HW220435   3.205   0.291   6.586
 2802SOL     OW20436   3.438   1.662   5.893
 2802SOL    HW120437   3.527   1.708   5.896
 2802SOL    HW220438   3.417   1.638   5.798
 2803SOL     OW20439   2.669   0.605   7.051
 2803SOL    HW120440   2.622   0.602   7.140
 2803SOL    HW220441   2.618   0.550   6.985
 2804SOL     OW20442   2.853   0.410   6.828
 2804SOL    HW120443   2.776   0.444   6.882
 2804SOL    HW220444   2.819   0.359   6.749
 2805SOL     OW20445   2.903   0.701   6.015
 2805SOL    HW120446   2.929   0.697   6.111
 2805SOL    HW220447   2.818   0.650   6.001
 2806SOL     OW20448   1.938   0.811   6.375
 2806SOL    HW120449   2.037   0.799   6.384
 2806SOL    HW220450   1.914   0.906   6.396
 2807SOL     OW20451   1.992   1.821   7.157
 2807SOL    HW120452   1.982   1.806   7.256
 2807SOL    HW220453   1.906   1.857   7.121
 2808SOL     OW20454   2.727   0.348   5.781
 2808SOL    HW120455   2.786   0.411   5.732
 2808SOL    HW220456   2.746   0.254   5.752
 2809SOL     OW20457   3.224   1.144   6.131
 2809SOL    HW120458   3.307   1.115   6.083
 2809SOL    HW220459   3.175   1.211   6.075
 2810SOL     OW20460   2.412   0.196   6.471
 2810SOL    HW120461   2.407   0.191   6.571
 2810SOL    HW220462   2.414   0.292   6.442
 2811SOL     OW20463   2.870   1.456   6.063
 2811SOL    HW120464   2.824   1.528   6.011
 2811SOL    HW220465   2.866   1.476   6.161
 2812SOL     OW20466   2.213   1.801   6.439
 2812SOL    HW120467   2.263   1.715   6.445
 2812SOL    HW220468   2.278   1.878   6.436
 2813SOL     OW20469   3.657   1.066   6.459
 2813SOL    HW120470   3.595   1.051   6.383
 2813SOL    HW220471   3.605   1.077   6.544
 2814SOL     OW20472   2.183   0.943   5.828
 2814SOL    HW120473   2.265   0.982   5.786
 2814SOL    HW220474   2.156   0.861   5.779
 2815SOL     OW20475   3.320   0.735   6.314
 2815SOL    HW120476   3.315   0.670   6.389
 2815SOL    HW220477   3.400   0.794   6.327
 2816SOL     OW20478   2.064   0.285   7.084
 2816SOL    HW120479   1.984   0.345   7.071
 2816SOL    HW220480   2.054   0.236   7.170
 2817SOL     OW20481   2.326   1.743   5.909
 2817SOL    HW120482   2.359   1.782   5.995
 2817SOL    HW220483   2.402   1.736   5.844
 2818SOL     OW20484   3.262   0.107   6.012
 2818SOL    HW120485   3.238   0.070   5.922
 2818SOL    HW220486   3.361   0.123   6.016
 2819SOL     OW20487   2.111   1.785   6.827
 2819SOL    HW120488   2.168   1.720   6.877
 2819SOL    HW220489   2.095   1.752   6.734
 2820SOL     OW20490   2.802   1.698   6.490
 2820SOL    HW120491   2.882   1.641   6.511
 2820SOL    HW220492   2.753   1.658   6.413
 2821SOL     OW20493   2.244   0.700   6.066
 2821SOL    HW120494   2.289   0.610   6.063
 2821SOL    HW220495   2.150   0.689   6.099
 2822SOL     OW20496   2.476   0.122   5.703
 2822SOL    HW120497   2.574   0.100   5.710
 2822SOL    HW220498   2.445   0.105   5.610
 2823SOL     OW20499   2.750   1.514   6.781
 2823SOL    HW120500   2.727   1.489   6.687
 2823SOL    HW220501   2.811   1.445   6.820
 2824SOL     OW20502   2.665   1.402   6.510
 2824SOL    HW120503   2.755   1.416   6.468
 2824SOL    HW220504   2.594   1.404   6.439
 2825SOL     OW20505   2.784   0.503   6.485
 2825SOL    HW120506   2.759   0.494   6.389
 2825SOL    HW220507   2.832   0.421   6.516
 2826SOL     OW20508   2.401   0.064   6.098
 2826SOL    HW120509   2.320   0.065   6.156
 2826SOL    HW220510   2.404   0.147   6.043
 2827SOL     OW20511   2.159   0.035   5.757
 2827SOL    HW120512   2.208   0.119   5.736
 2827SOL    HW220513   2.221  -0.030   5.802
 2828SOL     OW20514   2.797   0.236   6.066
 2828SOL    HW120515   2.749   0.277   5.988
 2828SOL    HW220516   2.896   0.234   6.047
 2829SOL     OW20517   3.089   1.570   6.379
 2829SOL    HW120518   3.110   1.644   6.314
 2829SOL    HW220519   3.157   1.570   6.452
 2830SOL     OW20520   2.321   1.152   6.327
 2830SOL    HW120521   2.250   1.125   6.392
 2830SOL    HW220522   2.295   1.124   6.234
 2831SOL     OW20523   1.940   0.556   6.972
 2831SOL    HW120524   2.032   0.555   6.931
 2831SOL    HW220525   1.934   0.630   7.039
 2832SOL     OW20526   2.423   0.222   6.733
 2832SOL    HW120527   2.461   0.138   6.770
 2832SOL    HW220528   2.335   0.241   6.777
 2833SOL     OW20529   2.728   0.454   6.228
 2833SOL    HW120530   2.696   0.526   6.166
 2833SOL    HW220531   2.752   0.373   6.175
 2834SOL     OW20532   2.879   0.039   6.339
 2834SOL    HW120533   2.807   0.044   6.270
 2834SOL    HW220534   2.855  -0.030   6.408
 2835SOL     OW20535   3.291   1.173   6.453
 2835SOL    HW120536   3.236   1.089   6.446
 2835SOL    HW220537   3.317   1.202   6.361
 2836SOL     OW20538   3.328   0.590   6.578
 2836SOL    HW120539   3.298   0.495   6.585
 2836SOL    HW220540   3.401   0.606   6.644
 2837SOL     OW20541   3.719   0.833   5.963
 2837SOL    HW120542   3.761   0.769   6.027
 2837SOL    HW220543   3.681   0.782   5.885
 2838SOL     OW20544   2.350   1.385   5.760
 2838SOL    HW120545   2.263   1.370   5.807
 2838SOL    HW220546   2.333   1.411   5.665
 2839SOL     OW20547   3.526   1.280   6.243
 2839SOL    HW120548   3.625   1.288   6.257
 2839SOL    HW220549   3.481   1.364   6.274
 2840SOL     OW20550   3.252   0.575   5.664
 2840SOL    HW120551   3.198   0.554   5.745
 2840SOL    HW220552   3.343   0.534   5.673
 2841SOL     OW20553   2.389   0.256   5.914
 2841SOL    HW120554   2.416   0.197   5.839
 2841SOL    HW220555   2.389   0.351   5.883
 2842SOL     OW20556   2.926   1.347   6.926
 2842SOL    HW120557   2.846   1.324   6.981
 2842SOL    HW220558   3.009   1.321   6.975
 2843SOL     OW20559   2.973   1.195   6.686
 2843SOL    HW120560   2.933   1.239   6.767
 2843SOL    HW220561   2.932   1.232   6.603
 2844SOL     OW20562   3.500   1.099   6.665
 2844SOL    HW120563   3.505   1.180   6.724
 2844SOL    HW220564   3.414   1.101   6.614
 2845SOL     OW20565   2.777   0.089   6.988
 2845SOL    HW120566   2.802   0.069   6.893
 2845SOL    HW220567   2.849   0.145   7.030
 2846SOL     OW20568   2.567   1.050   5.954
 2846SOL    HW120569   2.553   1.057   6.053
 2846SOL    HW220570   2.651   0.999   5.936
 2847SOL     OW20571   2.272   0.813   6.837
 2847SOL    HW120572   2.358   0.825   6.887
 2847SOL    HW220573   2.230   0.726   6.864
 2848SOL     OW20574   3.136   0.386   6.848
 2848SOL    HW120575   3.157   0.460   6.912
 2848SOL    HW220576   3.047   0.403   6.805
 2849SOL     OW20577   1.926   1.564   6.917
 2849SOL    HW120578   1.880   1.646   6.883
 2849SOL    HW220579   2.024   1.583   6.926
 2850SOL     OW20580   2.229   1.100   6.087
 2850SOL    HW120581   2.222   1.183   6.031
 2850SOL    HW220582   2.233   1.020   6.027
 2851SOL     OW20583   2.428   0.537   6.451
 2851SOL    HW120584   2.440   0.603   6.377
 2851SOL    HW220585   2.474   0.571   6.534
 2852SOL     OW20586   3.114   1.348   5.974
 2852SOL    HW120587   3.164   1.425   6.014
 2852SOL    HW220588   3.019   1.350   6.006
 2853SOL     OW20589   3.134   1.445   6.728
 2853SOL    HW120590   3.181   1.458   6.815
 2853SOL    HW220591   3.068   1.371   6.737
 2854SOL     OW20592   3.444   0.639   6.058
 2854SOL    HW120593   3.413   0.700   6.131
 2854SOL    HW220594   3.494   0.691   5.989
 2855SOL     OW20595   2.216   1.510   6.915
 2855SOL    HW120596   2.195   1.466   6.828
 2855SOL    HW220597   2.313   1.536   6.918
 2856SOL     OW20598   2.264   0.751   7.184
 2856SOL    HW120599   2.332   0.806   7.137
 2856SOL    HW220600   2.304   0.663   7.211
 2857SOL     OW20601   3.449   0.779   7.256
 2857SOL    HW120602   3.357   0.817   7.251
 2857SOL    HW220603   3.509   0.826   7.191
 2858SOL     OW20604   2.435   0.870   6.615
 2858SOL    HW120605   2.479   0.959   6.606
 2858SOL    HW220606   2.372   0.870   6.692
 2859SOL     OW20607   3.222   0.862   6.631
 2859SOL    HW120608   3.147   0.862   6.565
 2859SOL    HW220609   3.259   0.770   6.640
 2860SOL     OW20610   3.071   0.525   5.861
 2860SOL    HW120611   3.084   0.441   5.915
 2860SOL    HW220612   3.042   0.599   5.921
 2861SOL     OW20613   2.169   0.213   6.817
 2861SOL    HW120614   2.146   0.250   6.907
 2861SOL    HW220615   2.139   0.118   6.811
 2862SOL     OW20616   1.899   1.310   6.868
 2862SOL    HW120617   1.952   1.261   6.936
 2862SOL    HW220618   1.921   1.408   6.873
 2863SOL     OW20619   2.594   0.634   6.650
 2863SOL    HW120620   2.653   0.608   6.574
 2863SOL    HW220621   2.566   0.730   6.639
 2864SOL     OW20622   2.169   0.063   6.204
 2864SOL    HW120623   2.158   0.157   6.237
 2864SOL    HW220624   2.164   0.000   6.281
 2865SOL     OW20625   3.484   0.367   5.960
 2865SOL    HW120626   3.486   0.291   6.024
 2865SOL    HW220627   3.436   0.444   6.000
 2866SOL     OW20628   2.885   0.766   6.552
 2866SOL    HW120629   2.900   0.787   6.648
 2866SOL    HW220630   2.855   0.671   6.543
 2867SOL     OW20631   2.842   1.573   7.286
 2867SOL    HW120632   2.822   1.617   7.198
 2867SOL    HW220633   2.881   1.482   7.270
 2868SOL     OW20634   3.402   0.274   5.711
 2868SOL    HW120635   3.341   0.199   5.734
 2868SOL    HW220636   3.424   0.326   5.794
 2869SOL     OW20637   2.930   1.333   6.435
 2869SOL    HW120638   2.937   1.249   6.380
 2869SOL    HW220639   2.992   1.402   6.399
 2870SOL     OW20640   2.181   0.810   6.535
 2870SOL    HW120641   2.274   0.846   6.540
 2870SOL    HW220642   2.175   0.725   6.587
 2871SOL     OW20643   2.201   0.509   6.592
 2871SOL    HW120644   2.149   0.426   6.575
 2871SOL    HW220645   2.278   0.514   6.528
 2872SOL     OW20646   3.000   0.380   7.264
 2872SOL    HW120647   2.955   0.443   7.328
 2872SOL    HW220648   3.093   0.411   7.247
 2873SOL     OW20649   3.022   0.207   7.063
 2873SOL    HW120650   3.022   0.271   7.140
 2873SOL    HW220651   3.050   0.255   6.980
 2874SOL     OW20652   1.950   1.801   6.513
 2874SOL    HW120653   1.908   1.715   6.486
 2874SOL    HW220654   2.044   1.804   6.479
 2875SOL     OW20655   2.366   1.568   6.496
 2875SOL    HW120656   2.432   1.642   6.505
 2875SOL    HW220657   2.410   1.489   6.454
 2876SOL     OW20658   2.864   0.796   6.824
 2876SOL    HW120659   2.905   0.764   6.910
 2876SOL    HW220660   2.768   0.769   6.821
 2877SOL     OW20661   1.902   0.544   6.700
 2877SOL    HW120662   1.987   0.511   6.659
 2877SOL    HW220663   1.915   0.559   6.798
 2878SOL     OW20664   2.677   0.572   5.911
 2878SOL    HW120665   2.684   0.483   5.865
 2878SOL    HW220666   2.583   0.606   5.903
 2879SOL     OW20667   3.519   0.604   6.792
 2879SOL    HW120668   3.481   0.535   6.854
 2879SOL    HW220669   3.601   0.568   6.748
 2880SOL     OW20670   2.533   0.464   6.855
 2880SOL    HW120671   2.499   0.375   6.825
 2880SOL    HW220672   2.559   0.518   6.775
 2881SOL     OW20673   2.792   1.678   7.051
 2881SOL    HW120674   2.768   1.660   6.956
 2881SOL    HW220675   2.822   1.772   7.061
 2882SOL     OW20676   2.335   0.500   5.777
 2882SOL    HW120677   2.396   0.580   5.781
 2882SOL    HW220678   2.240   0.531   5.784
 2883SOL     OW20679   2.021   1.137   7.052
 2883SOL    HW120680   2.043   1.076   7.128
 2883SOL    HW220681   2.031   1.088   6.966
 2884SOL     OW20682   3.209   1.059   6.820
 2884SOL    HW120683   3.233   0.996   6.746
 2884SOL    HW220684   3.119   1.099   6.802
 2885SOL     OW20685   3.164   0.855   5.895
 2885SOL    HW120686   3.078   0.824   5.937
 2885SOL    HW220687   3.160   0.841   5.796
 2886SOL     OW20688   3.621   1.747   6.740
 2886SOL    HW120689   3.682   1.777   6.667
 2886SOL    HW220690   3.583   1.658   6.718
 2887SOL     OW20691   3.114   1.731   6.714
 2887SOL    HW120692   3.198   1.736   6.660
 2887SOL    HW220693   3.091   1.635   6.732
 2888SOL     OW20694   1.945   1.258   6.608
 2888SOL    HW120695   1.940   1.257   6.708
 2888SOL    HW220696   1.862   1.217   6.570
 2889SOL     OW20697   3.588   0.135   6.109
 2889SOL    HW120698   3.661   0.118   6.042
 2889SOL    HW220699   3.557   0.048   6.147
 2890SOL     OW20700   3.250   1.573   6.063
 2890SOL    HW120701   3.317   1.585   5.989
 2890SOL    HW220702   3.210   1.662   6.086
 2891SOL     OW20703   3.142   0.927   6.258
 2891SOL    HW120704   3.202   0.846   6.260
 2891SOL    HW220705   3.182   0.996   6.198
 2892SOL     OW20706   2.534   1.616   5.740
 2892SOL    HW120707   2.543   1.626   5.641
 2892SOL    HW220708   2.494   1.527   5.761
 2893SOL     OW20709   3.512   1.720   6.980
 2893SOL    HW120710   3.565   1.730   6.896
 2893SOL    HW220711   3.485   1.810   7.014
 2894SOL     OW20712   3.703   0.175   6.549
 2894SOL    HW120713   3.742   0.090   6.513
 2894SOL    HW220714   3.605   0.177   6.530
 2895SOL     OW20715   2.125   0.326   6.306
 2895SOL    HW120716   2.046   0.377   6.272
 2895SOL    HW220717   2.116   0.311   6.404
 2896SOL     OW20718   2.684   1.002   6.958
 2896SOL    HW120719   2.724   1.001   6.866
 2896SOL    HW220720   2.694   1.094   6.998
 2897SOL     OW20721   2.778   0.910   5.877
 2897SOL    HW120722   2.841   0.948   5.809
 2897SOL    HW220723   2.818   0.827   5.916
 2898SOL     OW20724   2.234   1.288   7.076
 2898SOL    HW120725   2.221   1.381   7.042
 2898SOL    HW220726   2.150   1.236   7.063
 2899SOL     OW20727   3.476   1.292   6.875
 2899SOL    HW120728   3.536   1.295   6.955
 2899SOL    HW220729   3.401   1.356   6.888
 2900SOL     OW20730   2.901   1.098   6.282
 2900SOL    HW120731   2.831   1.051   6.336
 2900SOL    HW220732   2.960   1.030   6.239
 2901SOL     OW20733   2.876   0.236   6.557
 2901SOL    HW120734   2.868   0.200   6.464
 2901SOL    HW220735   2.874   0.160   6.622
 2902SOL     OW20736   2.452   1.487   6.077
 2902SOL    HW120737   2.494   1.429   6.007
 2902SOL    HW220738   2.408   1.566   6.033
 2903SOL     OW20739   3.571   0.385   6.967
 2903SOL    HW120740   3.644   0.454   6.971
 2903SOL    HW220741   3.599   0.310   6.908
 2904SOL     OW20742   2.117   1.348   5.876
 2904SOL    HW120743   2.021   1.349   5.849
 2904SOL    HW220744   2.129   1.401   5.960
 2905SOL     OW20745   1.937   0.345   5.619
 2905SOL    HW120746   1.845   0.317   5.590
 2905SOL    HW220747   1.968   0.422   5.563
 2906SOL     OW20748   3.302   0.856   6.984
 2906SOL    HW120749   3.245   0.908   6.921
 2906SOL    HW220750   3.398   0.868   6.960
 2907SOL     OW20751   1.934   0.166   5.904
 2907SOL    HW120752   1.917   0.249   5.850
 2907SOL    HW220753   2.024   0.129   5.882
 2908SOL     OW20754   2.475   0.842   7.017
 2908SOL    HW120755   2.531   0.923   7.000
 2908SOL    HW220756   2.534   0.762   7.020
 2909SOL     OW20757   3.355   1.767   6.545
 2909SOL    HW120758   3.388   1.831   6.476
 2909SOL    HW220759   3.421   1.761   6.620
 2910SOL     OW20760   2.252   1.741   7.146
 2910SOL    HW120761   2.161   1.782   7.144
 2910SOL    HW220762   2.245   1.647   7.178
 2911SOL     OW20763   3.536   0.883   6.840
 2911SOL    HW120764   3.509   0.794   6.803
 2911SOL    HW220765   3.537   0.951   6.767
 2912SOL     OW20766   3.087   0.325   6.035
 2912SOL    HW120767   3.152   0.251   6.024
 2912SOL    HW220768   3.107   0.375   6.119
 2913SOL     OW20769   2.456   0.745   6.238
 2913SOL    HW120770   2.506   0.830   6.219
 2913SOL    HW220771   2.368   0.747   6.190
 2914SOL     OW20772   3.639   0.342   7.228
 2914SOL    HW120773   3.622   0.373   7.134
 2914SOL    HW220774   3.555   0.305   7.266
 2915SOL     OW20775   3.592   0.934   7.103
 2915SOL    HW120776   3.630   1.025   7.118
 2915SOL    HW220777   3.584   0.917   7.004
 2916SOL     OW20778   2.523   1.790   6.539
 2916SOL    HW120779   2.477   1.878   6.526
 2916SOL    HW220780   2.622   1.802   6.532
 2917SOL     OW20781   2.721   0.956   6.447
 2917SOL    HW120782   2.775   0.887   6.495
 2917SOL    HW220783   2.689   1.025   6.513
 2918SOL     OW20784   3.723   1.569   6.437
 2918SOL    HW120785   3.652   1.557   6.367
 2918SOL    HW220786   3.724   1.490   6.497
 2919SOL     OW20787   1.941   1.240   6.239
 2919SOL    HW120788   1.940   1.193   6.327
 2919SOL    HW220789   2.023   1.212   6.188
 2920SOL     OW20790   3.686   0.192   6.813
 2920SOL    HW120791   3.682   0.102   6.857
 2920SOL    HW220792   3.689   0.181   6.714
 2921SOL     OW20793   2.290   0.424   6.106
 2921SOL    HW120794   2.320   0.352   6.044
 2921SOL    HW220795   2.251   0.384   6.189
 2922SOL     OW20796   3.567   1.487   6.690
 2922SOL    HW120797   3.474   1.462   6.663
 2922SOL    HW220798   3.593   1.437   6.772
 2923SOL     OW20799   2.179   0.547   6.866
 2923SOL    HW120800   2.217   0.488   6.938
 2923SOL    HW220801   2.219   0.521   6.778
 2924SOL     OW20802   2.674   1.586   6.273
 2924SOL    HW120803   2.706   1.596   6.179
 2924SOL    HW220804   2.595   1.524   6.275
 2925SOL     OW20805   3.286   0.214   6.698
 2925SOL    HW120806   3.338   0.149   6.753
 2925SOL    HW220807   3.237   0.277   6.759
 2926SOL     OW20808   2.863   0.034   6.740
 2926SOL    HW120809   2.800  -0.038   6.709
 2926SOL    HW220810   2.956  -0.002   6.740
 2927SOL     OW20811   2.632   1.330   5.887
 2927SOL    HW120812   2.586   1.243   5.904
 2927SOL    HW220813   2.723   1.327   5.928
 2928SOL     OW20814   2.480   1.567   6.870
 2928SOL    HW120815   2.475   1.649   6.927
 2928SOL    HW220816   2.569   1.564   6.825
 2929SOL     OW20817   3.214   0.052   5.754
 2929SOL    HW120818   3.249   0.011   5.670
 2929SOL    HW220819   3.124   0.014   5.774
 2930SOL     OW20820   3.162   0.453   6.277
 2930SOL    HW120821   3.103   0.533   6.281
 2930SOL    HW220822   3.177   0.418   6.370
 2931SOL     OW20823   3.455   0.221   6.468
 2931SOL    HW120824   3.371   0.220   6.522
 2931SOL    HW220825   3.457   0.304   6.412
 2932SOL     OW20826   1.901   1.077   5.886
 2932SOL    HW120827   2.000   1.066   5.877
 2932SOL    HW220828   1.861   0.991   5.918
 2933SOL     OW20829   2.737   1.646   5.923
 2933SOL    HW120830   2.660   1.611   5.869
 2933SOL    HW220831   2.705   1.717   5.985
 2934SOL     OW20832   2.092   2.490   0.113
 2934SOL    HW120833   1.999   2.488   0.150
 2934SOL    HW220834   2.093   2.451   0.021
 2935SOL     OW20835   2.087   2.137   0.996
 2935SOL    HW120836   2.122   2.120   1.088
 2935SOL    HW220837   1.999   2.092   0.984
 2936SOL     OW20838   1.881   2.230   0.647
 2936SOL    HW120839   1.799   2.273   0.686
 2936SOL    HW220840   1.853   2.157   0.584
 2937SOL     OW20841   2.431   3.137   1.165
 2937SOL    HW120842   2.338   3.130   1.128
 2937SOL    HW220843   2.442   3.226   1.209
 2938SOL     OW20844   3.417   3.373   0.703
 2938SOL    HW120845   3.360   3.357   0.784
 2938SOL    HW220846   3.358   3.383   0.623
 2939SOL     OW20847   2.997   2.565   0.717
 2939SOL    HW120848   3.054   2.643   0.692
 2939SOL    HW220849   2.937   2.591   0.793
 2940SOL     OW20850   3.617   2.469   0.231
 2940SOL    HW120851   3.605   2.456   0.132
 2940SOL    HW220852   3.587   2.388   0.280
 2941SOL     OW20853   2.630   3.006   1.023
 2941SOL    HW120854   2.552   3.023   1.083
 2941SOL    HW220855   2.664   3.093   0.987
 2942SOL     OW20856   2.712   2.660   1.823
 2942SOL    HW120857   2.708   2.736   1.888
 2942SOL    HW220858   2.734   2.696   1.732
 2943SOL     OW20859   2.547   2.874   0.665
 2943SOL    HW120860   2.616   2.858   0.735
 2943SOL    HW220861   2.474   2.931   0.703
 2944SOL     OW20862   2.548   3.023   1.803
 2944SOL    HW120863   2.608   3.102   1.817
 2944SOL    HW220864   2.462   3.054   1.762
 2945SOL     OW20865   2.197   3.297   1.061
 2945SOL    HW120866   2.119   3.266   1.008
 2945SOL    HW220867   2.255   3.355   1.004
 2946SOL     OW20868   3.322   3.367   1.339
 2946SOL    HW120869   3.346   3.461   1.365
 2946SOL    HW220870   3.306   3.313   1.421
 2947SOL     OW20871   3.465   2.309   0.737
 2947SOL    HW120872   3.391   2.355   0.687
 2947SOL    HW220873   3.516   2.377   0.790
 2948SOL     OW20874   2.093   3.575   0.483
 2948SOL    HW120875   2.127   3.652   0.537
 2948SOL    HW220876   2.137   3.575   0.393
 2949SOL     OW20877   2.092   3.296   0.538
 2949SOL    HW120878   2.066   3.392   0.538
 2949SOL    HW220879   2.021   3.242   0.583
 2950SOL     OW20880   2.102   2.953   0.886
 2950SOL    HW120881   2.116   2.869   0.938
 2950SOL    HW220882   2.047   3.017   0.941
 2951SOL     OW20883   2.482   3.648   1.439
 2951SOL    HW120884   2.390   3.631   1.474
 2951SOL    HW220885   2.510   3.740   1.465
 2952SOL     OW20886   2.468   2.826   0.123
 2952SOL    HW120887   2.475   2.910   0.069
 2952SOL    HW220888   2.514   2.839   0.211
 2953SOL     OW20889   3.456   1.976   1.480
 2953SOL    HW120890   3.438   2.043   1.408
 2953SOL    HW220891   3.453   2.022   1.569
 2954SOL     OW20892   1.984   2.505   0.563
 2954SOL    HW120893   1.939   2.417   0.580
 2954SOL    HW220894   1.983   2.559   0.647
 2955SOL     OW20895   3.704   3.629   0.359
 2955SOL    HW120896   3.758   3.600   0.439
 2955SOL    HW220897   3.734   3.719   0.330
 2956SOL     OW20898   1.889   3.458   0.117
 2956SOL    HW120899   1.870   3.362   0.138
 2956SOL    HW220900   1.856   3.516   0.192
 2957SOL     OW20901   3.551   2.784   0.612
 2957SOL    HW120902   3.646   2.755   0.620
 2957SOL    HW220903   3.543   2.849   0.537
 2958SOL     OW20904   3.503   2.970   0.432
 2958SOL    HW120905   3.589   2.972   0.380
 2958SOL    HW220906   3.517   3.017   0.520
 2959SOL     OW20907   1.975   2.599   1.597
 2959SOL    HW120908   2.063   2.586   1.642
 2959SOL    HW220909   1.962   2.696   1.575
 2960SOL     OW20910   2.475   3.227   0.726
 2960SOL    HW120911   2.426   3.140   0.735
 2960SOL    HW220912   2.452   3.270   0.639
 2961SOL     OW20913   3.155   3.090   1.423
 2961SOL    HW120914   3.192   3.017   1.365
 2961SOL    HW220915   3.207   3.095   1.508
 2962SOL     OW20916   2.671   1.866   0.502
 2962SOL    HW120917   2.711   1.957   0.493
 2962SOL    HW220918   2.571   1.874   0.508
 2963SOL     OW20919   3.387   2.861   0.190
 2963SOL    HW120920   3.324   2.785   0.203
 2963SOL    HW220921   3.435   2.879   0.276
 2964SOL     OW20922   3.049   3.654   1.616
 2964SOL    HW120923   3.073   3.714   1.540
 2964SOL    HW220924   3.056   3.559   1.586
 2965SOL     OW20925   3.328   3.279   0.953
 2965SOL    HW120926   3.269   3.285   1.033
 2965SOL    HW220927   3.313   3.191   0.907
 2966SOL     OW20928   3.529   3.576   0.572
 2966SOL    HW120929   3.488   3.553   0.484
 2966SOL    HW220930   3.511   3.502   0.637
 2967SOL     OW20931   2.460   2.591   0.270
 2967SOL    HW120932   2.484   2.660   0.202
 2967SOL    HW220933   2.382   2.624   0.324
 2968SOL     OW20934   3.143   2.207   0.944
 2968SOL    HW120935   3.057   2.157   0.931
 2968SOL    HW220936   3.205   2.153   1.000
 2969SOL     OW20937   3.438   3.524   0.307
 2969SOL    HW120938   3.527   3.570   0.310
 2969SOL    HW220939   3.417   3.500   0.212
 2970SOL     OW20940   2.669   2.467   1.465
 2970SOL    HW120941   2.622   2.464   1.554
 2970SOL    HW220942   2.618   2.412   1.399
 2971SOL     OW20943   3.256   2.331   1.674
 2971SOL    HW120944   3.236   2.374   1.762
 2971SOL    HW220945   3.334   2.269   1.683
 2972SOL     OW20946   2.835   2.752   1.572
 2972SOL    HW120947   2.881   2.668   1.543
 2972SOL    HW220948   2.779   2.786   1.497
 2973SOL     OW20949   2.853   2.272   1.242
 2973SOL    HW120950   2.776   2.306   1.296
 2973SOL    HW220951   2.819   2.221   1.163
 2974SOL     OW20952   2.903   2.563   0.429
 2974SOL    HW120953   2.929   2.559   0.525
 2974SOL    HW220954   2.818   2.512   0.415
 2975SOL     OW20955   1.938   2.673   0.789
 2975SOL    HW120956   2.037   2.661   0.798
 2975SOL    HW220957   1.914   2.768   0.810
 2976SOL     OW20958   2.727   2.210   0.195
 2976SOL    HW120959   2.786   2.273   0.146
 2976SOL    HW220960   2.746   2.116   0.166
 2977SOL     OW20961   3.581   2.447   1.831
 2977SOL    HW120962   3.555   2.536   1.795
 2977SOL    HW220963   3.579   2.379   1.758
 2978SOL     OW20964   3.224   3.006   0.545
 2978SOL    HW120965   3.307   2.977   0.497
 2978SOL    HW220966   3.175   3.073   0.489
 2979SOL     OW20967   2.412   2.058   0.885
 2979SOL    HW120968   2.407   2.053   0.985
 2979SOL    HW220969   2.414   2.154   0.856
 2980SOL     OW20970   2.870   3.318   0.477
 2980SOL    HW120971   2.824   3.390   0.425
 2980SOL    HW220972   2.866   3.338   0.575
 2981SOL     OW20973   2.213   3.663   0.853
 2981SOL    HW120974   2.263   3.577   0.859
 2981SOL    HW220975   2.278   3.740   0.850
 2982SOL     OW20976   3.657   2.928   0.873
 2982SOL    HW120977   3.595   2.913   0.797
 2982SOL    HW220978   3.605   2.939   0.958
 2983SOL     OW20979   2.183   2.805   0.242
 2983SOL    HW120980   2.265   2.844   0.200
 2983SOL    HW220981   2.156   2.723   0.193
 2984SOL     OW20982   3.320   2.597   0.728
 2984SOL    HW120983   3.315   2.532   0.803
 2984SOL    HW220984   3.400   2.656   0.741
 2985SOL     OW20985   2.323   3.128   1.727
 2985SOL    HW120986   2.273   3.129   1.641
 2985SOL    HW220987   2.260   3.110   1.803
 2986SOL     OW20988   2.973   3.638   0.237
 2986SOL    HW120989   2.913   3.576   0.287
 2986SOL    HW220990   3.004   3.594   0.152
 2987SOL     OW20991   3.494   3.239   0.081
 2987SOL    HW120992   3.462   3.333   0.071
 2987SOL    HW220993   3.418   3.176   0.069
 2988SOL     OW20994   2.326   3.605   0.323
 2988SOL    HW120995   2.359   3.644   0.409
 2988SOL    HW220996   2.402   3.598   0.258
 2989SOL     OW20997   3.262   1.969   0.426
 2989SOL    HW120998   3.238   1.932   0.336
 2989SOL    HW220999   3.361   1.985   0.430
 2990SOL     OW21000   2.111   3.647   1.241
 2990SOL    HW121001   2.168   3.582   1.291
 2990SOL    HW221002   2.095   3.614   1.148
 2991SOL     OW21003   2.802   3.560   0.904
 2991SOL    HW121004   2.882   3.503   0.925
 2991SOL    HW221005   2.753   3.520   0.827
 2992SOL     OW21006   2.244   2.562   0.480
 2992SOL    HW121007   2.289   2.472   0.477
 2992SOL    HW221008   2.150   2.551   0.513
 2993SOL     OW21009   3.409   2.084   1.729
 2993SOL    HW121010   3.404   2.121   1.821
 2993SOL    HW221011   3.337   2.015   1.717
 2994SOL     OW21012   2.476   1.984   0.117
 2994SOL    HW121013   2.574   1.962   0.124
 2994SOL    HW221014   2.445   1.967   0.024
 2995SOL     OW21015   2.643   2.126   1.749
 2995SOL    HW121016   2.710   2.065   1.792
 2995SOL    HW221017   2.570   2.145   1.814
 2996SOL     OW21018   2.750   3.376   1.195
 2996SOL    HW121019   2.727   3.351   1.101
 2996SOL    HW221020   2.811   3.307   1.234
 2997SOL     OW21021   3.213   2.452   1.433
 2997SOL    HW121022   3.241   2.409   1.518
 2997SOL    HW221023   3.238   2.548   1.434
 2998SOL     OW21024   2.665   3.264   0.924
 2998SOL    HW121025   2.755   3.278   0.882
 2998SOL    HW221026   2.594   3.266   0.853
 2999SOL     OW21027   2.784   2.365   0.899
 2999SOL    HW121028   2.759   2.356   0.803
 2999SOL    HW221029   2.832   2.283   0.930
 3000SOL     OW21030   2.401   1.926   0.512
 3000SOL    HW121031   2.320   1.927   0.570
 3000SOL    HW221032   2.404   2.009   0.457
 3001SOL     OW21033   3.296   3.050   0.041
 3001SOL    HW121034   3.328   2.974   0.098
 3001SOL    HW221035   3.204   3.077   0.071
 3002SOL     OW21036   2.159   1.897   0.171
 3002SOL    HW121037   2.208   1.981   0.150
 3002SOL    HW221038   2.221   1.832   0.216
 3003SOL     OW21039   2.797   2.098   0.480
 3003SOL    HW121040   2.749   2.139   0.402
 3003SOL    HW221041   2.896   2.096   0.461
 3004SOL     OW21042   2.938   2.545   1.464
 3004SOL    HW121043   2.858   2.484   1.467
 3004SOL    HW221044   3.019   2.492   1.440
 3005SOL     OW21045   3.089   3.432   0.793
 3005SOL    HW121046   3.110   3.506   0.728
 3005SOL    HW221047   3.157   3.432   0.866
 3006SOL     OW21048   2.321   3.014   0.741
 3006SOL    HW121049   2.250   2.987   0.806
 3006SOL    HW221050   2.295   2.986   0.648
 3007SOL     OW21051   3.133   3.659   0.591
 3007SOL    HW121052   3.177   3.723   0.527
 3007SOL    HW221053   3.083   3.711   0.661
 3008SOL     OW21054   2.894   2.411   0.016
 3008SOL    HW121055   2.853   2.493  -0.023
 3008SOL    HW221056   2.958   2.437   0.089
 3009SOL     OW21057   1.940   2.418   1.386
 3009SOL    HW121058   2.032   2.417   1.345
 3009SOL    HW221059   1.934   2.492   1.453
 3010SOL     OW21060   2.423   2.084   1.147
 3010SOL    HW121061   2.461   2.000   1.184
 3010SOL    HW221062   2.335   2.103   1.191
 3011SOL     OW21063   2.728   2.316   0.642
 3011SOL    HW121064   2.696   2.388   0.580
 3011SOL    HW221065   2.752   2.235   0.589
 3012SOL     OW21066   2.879   1.901   0.753
 3012SOL    HW121067   2.807   1.906   0.684
 3012SOL    HW221068   2.855   1.832   0.822
 3013SOL     OW21069   3.291   3.035   0.867
 3013SOL    HW121070   3.236   2.951   0.860
 3013SOL    HW221071   3.317   3.064   0.775
 3014SOL     OW21072   3.328   2.452   0.992
 3014SOL    HW121073   3.298   2.357   0.999
 3014SOL    HW221074   3.401   2.468   1.058
 3015SOL     OW21075   3.719   2.695   0.377
 3015SOL    HW121076   3.761   2.631   0.441
 3015SOL    HW221077   3.681   2.644   0.299
 3016SOL     OW21078   2.350   3.247   0.174
 3016SOL    HW121079   2.263   3.232   0.221
 3016SOL    HW221080   2.333   3.273   0.079
 3017SOL     OW21081   3.526   3.142   0.657
 3017SOL    HW121082   3.625   3.150   0.671
 3017SOL    HW221083   3.481   3.226   0.688
 3018SOL     OW21084   3.252   2.437   0.078
 3018SOL    HW121085   3.198   2.416   0.159
 3018SOL    HW221086   3.343   2.396   0.087
 3019SOL     OW21087   2.389   2.118   0.328
 3019SOL    HW121088   2.416   2.059   0.253
 3019SOL    HW221089   2.389   2.213   0.297
 3020SOL     OW21090   3.616   3.085   1.588
 3020SOL    HW121091   3.707   3.046   1.575
 3020SOL    HW221092   3.624   3.181   1.612
 3021SOL     OW21093   2.926   3.209   1.340
 3021SOL    HW121094   2.846   3.186   1.395
 3021SOL    HW221095   3.009   3.183   1.389
 3022SOL     OW21096   3.454   3.491   1.625
 3022SOL    HW121097   3.481   3.525   1.535
 3022SOL    HW221098   3.533   3.453   1.671
 3023SOL     OW21099   2.973   3.057   1.100
 3023SOL    HW121100   2.933   3.101   1.181
 3023SOL    HW221101   2.932   3.094   1.017
 3024SOL     OW21102   3.500   2.961   1.079
 3024SOL    HW121103   3.505   3.042   1.138
 3024SOL    HW221104   3.414   2.963   1.028
 3025SOL     OW21105   2.777   1.951   1.402
 3025SOL    HW121106   2.802   1.931   1.307
 3025SOL    HW221107   2.849   2.007   1.444
 3026SOL     OW21108   2.567   2.912   0.368
 3026SOL    HW121109   2.553   2.919   0.467
 3026SOL    HW221110   2.651   2.861   0.350
 3027SOL     OW21111   2.272   2.675   1.251
 3027SOL    HW121112   2.358   2.687   1.301
 3027SOL    HW221113   2.230   2.588   1.278
 3028SOL     OW21114   3.136   2.248   1.262
 3028SOL    HW121115   3.157   2.322   1.326
 3028SOL    HW221116   3.047   2.265   1.219
 3029SOL     OW21117   1.926   3.426   1.331
 3029SOL    HW121118   1.880   3.508   1.297
 3029SOL    HW221119   2.024   3.445   1.340
 3030SOL     OW21120   2.229   2.962   0.501
 3030SOL    HW121121   2.222   3.045   0.445
 3030SOL    HW221122   2.233   2.882   0.441
 3031SOL     OW21123   2.428   2.399   0.865
 3031SOL    HW121124   2.440   2.465   0.791
 3031SOL    HW221125   2.474   2.433   0.948
 3032SOL     OW21126   3.114   3.210   0.388
 3032SOL    HW121127   3.164   3.287   0.428
 3032SOL    HW221128   3.019   3.212   0.420
 3033SOL     OW21129   3.134   3.307   1.142
 3033SOL    HW121130   3.181   3.320   1.229
 3033SOL    HW221131   3.068   3.233   1.151
 3034SOL     OW21132   3.444   2.501   0.472
 3034SOL    HW121133   3.413   2.562   0.545
 3034SOL    HW221134   3.494   2.553   0.403
 3035SOL     OW21135   3.449   2.641   1.670
 3035SOL    HW121136   3.357   2.679   1.665
 3035SOL    HW221137   3.509   2.688   1.605
 3036SOL     OW21138   2.875   1.967   1.770
 3036SOL    HW121139   2.881   2.052   1.718
 3036SOL    HW221140   2.907   1.891   1.713
 3037SOL     OW21141   2.435   2.732   1.029
 3037SOL    HW121142   2.479   2.821   1.020
 3037SOL    HW221143   2.372   2.732   1.106
 3038SOL     OW21144   3.222   2.724   1.045
 3038SOL    HW121145   3.147   2.724   0.979
 3038SOL    HW221146   3.259   2.632   1.054
 3039SOL     OW21147   3.071   2.387   0.275
 3039SOL    HW121148   3.084   2.303   0.329
 3039SOL    HW221149   3.042   2.461   0.335
 3040SOL     OW21150   2.169   2.075   1.231
 3040SOL    HW121151   2.146   2.112   1.321
 3040SOL    HW221152   2.139   1.980   1.225
 3041SOL     OW21153   2.594   2.496   1.064
 3041SOL    HW121154   2.653   2.470   0.988
 3041SOL    HW221155   2.566   2.592   1.053
 3042SOL     OW21156   2.169   1.925   0.618
 3042SOL    HW121157   2.158   2.019   0.651
 3042SOL    HW221158   2.164   1.862   0.695
 3043SOL     OW21159   3.484   2.229   0.374
 3043SOL    HW121160   3.486   2.153   0.438
 3043SOL    HW221161   3.436   2.306   0.414
 3044SOL     OW21162   2.885   2.628   0.966
 3044SOL    HW121163   2.900   2.649   1.062
 3044SOL    HW221164   2.855   2.533   0.957
 3045SOL     OW21165   2.842   3.435   1.700
 3045SOL    HW121166   2.822   3.479   1.612
 3045SOL    HW221167   2.881   3.344   1.684
 3046SOL     OW21168   3.721   3.380   1.605
 3046SOL    HW121169   3.735   3.407   1.510
 3046SOL    HW221170   3.804   3.402   1.658
 3047SOL     OW21171   3.402   2.136   0.125
 3047SOL    HW121172   3.341   2.061   0.148
 3047SOL    HW221173   3.424   2.188   0.208
 3048SOL     OW21174   3.165   2.700   0.042
 3048SOL    HW121175   3.199   2.607   0.057
 3048SOL    HW221176   3.183   2.727  -0.053
 3049SOL     OW21177   2.930   3.195   0.849
 3049SOL    HW121178   2.937   3.111   0.794
 3049SOL    HW221179   2.992   3.264   0.813
 3050SOL     OW21180   2.181   2.672   0.949
 3050SOL    HW121181   2.274   2.708   0.954
 3050SOL    HW221182   2.175   2.587   1.001
 3051SOL     OW21183   2.201   2.371   1.006
 3051SOL    HW121184   2.149   2.288   0.989
 3051SOL    HW221185   2.278   2.376   0.942
 3052SOL     OW21186   3.000   2.242   1.678
 3052SOL    HW121187   2.955   2.305   1.742
 3052SOL    HW221188   3.093   2.273   1.661
 3053SOL     OW21189   3.022   2.069   1.477
 3053SOL    HW121190   3.022   2.133   1.554
 3053SOL    HW221191   3.050   2.117   1.394
 3054SOL     OW21192   1.870   3.188   0.200
 3054SOL    HW121193   1.777   3.209   0.169
 3054SOL    HW221194   1.880   3.089   0.213
 3055SOL     OW21195   1.950   3.663   0.927
 3055SOL    HW121196   1.908   3.577   0.900
 3055SOL    HW221197   2.044   3.666   0.893
 3056SOL     OW21198   2.366   3.430   0.910
 3056SOL    HW121199   2.432   3.504   0.919
 3056SOL    HW221200   2.410   3.351   0.868
 3057SOL     OW21201   2.864   2.658   1.238
 3057SOL    HW121202   2.905   2.626   1.324
 3057SOL    HW221203   2.768   2.631   1.235
 3058SOL     OW21204   1.902   2.406   1.114
 3058SOL    HW121205   1.987   2.373   1.073
 3058SOL    HW221206   1.915   2.421   1.212
 3059SOL     OW21207   2.051   2.382   1.722
 3059SOL    HW121208   2.110   2.342   1.652
 3059SOL    HW221209   1.993   2.453   1.681
 3060SOL     OW21210   3.231   2.812   1.660
 3060SOL    HW121211   3.270   2.901   1.680
 3060SOL    HW221212   3.241   2.792   1.563
 3061SOL     OW21213   2.677   2.434   0.325
 3061SOL    HW121214   2.684   2.345   0.279
 3061SOL    HW221215   2.583   2.468   0.317
 3062SOL     OW21216   3.519   2.466   1.206
 3062SOL    HW121217   3.481   2.397   1.268
 3062SOL    HW221218   3.601   2.430   1.162
 3063SOL     OW21219   2.533   2.326   1.269
 3063SOL    HW121220   2.499   2.237   1.239
 3063SOL    HW221221   2.559   2.380   1.189
 3064SOL     OW21222   2.792   3.540   1.465
 3064SOL    HW121223   2.768   3.522   1.370
 3064SOL    HW221224   2.822   3.634   1.475
 3065SOL     OW21225   2.335   2.362   0.191
 3065SOL    HW121226   2.396   2.442   0.195
 3065SOL    HW221227   2.240   2.393   0.198
 3066SOL     OW21228   3.209   2.921   1.234
 3066SOL    HW121229   3.233   2.858   1.160
 3066SOL    HW221230   3.119   2.961   1.216
 3067SOL     OW21231   3.164   2.717   0.309
 3067SOL    HW121232   3.078   2.686   0.351
 3067SOL    HW221233   3.160   2.703   0.210
 3068SOL     OW21234   3.621   3.609   1.154
 3068SOL    HW121235   3.682   3.639   1.081
 3068SOL    HW221236   3.583   3.520   1.132
 3069SOL     OW21237   3.114   3.593   1.128
 3069SOL    HW121238   3.198   3.598   1.074
 3069SOL    HW221239   3.091   3.497   1.146
 3070SOL     OW21240   1.945   3.120   1.022
 3070SOL    HW121241   1.940   3.119   1.122
 3070SOL    HW221242   1.862   3.079   0.984
 3071SOL     OW21243   2.765   1.948   0.133
 3071SOL    HW121244   2.816   1.949   0.047
 3071SOL    HW221245   2.821   1.906   0.204
 3072SOL     OW21246   3.588   1.997   0.523
 3072SOL    HW121247   3.661   1.980   0.456
 3072SOL    HW221248   3.557   1.910   0.561
 3073SOL     OW21249   3.250   3.435   0.477
 3073SOL    HW121250   3.317   3.447   0.403
 3073SOL    HW221251   3.210   3.524   0.500
 3074SOL     OW21252   1.992   3.656   1.851
 3074SOL    HW121253   1.951   3.582   1.904
 3074SOL    HW221254   2.056   3.707   1.909
 3075SOL     OW21255   3.142   2.789   0.672
 3075SOL    HW121256   3.202   2.708   0.674
 3075SOL    HW221257   3.182   2.858   0.612
 3076SOL     OW21258   2.692   3.135   1.422
 3076SOL    HW121259   2.687   3.168   1.517
 3076SOL    HW221260   2.606   3.154   1.376
 3077SOL     OW21261   2.534   3.478   0.154
 3077SOL    HW121262   2.543   3.488   0.055
 3077SOL    HW221263   2.494   3.389   0.175
 3078SOL     OW21264   3.512   3.582   1.394
 3078SOL    HW121265   3.565   3.592   1.310
 3078SOL    HW221266   3.485   3.672   1.428
 3079SOL     OW21267   3.703   2.037   0.963
 3079SOL    HW121268   3.742   1.952   0.927
 3079SOL    HW221269   3.605   2.039   0.944
 3080SOL     OW21270   2.125   2.188   0.720
 3080SOL    HW121271   2.046   2.239   0.686
 3080SOL    HW221272   2.116   2.173   0.818
 3081SOL     OW21273   3.056   3.474   0.031
 3081SOL    HW121274   3.062   3.381   0.068
 3081SOL    HW221275   2.997   3.474  -0.049
 3082SOL     OW21276   2.684   2.864   1.372
 3082SOL    HW121277   2.724   2.863   1.280
 3082SOL    HW221278   2.694   2.956   1.412
 3083SOL     OW21279   2.778   2.772   0.291
 3083SOL    HW121280   2.841   2.810   0.223
 3083SOL    HW221281   2.818   2.689   0.330
 3084SOL     OW21282   3.366   3.469   0.044
 3084SOL    HW121283   3.274   3.506   0.051
 3084SOL    HW221284   3.404   3.489  -0.046
 3085SOL     OW21285   3.476   3.154   1.289
 3085SOL    HW121286   3.536   3.157   1.369
 3085SOL    HW221287   3.401   3.218   1.302
 3086SOL     OW21288   2.901   2.960   0.696
 3086SOL    HW121289   2.831   2.913   0.750
 3086SOL    HW221290   2.960   2.892   0.653
 3087SOL     OW21291   2.876   2.098   0.971
 3087SOL    HW121292   2.868   2.062   0.878
 3087SOL    HW221293   2.874   2.022   1.036
 3088SOL     OW21294   2.452   3.349   0.491
 3088SOL    HW121295   2.494   3.291   0.421
 3088SOL    HW221296   2.408   3.428   0.447
 3089SOL     OW21297   3.571   2.247   1.381
 3089SOL    HW121298   3.644   2.316   1.385
 3089SOL    HW221299   3.599   2.172   1.322
 3090SOL     OW21300   2.117   3.210   0.290
 3090SOL    HW121301   2.021   3.211   0.263
 3090SOL    HW221302   2.129   3.263   0.374
 3091SOL     OW21303   2.534   2.065   1.489
 3091SOL    HW121304   2.624   2.049   1.449
 3091SOL    HW221305   2.542   2.070   1.588
 3092SOL     OW21306   3.302   2.718   1.398
 3092SOL    HW121307   3.245   2.770   1.335
 3092SOL    HW221308   3.398   2.730   1.374
 3093SOL     OW21309   1.934   2.028   0.318
 3093SOL    HW121310   1.917   2.111   0.264
 3093SOL    HW221311   2.024   1.991   0.296
 3094SOL     OW21312   3.045   3.197   0.119
 3094SOL    HW121313   2.946   3.186   0.121
 3094SOL    HW221314   3.079   3.212   0.212
 3095SOL     OW21315   2.475   2.704   1.431
 3095SOL    HW121316   2.531   2.785   1.414
 3095SOL    HW221317   2.534   2.624   1.434
 3096SOL     OW21318   3.355   3.629   0.959
 3096SOL    HW121319   3.388   3.693   0.890
 3096SOL    HW221320   3.421   3.623   1.034
 3097SOL     OW21321   2.578   2.427   1.708
 3097SOL    HW121322   2.597   2.492   1.782
 3097SOL    HW221323   2.638   2.347   1.717
 3098SOL     OW21324   3.312   3.082   1.633
 3098SOL    HW121325   3.303   3.072   1.732
 3098SOL    HW221326   3.408   3.075   1.607
 3099SOL     OW21327   3.536   2.745   1.254
 3099SOL    HW121328   3.509   2.656   1.217
 3099SOL    HW221329   3.537   2.813   1.181
 3100SOL     OW21330   3.087   2.187   0.449
 3100SOL    HW121331   3.152   2.113   0.438
 3100SOL    HW221332   3.107   2.237   0.533
 3101SOL     OW21333   2.456   2.607   0.652
 3101SOL    HW121334   2.506   2.692   0.633
 3101SOL    HW221335   2.368   2.609   0.604
 3102SOL     OW21336   3.639   2.204   1.642
 3102SOL    HW121337   3.622   2.235   1.548
 3102SOL    HW221338   3.555   2.167   1.680
 3103SOL     OW21339   3.592   2.796   1.517
 3103SOL    HW121340   3.630   2.887   1.532
 3103SOL    HW221341   3.584   2.779   1.418
 3104SOL     OW21342   2.721   3.236   0.016
 3104SOL    HW121343   2.675   3.251   0.104
 3104SOL    HW221344   2.765   3.321  -0.014
 3105SOL     OW21345   2.523   3.652   0.953
 3105SOL    HW121346   2.477   3.740   0.940
 3105SOL    HW221347   2.622   3.664   0.946
 3106SOL     OW21348   2.721   2.818   0.861
 3106SOL    HW121349   2.775   2.749   0.909
 3106SOL    HW221350   2.689   2.887   0.927
 3107SOL     OW21351   2.945   2.846   0.087
 3107SOL    HW121352   2.922   2.899   0.005
 3107SOL    HW221353   3.026   2.790   0.068
 3108SOL     OW21354   3.723   3.431   0.851
 3108SOL    HW121355   3.652   3.419   0.781
 3108SOL    HW221356   3.724   3.352   0.911
 3109SOL     OW21357   1.941   3.102   0.653
 3109SOL    HW121358   1.940   3.055   0.741
 3109SOL    HW221359   2.023   3.074   0.602
 3110SOL     OW21360   2.534   3.253   1.624
 3110SOL    HW121361   2.456   3.203   1.662
 3110SOL    HW221362   2.531   3.348   1.655
 3111SOL     OW21363   3.686   2.054   1.227
 3111SOL    HW121364   3.682   1.964   1.271
 3111SOL    HW221365   3.689   2.043   1.128
 3112SOL     OW21366   2.290   2.286   0.520
 3112SOL    HW121367   2.320   2.214   0.458
 3112SOL    HW221368   2.251   2.246   0.603
 3113SOL     OW21369   3.567   3.349   1.104
 3113SOL    HW121370   3.474   3.324   1.077
 3113SOL    HW221371   3.593   3.299   1.186
 3114SOL     OW21372   2.674   3.448   0.687
 3114SOL    HW121373   2.706   3.458   0.593
 3114SOL    HW221374   2.595   3.386   0.689
 3115SOL     OW21375   3.286   2.076   1.112
 3115SOL    HW121376   3.338   2.011   1.167
 3115SOL    HW221377   3.237   2.139   1.173
 3116SOL     OW21378   2.863   1.896   1.154
 3116SOL    HW121379   2.800   1.824   1.123
 3116SOL    HW221380   2.956   1.860   1.154
 3117SOL     OW21381   2.632   3.192   0.301
 3117SOL    HW121382   2.586   3.105   0.318
 3117SOL    HW221383   2.723   3.189   0.342
 3118SOL     OW21384   3.214   1.914   0.168
 3118SOL    HW121385   3.249   1.873   0.084
 3118SOL    HW221386   3.124   1.876   0.188
 3119SOL     OW21387   3.162   2.315   0.691
 3119SOL    HW121388   3.103   2.395   0.695
 3119SOL    HW221389   3.177   2.280   0.784
 3120SOL     OW21390   3.455   2.083   0.882
 3120SOL    HW121391   3.371   2.082   0.936
 3120SOL    HW221392   3.457   2.166   0.826
 3121SOL     OW21393   1.901   2.939   0.300
 3121SOL    HW121394   2.000   2.928   0.291
 3121SOL    HW221395   1.861   2.853   0.332
 3122SOL     OW21396   2.737   3.508   0.337
 3122SOL    HW121397   2.660   3.473   0.283
 3122SOL    HW221398   2.705   3.579   0.399
 3123SOL     OW21399   2.092   2.490   1.975
 3123SOL    HW121400   1.999   2.488   2.012
 3123SOL    HW221401   2.093   2.451   1.883
 3124SOL     OW21402   3.617   2.469   2.093
 3124SOL    HW121403   3.605   2.456   1.994
 3124SOL    HW221404   3.587   2.388   2.142
 3125SOL     OW21405   2.630   3.006   2.885
 3125SOL    HW121406   2.552   3.023   2.945
 3125SOL    HW221407   2.664   3.093   2.849
 3126SOL     OW21408   2.300   2.254   3.361
 3126SOL    HW121409   2.382   2.198   3.370
 3126SOL    HW221410   2.219   2.196   3.365
 3127SOL     OW21411   2.092   3.296   2.400
 3127SOL    HW121412   2.066   3.392   2.400
 3127SOL    HW221413   2.021   3.242   2.445
 3128SOL     OW21414   3.456   1.976   3.342
 3128SOL    HW121415   3.438   2.043   3.270
 3128SOL    HW221416   3.453   2.022   3.431
 3129SOL     OW21417   3.503   2.970   2.294
 3129SOL    HW121418   3.589   2.972   2.242
 3129SOL    HW221419   3.517   3.017   2.382
 3130SOL     OW21420   3.049   3.654   3.478
 3130SOL    HW121421   3.073   3.714   3.402
 3130SOL    HW221422   3.056   3.559   3.448
 3131SOL     OW21423   2.460   2.591   2.132
 3131SOL    HW121424   2.484   2.660   2.064
 3131SOL    HW221425   2.382   2.624   2.186
 3132SOL     OW21426   3.143   2.207   2.806
 3132SOL    HW121427   3.057   2.157   2.793
 3132SOL    HW221428   3.205   2.153   2.862
 3133SOL     OW21429   2.853   2.272   3.104
 3133SOL    HW121430   2.776   2.306   3.158
 3133SOL    HW221431   2.819   2.221   3.025
 3134SOL     OW21432   1.992   3.683   3.433
 3134SOL    HW121433   1.982   3.668   3.532
 3134SOL    HW221434   1.906   3.719   3.397
 3135SOL     OW21435   3.494   3.239   1.943
 3135SOL    HW121436   3.462   3.333   1.933
 3135SOL    HW221437   3.418   3.176   1.931
 3136SOL     OW21438   3.262   1.969   2.288
 3136SOL    HW121439   3.238   1.932   2.198
 3136SOL    HW221440   3.361   1.985   2.292
 3137SOL     OW21441   2.111   3.647   3.103
 3137SOL    HW121442   2.168   3.582   3.153
 3137SOL    HW221443   2.095   3.614   3.010
 3138SOL     OW21444   2.802   3.560   2.766
 3138SOL    HW121445   2.882   3.503   2.787
 3138SOL    HW221446   2.753   3.520   2.689
 3139SOL     OW21447   3.409   2.084   3.591
 3139SOL    HW121448   3.404   2.121   3.683
 3139SOL    HW221449   3.337   2.015   3.579
 3140SOL     OW21450   2.476   1.984   1.979
 3140SOL    HW121451   2.574   1.962   1.986
 3140SOL    HW221452   2.445   1.967   1.886
 3141SOL     OW21453   3.213   2.452   3.295
 3141SOL    HW121454   3.241   2.409   3.380
 3141SOL    HW221455   3.238   2.548   3.296
 3142SOL     OW21456   2.784   2.365   2.761
 3142SOL    HW121457   2.759   2.356   2.665
 3142SOL    HW221458   2.832   2.283   2.792
 3143SOL     OW21459   2.879   1.901   2.615
 3143SOL    HW121460   2.807   1.906   2.546
 3143SOL    HW221461   2.855   1.832   2.684
 3144SOL     OW21462   3.328   2.452   2.854
 3144SOL    HW121463   3.298   2.357   2.861
 3144SOL    HW221464   3.401   2.468   2.920
 3145SOL     OW21465   3.719   2.695   2.239
 3145SOL    HW121466   3.761   2.631   2.303
 3145SOL    HW221467   3.681   2.644   2.161
 3146SOL     OW21468   3.252   2.437   1.940
 3146SOL    HW121469   3.198   2.416   2.021
 3146SOL    HW221470   3.343   2.396   1.949
 3147SOL     OW21471   2.389   2.118   2.190
 3147SOL    HW121472   2.416   2.059   2.115
 3147SOL    HW221473   2.389   2.213   2.159
 3148SOL     OW21474   3.616   3.085   3.450
 3148SOL    HW121475   3.707   3.046   3.437
 3148SOL    HW221476   3.624   3.181   3.474
 3149SOL     OW21477   3.454   3.491   3.487
 3149SOL    HW121478   3.481   3.525   3.397
 3149SOL    HW221479   3.533   3.453   3.533
 3150SOL     OW21480   3.500   2.961   2.941
 3150SOL    HW121481   3.505   3.042   3.000
 3150SOL    HW221482   3.414   2.963   2.890
 3151SOL     OW21483   3.136   2.248   3.124
 3151SOL    HW121484   3.157   2.322   3.188
 3151SOL    HW221485   3.047   2.265   3.081
 3152SOL     OW21486   2.428   2.399   2.727
 3152SOL    HW121487   2.440   2.465   2.653
 3152SOL    HW221488   2.474   2.433   2.810
 3153SOL     OW21489   2.216   3.372   3.191
 3153SOL    HW121490   2.195   3.328   3.104
 3153SOL    HW221491   2.313   3.398   3.194
 3154SOL     OW21492   2.875   1.967   3.632
 3154SOL    HW121493   2.881   2.052   3.580
 3154SOL    HW221494   2.907   1.891   3.575
 3155SOL     OW21495   3.222   2.724   2.907
 3155SOL    HW121496   3.147   2.724   2.841
 3155SOL    HW221497   3.259   2.632   2.916
 3156SOL     OW21498   3.402   2.136   1.987
 3156SOL    HW121499   3.341   2.061   2.010
 3156SOL    HW221500   3.424   2.188   2.070
 3157SOL     OW21501   2.930   3.195   2.711
 3157SOL    HW121502   2.937   3.111   2.656
 3157SOL    HW221503   2.992   3.264   2.675
 3158SOL     OW21504   2.181   2.672   2.811
 3158SOL    HW121505   2.274   2.708   2.816
 3158SOL    HW221506   2.175   2.587   2.863
 3159SOL     OW21507   2.201   2.371   2.868
 3159SOL    HW121508   2.149   2.288   2.851
 3159SOL    HW221509   2.278   2.376   2.804
 3160SOL     OW21510   1.870   3.188   2.062
 3160SOL    HW121511   1.777   3.209   2.031
 3160SOL    HW221512   1.880   3.089   2.075
 3161SOL     OW21513   1.902   2.406   2.976
 3161SOL    HW121514   1.987   2.373   2.935
 3161SOL    HW221515   1.915   2.421   3.074
 3162SOL     OW21516   3.231   2.812   3.522
 3162SOL    HW121517   3.270   2.901   3.542
 3162SOL    HW221518   3.241   2.792   3.425
 3163SOL     OW21519   3.519   2.466   3.068
 3163SOL    HW121520   3.481   2.397   3.130
 3163SOL    HW221521   3.601   2.430   3.024
 3164SOL     OW21522   2.792   3.540   3.327
 3164SOL    HW121523   2.768   3.522   3.232
 3164SOL    HW221524   2.822   3.634   3.337
 3165SOL     OW21525   2.335   2.362   2.053
 3165SOL    HW121526   2.396   2.442   2.057
 3165SOL    HW221527   2.240   2.393   2.060
 3166SOL     OW21528   2.550   3.524   3.578
 3166SOL    HW121529   2.494   3.605   3.587
 3166SOL    HW221530   2.602   3.528   3.492
 3167SOL     OW21531   3.588   1.997   2.385
 3167SOL    HW121532   3.661   1.980   2.318
 3167SOL    HW221533   3.557   1.910   2.423
 3168SOL     OW21534   1.992   3.656   3.713
 3168SOL    HW121535   1.951   3.582   3.766
 3168SOL    HW221536   2.056   3.707   3.771
 3169SOL     OW21537   3.142   2.789   2.534
 3169SOL    HW121538   3.202   2.708   2.536
 3169SOL    HW221539   3.182   2.858   2.474
 3170SOL     OW21540   2.684   2.864   3.234
 3170SOL    HW121541   2.724   2.863   3.142
 3170SOL    HW221542   2.694   2.956   3.274
 3171SOL     OW21543   3.366   3.469   1.906
 3171SOL    HW121544   3.274   3.506   1.913
 3171SOL    HW221545   3.404   3.489   1.816
 3172SOL     OW21546   3.476   3.154   3.151
 3172SOL    HW121547   3.536   3.157   3.231
 3172SOL    HW221548   3.401   3.218   3.164
 3173SOL     OW21549   2.901   2.960   2.558
 3173SOL    HW121550   2.831   2.913   2.612
 3173SOL    HW221551   2.960   2.892   2.515
 3174SOL     OW21552   2.117   3.210   2.152
 3174SOL    HW121553   2.021   3.211   2.125
 3174SOL    HW221554   2.129   3.263   2.236
 3175SOL     OW21555   1.937   2.207   1.895
 3175SOL    HW121556   1.845   2.179   1.866
 3175SOL    HW221557   1.968   2.284   1.839
 3176SOL     OW21558   3.302   2.718   3.260
 3176SOL    HW121559   3.245   2.770   3.197
 3176SOL    HW221560   3.398   2.730   3.236
 3177SOL     OW21561   3.355   3.629   2.821
 3177SOL    HW121562   3.388   3.693   2.752
 3177SOL    HW221563   3.421   3.623   2.896
 3178SOL     OW21564   2.578   2.427   3.570
 3178SOL    HW121565   2.597   2.492   3.644
 3178SOL    HW221566   2.638   2.347   3.579
 3179SOL     OW21567   3.312   3.082   3.495
 3179SOL    HW121568   3.303   3.072   3.594
 3179SOL    HW221569   3.408   3.075   3.469
 3180SOL     OW21570   2.252   3.603   3.422
 3180SOL    HW121571   2.161   3.644   3.420
 3180SOL    HW221572   2.245   3.509   3.454
 3181SOL     OW21573   2.456   2.607   2.514
 3181SOL    HW121574   2.506   2.692   2.495
 3181SOL    HW221575   2.368   2.609   2.466
 3182SOL     OW21576   2.721   3.236   1.878
 3182SOL    HW121577   2.675   3.251   1.966
 3182SOL    HW221578   2.765   3.321   1.848
 3183SOL     OW21579   2.523   3.652   2.815
 3183SOL    HW121580   2.477   3.740   2.802
 3183SOL    HW221581   2.622   3.664   2.808
 3184SOL     OW21582   3.723   3.431   2.713
 3184SOL    HW121583   3.652   3.419   2.643
 3184SOL    HW221584   3.724   3.352   2.773
 3185SOL     OW21585   2.083   3.176   3.706
 3185SOL    HW121586   2.018   3.103   3.685
 3185SOL    HW221587   2.087   3.190   3.804
 3186SOL     OW21588   2.290   2.286   2.382
 3186SOL    HW121589   2.320   2.214   2.320
 3186SOL    HW221590   2.251   2.246   2.465
 3187SOL     OW21591   2.179   2.409   3.142
 3187SOL    HW121592   2.217   2.350   3.214
 3187SOL    HW221593   2.219   2.383   3.054
 3188SOL     OW21594   3.286   2.076   2.974
 3188SOL    HW121595   3.338   2.011   3.029
 3188SOL    HW221596   3.237   2.139   3.035
 3189SOL     OW21597   2.632   3.192   2.163
 3189SOL    HW121598   2.586   3.105   2.180
 3189SOL    HW221599   2.723   3.189   2.204
 3190SOL     OW21600   2.480   3.429   3.146
 3190SOL    HW121601   2.475   3.511   3.203
 3190SOL    HW221602   2.569   3.426   3.101
 3191SOL     OW21603   3.214   1.914   2.030
 3191SOL    HW121604   3.249   1.873   1.946
 3191SOL    HW221605   3.124   1.876   2.050
 3192SOL     OW21606   2.737   3.508   2.199
 3192SOL    HW121607   2.660   3.473   2.145
 3192SOL    HW221608   2.705   3.579   2.261
 3193SOL     OW21609   1.881   2.230   4.371
 3193SOL    HW121610   1.799   2.273   4.410
 3193SOL    HW221611   1.853   2.157   4.308
 3194SOL     OW21612   2.712   2.660   5.547
 3194SOL    HW121613   2.708   2.736   5.612
 3194SOL    HW221614   2.734   2.696   5.456
 3195SOL     OW21615   2.547   2.874   4.389
 3195SOL    HW121616   2.616   2.858   4.459
 3195SOL    HW221617   2.474   2.931   4.427
 3196SOL     OW21618   2.197   3.297   4.785
 3196SOL    HW121619   2.119   3.266   4.732
 3196SOL    HW221620   2.255   3.355   4.728
 3197SOL     OW21621   2.093   3.575   4.207
 3197SOL    HW121622   2.127   3.652   4.261
 3197SOL    HW221623   2.137   3.575   4.117
 3198SOL     OW21624   2.468   2.826   3.847
 3198SOL    HW121625   2.475   2.910   3.793
 3198SOL    HW221626   2.514   2.839   3.935
 3199SOL     OW21627   1.889   3.458   3.841
 3199SOL    HW121628   1.870   3.362   3.862
 3199SOL    HW221629   1.856   3.516   3.916
 3200SOL     OW21630   2.059   2.838   4.988
 3200SOL    HW121631   2.148   2.793   4.974
 3200SOL    HW221632   1.986   2.773   4.969
 3201SOL     OW21633   3.049   3.654   5.340
 3201SOL    HW121634   3.073   3.714   5.264
 3201SOL    HW221635   3.056   3.559   5.310
 3202SOL     OW21636   2.460   2.591   3.994
 3202SOL    HW121637   2.484   2.660   3.926
 3202SOL    HW221638   2.382   2.624   4.048
 3203SOL     OW21639   3.438   3.524   4.031
 3203SOL    HW121640   3.527   3.570   4.034
 3203SOL    HW221641   3.417   3.500   3.936
 3204SOL     OW21642   2.727   2.210   3.919
 3204SOL    HW121643   2.786   2.273   3.870
 3204SOL    HW221644   2.746   2.116   3.890
 3205SOL     OW21645   3.581   2.447   5.555
 3205SOL    HW121646   3.555   2.536   5.519
 3205SOL    HW221647   3.579   2.379   5.482
 3206SOL     OW21648   3.224   3.006   4.269
 3206SOL    HW121649   3.307   2.977   4.221
 3206SOL    HW221650   3.175   3.073   4.213
 3207SOL     OW21651   2.412   2.058   4.609
 3207SOL    HW121652   2.407   2.053   4.709
 3207SOL    HW221653   2.414   2.154   4.580
 3208SOL     OW21654   3.262   1.969   4.150
 3208SOL    HW121655   3.238   1.932   4.060
 3208SOL    HW221656   3.361   1.985   4.154
 3209SOL     OW21657   2.111   3.647   4.965
 3209SOL    HW121658   2.168   3.582   5.015
 3209SOL    HW221659   2.095   3.614   4.872
 3210SOL     OW21660   2.643   2.126   5.473
 3210SOL    HW121661   2.710   2.065   5.516
 3210SOL    HW221662   2.570   2.145   5.538
 3211SOL     OW21663   2.750   3.376   4.919
 3211SOL    HW121664   2.727   3.351   4.825
 3211SOL    HW221665   2.811   3.307   4.958
 3212SOL     OW21666   2.401   1.926   4.236
 3212SOL    HW121667   2.320   1.927   4.294
 3212SOL    HW221668   2.404   2.009   4.181
 3213SOL     OW21669   3.296   3.050   3.765
 3213SOL    HW121670   3.328   2.974   3.822
 3213SOL    HW221671   3.204   3.077   3.795
 3214SOL     OW21672   2.321   3.014   4.465
 3214SOL    HW121673   2.250   2.987   4.530
 3214SOL    HW221674   2.295   2.986   4.372
 3215SOL     OW21675   2.728   2.316   4.366
 3215SOL    HW121676   2.696   2.388   4.304
 3215SOL    HW221677   2.752   2.235   4.313
 3216SOL     OW21678   2.879   1.901   4.477
 3216SOL    HW121679   2.807   1.906   4.408
 3216SOL    HW221680   2.855   1.832   4.546
 3217SOL     OW21681   3.328   2.452   4.716
 3217SOL    HW121682   3.298   2.357   4.723
 3217SOL    HW221683   3.401   2.468   4.782
 3218SOL     OW21684   2.926   3.209   5.064
 3218SOL    HW121685   2.846   3.186   5.119
 3218SOL    HW221686   3.009   3.183   5.113
 3219SOL     OW21687   2.973   3.057   4.824
 3219SOL    HW121688   2.933   3.101   4.905
 3219SOL    HW221689   2.932   3.094   4.741
 3220SOL     OW21690   3.500   2.961   4.803
 3220SOL    HW121691   3.505   3.042   4.862
 3220SOL    HW221692   3.414   2.963   4.752
 3221SOL     OW21693   3.136   2.248   4.986
 3221SOL    HW121694   3.157   2.322   5.050
 3221SOL    HW221695   3.047   2.265   4.943
 3222SOL     OW21696   3.134   3.307   4.866
 3222SOL    HW121697   3.181   3.320   4.953
 3222SOL    HW221698   3.068   3.233   4.875
 3223SOL     OW21699   3.444   2.501   4.196
 3223SOL    HW121700   3.413   2.562   4.269
 3223SOL    HW221701   3.494   2.553   4.127
 3224SOL     OW21702   3.222   2.724   4.769
 3224SOL    HW121703   3.147   2.724   4.703
 3224SOL    HW221704   3.259   2.632   4.778
 3225SOL     OW21705   2.114   3.426   5.468
 3225SOL    HW121706   2.084   3.483   5.544
 3225SOL    HW221707   2.107   3.329   5.494
 3226SOL     OW21708   2.335   2.362   3.915
 3226SOL    HW121709   2.396   2.442   3.919
 3226SOL    HW221710   2.240   2.393   3.922
 3227SOL     OW21711   1.992   3.656   5.575
 3227SOL    HW121712   1.951   3.582   5.628
 3227SOL    HW221713   2.056   3.707   5.633
 3228SOL     OW21714   2.534   3.478   3.878
 3228SOL    HW121715   2.543   3.488   3.779
 3228SOL    HW221716   2.494   3.389   3.899
 3229SOL     OW21717   3.703   2.037   4.687
 3229SOL    HW121718   3.742   1.952   4.651
 3229SOL    HW221719   3.605   2.039   4.668
 3230SOL     OW21720   3.366   3.469   3.768
 3230SOL    HW121721   3.274   3.506   3.775
 3230SOL    HW221722   3.404   3.489   3.678
 3231SOL     OW21723   1.937   2.207   3.757
 3231SOL    HW121724   1.845   2.179   3.728
 3231SOL    HW221725   1.968   2.284   3.701
 3232SOL     OW21726   1.934   2.028   4.042
 3232SOL    HW121727   1.917   2.111   3.988
 3232SOL    HW221728   2.024   1.991   4.020
 3233SOL     OW21729   2.475   2.704   5.155
 3233SOL    HW121730   2.531   2.785   5.138
 3233SOL    HW221731   2.534   2.624   5.158
 3234SOL     OW21732   2.252   3.603   5.284
 3234SOL    HW121733   2.161   3.644   5.282
 3234SOL    HW221734   2.245   3.509   5.316
 3235SOL     OW21735   2.456   2.607   4.376
 3235SOL    HW121736   2.506   2.692   4.357
 3235SOL    HW221737   2.368   2.609   4.328
 3236SOL     OW21738   2.721   3.236   3.740
 3236SOL    HW121739   2.675   3.251   3.828
 3236SOL    HW221740   2.765   3.321   3.710
 3237SOL     OW21741   2.523   3.652   4.677
 3237SOL    HW121742   2.477   3.740   4.664
 3237SOL    HW221743   2.622   3.664   4.670
 3238SOL     OW21744   2.721   2.818   4.585
 3238SOL    HW121745   2.775   2.749   4.633
 3238SOL    HW221746   2.689   2.887   4.651
 3239SOL     OW21747   2.945   2.846   3.811
 3239SOL    HW121748   2.922   2.899   3.729
 3239SOL    HW221749   3.026   2.790   3.792
 3240SOL     OW21750   3.723   3.431   4.575
 3240SOL    HW121751   3.652   3.419   4.505
 3240SOL    HW221752   3.724   3.352   4.635
 3241SOL     OW21753   2.083   3.176   5.568
 3241SOL    HW121754   2.018   3.103   5.547
 3241SOL    HW221755   2.087   3.190   5.666
 3242SOL     OW21756   3.686   2.054   4.951
 3242SOL    HW121757   3.682   1.964   4.995
 3242SOL    HW221758   3.689   2.043   4.852
 3243SOL     OW21759   2.290   2.286   4.244
 3243SOL    HW121760   2.320   2.214   4.182
 3243SOL    HW221761   2.251   2.246   4.327
 3244SOL     OW21762   3.286   2.076   4.836
 3244SOL    HW121763   3.338   2.011   4.891
 3244SOL    HW221764   3.237   2.139   4.897
 3245SOL     OW21765   3.214   1.914   3.892
 3245SOL    HW121766   3.249   1.873   3.808
 3245SOL    HW221767   3.124   1.876   3.912
 3246SOL     OW21768   3.162   2.315   4.415
 3246SOL    HW121769   3.103   2.395   4.419
 3246SOL    HW221770   3.177   2.280   4.508
 3247SOL     OW21771   1.901   2.939   4.024
 3247SOL    HW121772   2.000   2.928   4.015
 3247SOL    HW221773   1.861   2.853   4.056
 3248SOL     OW21774   2.092   2.490   5.699
 3248SOL    HW121775   1.999   2.488   5.736
 3248SOL    HW221776   2.093   2.451   5.607
 3249SOL     OW21777   2.087   2.137   6.582
 3249SOL    HW121778   2.122   2.120   6.674
 3249SOL    HW221779   1.999   2.092   6.570
 3250SOL     OW21780   1.881   2.230   6.233
 3250SOL    HW121781   1.799   2.273   6.272
 3250SOL    HW221782   1.853   2.157   6.170
 3251SOL     OW21783   2.431   3.137   6.751
 3251SOL    HW121784   2.338   3.130   6.714
 3251SOL    HW221785   2.442   3.226   6.795
 3252SOL     OW21786   3.417   3.373   6.289
 3252SOL    HW121787   3.360   3.357   6.370
 3252SOL    HW221788   3.358   3.383   6.209
 3253SOL     OW21789   2.997   2.565   6.303
 3253SOL    HW121790   3.054   2.643   6.278
 3253SOL    HW221791   2.937   2.591   6.379
 3254SOL     OW21792   2.630   3.006   6.609
 3254SOL    HW121793   2.552   3.023   6.669
 3254SOL    HW221794   2.664   3.093   6.573
 3255SOL     OW21795   2.547   2.874   6.251
 3255SOL    HW121796   2.616   2.858   6.321
 3255SOL    HW221797   2.474   2.931   6.289
 3256SOL     OW21798   2.197   3.297   6.647
 3256SOL    HW121799   2.119   3.266   6.594
 3256SOL    HW221800   2.255   3.355   6.590
 3257SOL     OW21801   3.322   3.367   6.925
 3257SOL    HW121802   3.346   3.461   6.951
 3257SOL    HW221803   3.306   3.313   7.007
 3258SOL     OW21804   2.300   2.254   7.085
 3258SOL    HW121805   2.382   2.198   7.094
 3258SOL    HW221806   2.219   2.196   7.089
 3259SOL     OW21807   2.093   3.575   6.069
 3259SOL    HW121808   2.127   3.652   6.123
 3259SOL    HW221809   2.137   3.575   5.979
 3260SOL     OW21810   2.092   3.296   6.124
 3260SOL    HW121811   2.066   3.392   6.124
 3260SOL    HW221812   2.021   3.242   6.169
 3261SOL     OW21813   2.102   2.953   6.472
 3261SOL    HW121814   2.116   2.869   6.524
 3261SOL    HW221815   2.047   3.017   6.527
 3262SOL     OW21816   2.482   3.648   7.025
 3262SOL    HW121817   2.390   3.631   7.060
 3262SOL    HW221818   2.510   3.740   7.051
 3263SOL     OW21819   2.468   2.826   5.709
 3263SOL    HW121820   2.475   2.910   5.655
 3263SOL    HW221821   2.514   2.839   5.797
 3264SOL     OW21822   3.456   1.976   7.066
 3264SOL    HW121823   3.438   2.043   6.994
 3264SOL    HW221824   3.453   2.022   7.155
 3265SOL     OW21825   1.984   2.505   6.149
 3265SOL    HW121826   1.939   2.417   6.166
 3265SOL    HW221827   1.983   2.559   6.233
 3266SOL     OW21828   3.704   3.629   5.945
 3266SOL    HW121829   3.758   3.600   6.025
 3266SOL    HW221830   3.734   3.719   5.916
 3267SOL     OW21831   1.889   3.458   5.703
 3267SOL    HW121832   1.870   3.362   5.724
 3267SOL    HW221833   1.856   3.516   5.778
 3268SOL     OW21834   3.551   2.784   6.198
 3268SOL    HW121835   3.646   2.755   6.206
 3268SOL    HW221836   3.543   2.849   6.123
 3269SOL     OW21837   3.503   2.970   6.018
 3269SOL    HW121838   3.589   2.972   5.966
 3269SOL    HW221839   3.517   3.017   6.106
 3270SOL     OW21840   2.475   3.227   6.312
 3270SOL    HW121841   2.426   3.140   6.321
 3270SOL    HW221842   2.452   3.270   6.225
 3271SOL     OW21843   2.671   1.866   6.088
 3271SOL    HW121844   2.711   1.957   6.079
 3271SOL    HW221845   2.571   1.874   6.094
 3272SOL     OW21846   2.059   2.838   6.850
 3272SOL    HW121847   2.148   2.793   6.836
 3272SOL    HW221848   1.986   2.773   6.831
 3273SOL     OW21849   3.387   2.861   5.776
 3273SOL    HW121850   3.324   2.785   5.789
 3273SOL    HW221851   3.435   2.879   5.862
 3274SOL     OW21852   3.328   3.279   6.539
 3274SOL    HW121853   3.269   3.285   6.619
 3274SOL    HW221854   3.313   3.191   6.493
 3275SOL     OW21855   2.460   2.591   5.856
 3275SOL    HW121856   2.484   2.660   5.788
 3275SOL    HW221857   2.382   2.624   5.910
 3276SOL     OW21858   3.143   2.207   6.530
 3276SOL    HW121859   3.057   2.157   6.517
 3276SOL    HW221860   3.205   2.153   6.586
 3277SOL     OW21861   2.669   2.467   7.051
 3277SOL    HW121862   2.622   2.464   7.140
 3277SOL    HW221863   2.618   2.412   6.985
 3278SOL     OW21864   2.853   2.272   6.828
 3278SOL    HW121865   2.776   2.306   6.882
 3278SOL    HW221866   2.819   2.221   6.749
 3279SOL     OW21867   2.903   2.563   6.015
 3279SOL    HW121868   2.929   2.559   6.111
 3279SOL    HW221869   2.818   2.512   6.001
 3280SOL     OW21870   1.938   2.673   6.375
 3280SOL    HW121871   2.037   2.661   6.384
 3280SOL    HW221872   1.914   2.768   6.396
 3281SOL     OW21873   1.992   3.683   7.157
 3281SOL    HW121874   1.982   3.668   7.256
 3281SOL    HW221875   1.906   3.719   7.121
 3282SOL     OW21876   2.412   2.058   6.471
 3282SOL    HW121877   2.407   2.053   6.571
 3282SOL    HW221878   2.414   2.154   6.442
 3283SOL     OW21879   2.870   3.318   6.063
 3283SOL    HW121880   2.824   3.390   6.011
 3283SOL    HW221881   2.866   3.338   6.161
 3284SOL     OW21882   2.213   3.663   6.439
 3284SOL    HW121883   2.263   3.577   6.445
 3284SOL    HW221884   2.278   3.740   6.436
 3285SOL     OW21885   3.657   2.928   6.459
 3285SOL    HW121886   3.595   2.913   6.383
 3285SOL    HW221887   3.605   2.939   6.544
 3286SOL     OW21888   3.320   2.597   6.314
 3286SOL    HW121889   3.315   2.532   6.389
 3286SOL    HW221890   3.400   2.656   6.327
 3287SOL     OW21891   2.973   3.638   5.823
 3287SOL    HW121892   2.913   3.576   5.873
 3287SOL    HW221893   3.004   3.594   5.738
 3288SOL     OW21894   2.064   2.147   7.084
 3288SOL    HW121895   1.984   2.207   7.071
 3288SOL    HW221896   2.054   2.098   7.170
 3289SOL     OW21897   2.326   3.605   5.909
 3289SOL    HW121898   2.359   3.644   5.995
 3289SOL    HW221899   2.402   3.598   5.844
 3290SOL     OW21900   2.111   3.647   6.827
 3290SOL    HW121901   2.168   3.582   6.877
 3290SOL    HW221902   2.095   3.614   6.734
 3291SOL     OW21903   2.802   3.560   6.490
 3291SOL    HW121904   2.882   3.503   6.511
 3291SOL    HW221905   2.753   3.520   6.413
 3292SOL     OW21906   2.244   2.562   6.066
 3292SOL    HW121907   2.289   2.472   6.063
 3292SOL    HW221908   2.150   2.551   6.099
 3293SOL     OW21909   2.750   3.376   6.781
 3293SOL    HW121910   2.727   3.351   6.687
 3293SOL    HW221911   2.811   3.307   6.820
 3294SOL     OW21912   2.665   3.264   6.510
 3294SOL    HW121913   2.755   3.278   6.468
 3294SOL    HW221914   2.594   3.266   6.439
 3295SOL     OW21915   2.784   2.365   6.485
 3295SOL    HW121916   2.759   2.356   6.389
 3295SOL    HW221917   2.832   2.283   6.516
 3296SOL     OW21918   2.401   1.926   6.098
 3296SOL    HW121919   2.320   1.927   6.156
 3296SOL    HW221920   2.404   2.009   6.043
 3297SOL     OW21921   3.296   3.050   5.627
 3297SOL    HW121922   3.328   2.974   5.684
 3297SOL    HW221923   3.204   3.077   5.657
 3298SOL     OW21924   3.089   3.432   6.379
 3298SOL    HW121925   3.110   3.506   6.314
 3298SOL    HW221926   3.157   3.432   6.452
 3299SOL     OW21927   2.321   3.014   6.327
 3299SOL    HW121928   2.250   2.987   6.392
 3299SOL    HW221929   2.295   2.986   6.234
 3300SOL     OW21930   3.133   3.659   6.177
 3300SOL    HW121931   3.177   3.723   6.113
 3300SOL    HW221932   3.083   3.711   6.247
 3301SOL     OW21933   1.940   2.418   6.972
 3301SOL    HW121934   2.032   2.417   6.931
 3301SOL    HW221935   1.934   2.492   7.039
 3302SOL     OW21936   2.423   2.084   6.733
 3302SOL    HW121937   2.461   2.000   6.770
 3302SOL    HW221938   2.335   2.103   6.777
 3303SOL     OW21939   2.728   2.316   6.228
 3303SOL    HW121940   2.696   2.388   6.166
 3303SOL    HW221941   2.752   2.235   6.175
 3304SOL     OW21942   2.879   1.901   6.339
 3304SOL    HW121943   2.807   1.906   6.270
 3304SOL    HW221944   2.855   1.832   6.408
 3305SOL     OW21945   3.291   3.035   6.453
 3305SOL    HW121946   3.236   2.951   6.446
 3305SOL    HW221947   3.317   3.064   6.361
 3306SOL     OW21948   3.328   2.452   6.578
 3306SOL    HW121949   3.298   2.357   6.585
 3306SOL    HW221950   3.401   2.468   6.644
 3307SOL     OW21951   2.350   3.247   5.760
 3307SOL    HW121952   2.263   3.232   5.807
 3307SOL    HW221953   2.333   3.273   5.665
 3308SOL     OW21954   3.526   3.142   6.243
 3308SOL    HW121955   3.625   3.150   6.257
 3308SOL    HW221956   3.481   3.226   6.274
 3309SOL     OW21957   3.252   2.437   5.664
 3309SOL    HW121958   3.198   2.416   5.745
 3309SOL    HW221959   3.343   2.396   5.673
 3310SOL     OW21960   2.389   2.118   5.914
 3310SOL    HW121961   2.416   2.059   5.839
 3310SOL    HW221962   2.389   2.213   5.883
 3311SOL     OW21963   2.926   3.209   6.926
 3311SOL    HW121964   2.846   3.186   6.981
 3311SOL    HW221965   3.009   3.183   6.975
 3312SOL     OW21966   2.973   3.057   6.686
 3312SOL    HW121967   2.933   3.101   6.767
 3312SOL    HW221968   2.932   3.094   6.603
 3313SOL     OW21969   3.500   2.961   6.665
 3313SOL    HW121970   3.505   3.042   6.724
 3313SOL    HW221971   3.414   2.963   6.614
 3314SOL     OW21972   2.777   1.951   6.988
 3314SOL    HW121973   2.802   1.931   6.893
 3314SOL    HW221974   2.849   2.007   7.030
 3315SOL     OW21975   2.567   2.912   5.954
 3315SOL    HW121976   2.553   2.919   6.053
 3315SOL    HW221977   2.651   2.861   5.936
 3316SOL     OW21978   2.272   2.675   6.837
 3316SOL    HW121979   2.358   2.687   6.887
 3316SOL    HW221980   2.230   2.588   6.864
 3317SOL     OW21981   3.136   2.248   6.848
 3317SOL    HW121982   3.157   2.322   6.912
 3317SOL    HW221983   3.047   2.265   6.805
 3318SOL     OW21984   1.926   3.426   6.917
 3318SOL    HW121985   1.880   3.508   6.883
 3318SOL    HW221986   2.024   3.445   6.926
 3319SOL     OW21987   2.229   2.962   6.087
 3319SOL    HW121988   2.222   3.045   6.031
 3319SOL    HW221989   2.233   2.882   6.027
 3320SOL     OW21990   2.428   2.399   6.451
 3320SOL    HW121991   2.440   2.465   6.377
 3320SOL    HW221992   2.474   2.433   6.534
 3321SOL     OW21993   3.114   3.210   5.974
 3321SOL    HW121994   3.164   3.287   6.014
 3321SOL    HW221995   3.019   3.212   6.006
 3322SOL     OW21996   3.134   3.307   6.728
 3322SOL    HW121997   3.181   3.320   6.815
 3322SOL    HW221998   3.068   3.233   6.737
 3323SOL     OW21999   3.444   2.501   6.058
 3323SOL    HW122000   3.413   2.562   6.131
 3323SOL    HW222001   3.494   2.553   5.989
 3324SOL     OW22002   2.216   3.372   6.915
 3324SOL    HW122003   2.195   3.328   6.828
 3324SOL    HW222004   2.313   3.398   6.918
 3325SOL     OW22005   2.264   2.613   7.184
 3325SOL    HW122006   2.332   2.668   7.137
 3325SOL    HW222007   2.304   2.525   7.211
 3326SOL     OW22008   3.449   2.641   7.256
 3326SOL    HW122009   3.357   2.679   7.251
 3326SOL    HW222010   3.509   2.688   7.191
 3327SOL     OW22011   2.435   2.732   6.615
 3327SOL    HW122012   2.479   2.821   6.606
 3327SOL    HW222013   2.372   2.732   6.692
 3328SOL     OW22014   3.222   2.724   6.631
 3328SOL    HW122015   3.147   2.724   6.565
 3328SOL    HW222016   3.259   2.632   6.640
 3329SOL     OW22017   3.071   2.387   5.861
 3329SOL    HW122018   3.084   2.303   5.915
 3329SOL    HW222019   3.042   2.461   5.921
 3330SOL     OW22020   2.169   2.075   6.817
 3330SOL    HW122021   2.146   2.112   6.907
 3330SOL    HW222022   2.139   1.980   6.811
 3331SOL     OW22023   1.899   3.172   6.868
 3331SOL    HW122024   1.952   3.123   6.936
 3331SOL    HW222025   1.921   3.270   6.873
 3332SOL     OW22026   2.594   2.496   6.650
 3332SOL    HW122027   2.653   2.470   6.574
 3332SOL    HW222028   2.566   2.592   6.639
 3333SOL     OW22029   2.169   1.925   6.204
 3333SOL    HW122030   2.158   2.019   6.237
 3333SOL    HW222031   2.164   1.862   6.281
 3334SOL     OW22032   2.885   2.628   6.552
 3334SOL    HW122033   2.900   2.649   6.648
 3334SOL    HW222034   2.855   2.533   6.543
 3335SOL     OW22035   2.842   3.435   7.286
 3335SOL    HW122036   2.822   3.479   7.198
 3335SOL    HW222037   2.881   3.344   7.270
 3336SOL     OW22038   3.402   2.136   5.711
 3336SOL    HW122039   3.341   2.061   5.734
 3336SOL    HW222040   3.424   2.188   5.794
 3337SOL     OW22041   2.181   2.672   6.535
 3337SOL    HW122042   2.274   2.708   6.540
 3337SOL    HW222043   2.175   2.587   6.587
 3338SOL     OW22044   2.201   2.371   6.592
 3338SOL    HW122045   2.149   2.288   6.575
 3338SOL    HW222046   2.278   2.376   6.528
 3339SOL     OW22047   3.000   2.242   7.264
 3339SOL    HW122048   2.955   2.305   7.328
 3339SOL    HW222049   3.093   2.273   7.247
 3340SOL     OW22050   3.022   2.069   7.063
 3340SOL    HW122051   3.022   2.133   7.140
 3340SOL    HW222052   3.050   2.117   6.980
 3341SOL     OW22053   1.870   3.188   5.786
 3341SOL    HW122054   1.777   3.209   5.755
 3341SOL    HW222055   1.880   3.089   5.799
 3342SOL     OW22056   1.950   3.663   6.513
 3342SOL    HW122057   1.908   3.577   6.486
 3342SOL    HW222058   2.044   3.666   6.479
 3343SOL     OW22059   2.366   3.430   6.496
 3343SOL    HW122060   2.432   3.504   6.505
 3343SOL    HW222061   2.410   3.351   6.454
 3344SOL     OW22062   2.864   2.658   6.824
 3344SOL    HW122063   2.905   2.626   6.910
 3344SOL    HW222064   2.768   2.631   6.821
 3345SOL     OW22065   1.902   2.406   6.700
 3345SOL    HW122066   1.987   2.373   6.659
 3345SOL    HW222067   1.915   2.421   6.798
 3346SOL     OW22068   3.519   2.466   6.792
 3346SOL    HW122069   3.481   2.397   6.854
 3346SOL    HW222070   3.601   2.430   6.748
 3347SOL     OW22071   2.533   2.326   6.855
 3347SOL    HW122072   2.499   2.237   6.825
 3347SOL    HW222073   2.559   2.380   6.775
 3348SOL     OW22074   2.792   3.540   7.051
 3348SOL    HW122075   2.768   3.522   6.956
 3348SOL    HW222076   2.822   3.634   7.061
 3349SOL     OW22077   2.335   2.362   5.777
 3349SOL    HW122078   2.396   2.442   5.781
 3349SOL    HW222079   2.240   2.393   5.784
 3350SOL     OW22080   2.021   2.999   7.052
 3350SOL    HW122081   2.043   2.938   7.128
 3350SOL    HW222082   2.031   2.950   6.966
 3351SOL     OW22083   3.209   2.921   6.820
 3351SOL    HW122084   3.233   2.858   6.746
 3351SOL    HW222085   3.119   2.961   6.802
 3352SOL     OW22086   3.164   2.717   5.895
 3352SOL    HW122087   3.078   2.686   5.937
 3352SOL    HW222088   3.160   2.703   5.796
 3353SOL     OW22089   3.621   3.609   6.740
 3353SOL    HW122090   3.682   3.639   6.667
 3353SOL    HW222091   3.583   3.520   6.718
 3354SOL     OW22092   3.114   3.593   6.714
 3354SOL    HW122093   3.198   3.598   6.660
 3354SOL    HW222094   3.091   3.497   6.732
 3355SOL     OW22095   1.945   3.120   6.608
 3355SOL    HW122096   1.940   3.119   6.708
 3355SOL    HW222097   1.862   3.079   6.570
 3356SOL     OW22098   3.588   1.997   6.109
 3356SOL    HW122099   3.661   1.980   6.042
 3356SOL    HW222100   3.557   1.910   6.147
 3357SOL     OW22101   3.512   3.582   6.980
 3357SOL    HW122102   3.565   3.592   6.896
 3357SOL    HW222103   3.485   3.672   7.014
 3358SOL     OW22104   3.703   2.037   6.549
 3358SOL    HW122105   3.742   1.952   6.513
 3358SOL    HW222106   3.605   2.039   6.530
 3359SOL     OW22107   2.125   2.188   6.306
 3359SOL    HW122108   2.046   2.239   6.272
 3359SOL    HW222109   2.116   2.173   6.404
 3360SOL     OW22110   3.056   3.474   5.617
 3360SOL    HW122111   3.062   3.381   5.654
 3360SOL    HW222112   2.997   3.474   5.537
 3361SOL     OW22113   2.684   2.864   6.958
 3361SOL    HW122114   2.724   2.863   6.866
 3361SOL    HW222115   2.694   2.956   6.998
 3362SOL     OW22116   2.778   2.772   5.877
 3362SOL    HW122117   2.841   2.810   5.809
 3362SOL    HW222118   2.818   2.689   5.916
 3363SOL     OW22119   3.366   3.469   5.630
 3363SOL    HW122120   3.274   3.506   5.637
 3363SOL    HW222121   3.404   3.489   5.540
 3364SOL     OW22122   2.234   3.150   7.076
 3364SOL    HW122123   2.221   3.243   7.042
 3364SOL    HW222124   2.150   3.098   7.063
 3365SOL     OW22125   3.476   3.154   6.875
 3365SOL    HW122126   3.536   3.157   6.955
 3365SOL    HW222127   3.401   3.218   6.888
 3366SOL     OW22128   2.876   2.098   6.557
 3366SOL    HW122129   2.868   2.062   6.464
 3366SOL    HW222130   2.874   2.022   6.622
 3367SOL     OW22131   2.452   3.349   6.077
 3367SOL    HW122132   2.494   3.291   6.007
 3367SOL    HW222133   2.408   3.428   6.033
 3368SOL     OW22134   3.571   2.247   6.967
 3368SOL    HW122135   3.644   2.316   6.971
 3368SOL    HW222136   3.599   2.172   6.908
 3369SOL     OW22137   2.117   3.210   5.876
 3369SOL    HW122138   2.021   3.211   5.849
 3369SOL    HW222139   2.129   3.263   5.960
 3370SOL     OW22140   3.302   2.718   6.984
 3370SOL    HW122141   3.245   2.770   6.921
 3370SOL    HW222142   3.398   2.730   6.960
 3371SOL     OW22143   2.475   2.704   7.017
 3371SOL    HW122144   2.531   2.785   7.000
 3371SOL    HW222145   2.534   2.624   7.020
 3372SOL     OW22146   3.355   3.629   6.545
 3372SOL    HW122147   3.388   3.693   6.476
 3372SOL    HW222148   3.421   3.623   6.620
 3373SOL     OW22149   2.252   3.603   7.146
 3373SOL    HW122150   2.161   3.644   7.144
 3373SOL    HW222151   2.245   3.509   7.178
 3374SOL     OW22152   3.536   2.745   6.840
 3374SOL    HW122153   3.509   2.656   6.803
 3374SOL    HW222154   3.537   2.813   6.767
 3375SOL     OW22155   2.456   2.607   6.238
 3375SOL    HW122156   2.506   2.692   6.219
 3375SOL    HW222157   2.368   2.609   6.190
 3376SOL     OW22158   3.639   2.204   7.228
 3376SOL    HW122159   3.622   2.235   7.134
 3376SOL    HW222160   3.555   2.167   7.266
 3377SOL     OW22161   3.592   2.796   7.103
 3377SOL    HW122162   3.630   2.887   7.118
 3377SOL    HW222163   3.584   2.779   7.004
 3378SOL     OW22164   2.721   3.236   5.602
 3378SOL    HW122165   2.675   3.251   5.690
 3378SOL    HW222166   2.765   3.321   5.572
 3379SOL     OW22167   2.523   3.652   6.539
 3379SOL    HW122168   2.477   3.740   6.526
 3379SOL    HW222169   2.622   3.664   6.532
 3380SOL     OW22170   2.721   2.818   6.447
 3380SOL    HW122171   2.775   2.749   6.495
 3380SOL    HW222172   2.689   2.887   6.513
 3381SOL     OW22173   3.723   3.431   6.437
 3381SOL    HW122174   3.652   3.419   6.367
 3381SOL    HW222175   3.724   3.352   6.497
 3382SOL     OW22176   1.941   3.102   6.239
 3382SOL    HW122177   1.940   3.055   6.327
 3382SOL    HW222178   2.023   3.074   6.188
 3383SOL     OW22179   3.686   2.054   6.813
 3383SOL    HW122180   3.682   1.964   6.857
 3383SOL    HW222181   3.689   2.043   6.714
 3384SOL     OW22182   2.290   2.286   6.106
 3384SOL    HW122183   2.320   2.214   6.044
 3384SOL    HW222184   2.251   2.246   6.189
 3385SOL     OW22185   3.567   3.349   6.690
 3385SOL    HW122186   3.474   3.324   6.663
 3385SOL    HW222187   3.593   3.299   6.772
 3386SOL     OW22188   2.179   2.409   6.866
 3386SOL    HW122189   2.217   2.350   6.938
 3386SOL    HW222190   2.219   2.383   6.778
 3387SOL     OW22191   2.674   3.448   6.273
 3387SOL    HW122192   2.706   3.458   6.179
 3387SOL    HW222193   2.595   3.386   6.275
 3388SOL     OW22194   3.286   2.076   6.698
 3388SOL    HW122195   3.338   2.011   6.753
 3388SOL    HW222196   3.237   2.139   6.759
 3389SOL     OW22197   2.863   1.896   6.740
 3389SOL    HW122198   2.800   1.824   6.709
 3389SOL    HW222199   2.956   1.860   6.740
 3390SOL     OW22200   2.632   3.192   5.887
 3390SOL    HW122201   2.586   3.105   5.904
 3390SOL    HW222202   2.723   3.189   5.928
 3391SOL     OW22203   2.480   3.429   6.870
 3391SOL    HW122204   2.475   3.511   6.927
 3391SOL    HW222205   2.569   3.426   6.825
 3392SOL     OW22206   2.737   3.508   5.923
 3392SOL    HW122207   2.660   3.473   5.869
 3392SOL    HW222208   2.705   3.579   5.985
 3393SOL     OW22209   2.092   4.352   0.113
 3393SOL    HW122210   1.999   4.350   0.150
 3393SOL    HW222211   2.093   4.313   0.021
 3394SOL     OW22212   2.087   3.999   0.996
 3394SOL    HW122213   2.122   3.982   1.088
 3394SOL    HW222214   1.999   3.954   0.984
 3395SOL     OW22215   1.881   4.092   0.647
 3395SOL    HW122216   1.799   4.135   0.686
 3395SOL    HW222217   1.853   4.019   0.584
 3396SOL     OW22218   2.431   4.999   1.165
 3396SOL    HW122219   2.338   4.992   1.128
 3396SOL    HW222220   2.442   5.088   1.209
 3397SOL     OW22221   3.417   5.235   0.703
 3397SOL    HW122222   3.360   5.219   0.784
 3397SOL    HW222223   3.358   5.245   0.623
 3398SOL     OW22224   2.997   4.427   0.717
 3398SOL    HW122225   3.054   4.505   0.692
 3398SOL    HW222226   2.937   4.453   0.793
 3399SOL     OW22227   3.617   4.331   0.231
 3399SOL    HW122228   3.605   4.318   0.132
 3399SOL    HW222229   3.587   4.250   0.280
 3400SOL     OW22230   2.630   4.868   1.023
 3400SOL    HW122231   2.552   4.885   1.083
 3400SOL    HW222232   2.664   4.955   0.987
 3401SOL     OW22233   2.547   4.736   0.665
 3401SOL    HW122234   2.616   4.720   0.735
 3401SOL    HW222235   2.474   4.793   0.703
 3402SOL     OW22236   2.197   5.159   1.061
 3402SOL    HW122237   2.119   5.128   1.008
 3402SOL    HW222238   2.255   5.217   1.004
 3403SOL     OW22239   3.322   5.229   1.339
 3403SOL    HW122240   3.346   5.323   1.365
 3403SOL    HW222241   3.306   5.175   1.421
 3404SOL     OW22242   2.300   4.116   1.499
 3404SOL    HW122243   2.382   4.060   1.508
 3404SOL    HW222244   2.219   4.058   1.503
 3405SOL     OW22245   3.465   4.171   0.737
 3405SOL    HW122246   3.391   4.217   0.687
 3405SOL    HW222247   3.516   4.239   0.790
 3406SOL     OW22248   2.093   5.437   0.483
 3406SOL    HW122249   2.127   5.514   0.537
 3406SOL    HW222250   2.137   5.437   0.393
 3407SOL     OW22251   2.092   5.158   0.538
 3407SOL    HW122252   2.066   5.254   0.538
 3407SOL    HW222253   2.021   5.104   0.583
 3408SOL     OW22254   2.102   4.815   0.886
 3408SOL    HW122255   2.116   4.731   0.938
 3408SOL    HW222256   2.047   4.879   0.941
 3409SOL     OW22257   2.482   5.510   1.439
 3409SOL    HW122258   2.390   5.493   1.474
 3409SOL    HW222259   2.510   5.602   1.465
 3410SOL     OW22260   2.468   4.688   0.123
 3410SOL    HW122261   2.475   4.772   0.069
 3410SOL    HW222262   2.514   4.701   0.211
 3411SOL     OW22263   3.456   3.838   1.480
 3411SOL    HW122264   3.438   3.905   1.408
 3411SOL    HW222265   3.453   3.884   1.569
 3412SOL     OW22266   1.984   4.367   0.563
 3412SOL    HW122267   1.939   4.279   0.580
 3412SOL    HW222268   1.983   4.421   0.647
 3413SOL     OW22269   3.704   5.491   0.359
 3413SOL    HW122270   3.758   5.462   0.439
 3413SOL    HW222271   3.734   5.581   0.330
 3414SOL     OW22272   1.889   5.320   0.117
 3414SOL    HW122273   1.870   5.224   0.138
 3414SOL    HW222274   1.856   5.378   0.192
 3415SOL     OW22275   3.551   4.646   0.612
 3415SOL    HW122276   3.646   4.617   0.620
 3415SOL    HW222277   3.543   4.711   0.537
 3416SOL     OW22278   3.503   4.832   0.432
 3416SOL    HW122279   3.589   4.834   0.380
 3416SOL    HW222280   3.517   4.879   0.520
 3417SOL     OW22281   2.475   5.089   0.726
 3417SOL    HW122282   2.426   5.002   0.735
 3417SOL    HW222283   2.452   5.132   0.639
 3418SOL     OW22284   3.155   4.952   1.423
 3418SOL    HW122285   3.192   4.879   1.365
 3418SOL    HW222286   3.207   4.957   1.508
 3419SOL     OW22287   2.671   3.728   0.502
 3419SOL    HW122288   2.711   3.819   0.493
 3419SOL    HW222289   2.571   3.736   0.508
 3420SOL     OW22290   2.059   4.700   1.264
 3420SOL    HW122291   2.148   4.655   1.250
 3420SOL    HW222292   1.986   4.635   1.245
 3421SOL     OW22293   3.387   4.723   0.190
 3421SOL    HW122294   3.324   4.647   0.203
 3421SOL    HW222295   3.435   4.741   0.276
 3422SOL     OW22296   3.049   5.516   1.616
 3422SOL    HW122297   3.073   5.576   1.540
 3422SOL    HW222298   3.056   5.421   1.586
 3423SOL     OW22299   3.328   5.141   0.953
 3423SOL    HW122300   3.269   5.147   1.033
 3423SOL    HW222301   3.313   5.053   0.907
 3424SOL     OW22302   3.529   5.438   0.572
 3424SOL    HW122303   3.488   5.415   0.484
 3424SOL    HW222304   3.511   5.364   0.637
 3425SOL     OW22305   2.460   4.453   0.270
 3425SOL    HW122306   2.484   4.522   0.202
 3425SOL    HW222307   2.382   4.486   0.324
 3426SOL     OW22308   3.143   4.069   0.944
 3426SOL    HW122309   3.057   4.019   0.931
 3426SOL    HW222310   3.205   4.015   1.000
 3427SOL     OW22311   3.438   5.386   0.307
 3427SOL    HW122312   3.527   5.432   0.310
 3427SOL    HW222313   3.417   5.362   0.212
 3428SOL     OW22314   2.669   4.329   1.465
 3428SOL    HW122315   2.622   4.326   1.554
 3428SOL    HW222316   2.618   4.274   1.399
 3429SOL     OW22317   2.835   4.614   1.572
 3429SOL    HW122318   2.881   4.530   1.543
 3429SOL    HW222319   2.779   4.648   1.497
 3430SOL     OW22320   2.853   4.134   1.242
 3430SOL    HW122321   2.776   4.168   1.296
 3430SOL    HW222322   2.819   4.083   1.163
 3431SOL     OW22323   2.903   4.425   0.429
 3431SOL    HW122324   2.929   4.421   0.525
 3431SOL    HW222325   2.818   4.374   0.415
 3432SOL     OW22326   1.938   4.535   0.789
 3432SOL    HW122327   2.037   4.523   0.798
 3432SOL    HW222328   1.914   4.630   0.810
 3433SOL     OW22329   2.727   4.072   0.195
 3433SOL    HW122330   2.786   4.135   0.146
 3433SOL    HW222331   2.746   3.978   0.166
 3434SOL     OW22332   3.581   4.309   1.831
 3434SOL    HW122333   3.555   4.398   1.795
 3434SOL    HW222334   3.579   4.241   1.758
 3435SOL     OW22335   3.224   4.868   0.545
 3435SOL    HW122336   3.307   4.839   0.497
 3435SOL    HW222337   3.175   4.935   0.489
 3436SOL     OW22338   2.412   3.920   0.885
 3436SOL    HW122339   2.407   3.915   0.985
 3436SOL    HW222340   2.414   4.016   0.856
 3437SOL     OW22341   2.870   5.180   0.477
 3437SOL    HW122342   2.824   5.252   0.425
 3437SOL    HW222343   2.866   5.200   0.575
 3438SOL     OW22344   2.213   5.525   0.853
 3438SOL    HW122345   2.263   5.439   0.859
 3438SOL    HW222346   2.278   5.602   0.850
 3439SOL     OW22347   3.657   4.790   0.873
 3439SOL    HW122348   3.595   4.775   0.797
 3439SOL    HW222349   3.605   4.801   0.958
 3440SOL     OW22350   3.089   5.274   1.506
 3440SOL    HW122351   3.095   5.197   1.570
 3440SOL    HW222352   3.037   5.248   1.426
 3441SOL     OW22353   2.183   4.667   0.242
 3441SOL    HW122354   2.265   4.706   0.200
 3441SOL    HW222355   2.156   4.585   0.193
 3442SOL     OW22356   3.320   4.459   0.728
 3442SOL    HW122357   3.315   4.394   0.803
 3442SOL    HW222358   3.400   4.518   0.741
 3443SOL     OW22359   2.323   4.990   1.727
 3443SOL    HW122360   2.273   4.991   1.641
 3443SOL    HW222361   2.260   4.972   1.803
 3444SOL     OW22362   2.973   5.500   0.237
 3444SOL    HW122363   2.913   5.438   0.287
 3444SOL    HW222364   3.004   5.456   0.152
 3445SOL     OW22365   3.494   5.101   0.081
 3445SOL    HW122366   3.462   5.195   0.071
 3445SOL    HW222367   3.418   5.038   0.069
 3446SOL     OW22368   2.326   5.467   0.323
 3446SOL    HW122369   2.359   5.506   0.409
 3446SOL    HW222370   2.402   5.460   0.258
 3447SOL     OW22371   3.262   3.831   0.426
 3447SOL    HW122372   3.238   3.794   0.336
 3447SOL    HW222373   3.361   3.847   0.430
 3448SOL     OW22374   2.111   5.509   1.241
 3448SOL    HW122375   2.168   5.444   1.291
 3448SOL    HW222376   2.095   5.476   1.148
 3449SOL     OW22377   2.802   5.422   0.904
 3449SOL    HW122378   2.882   5.365   0.925
 3449SOL    HW222379   2.753   5.382   0.827
 3450SOL     OW22380   2.244   4.424   0.480
 3450SOL    HW122381   2.289   4.334   0.477
 3450SOL    HW222382   2.150   4.413   0.513
 3451SOL     OW22383   3.409   3.946   1.729
 3451SOL    HW122384   3.404   3.983   1.821
 3451SOL    HW222385   3.337   3.877   1.717
 3452SOL     OW22386   2.476   3.846   0.117
 3452SOL    HW122387   2.574   3.824   0.124
 3452SOL    HW222388   2.445   3.829   0.024
 3453SOL     OW22389   2.750   5.238   1.195
 3453SOL    HW122390   2.727   5.213   1.101
 3453SOL    HW222391   2.811   5.169   1.234
 3454SOL     OW22392   2.665   5.126   0.924
 3454SOL    HW122393   2.755   5.140   0.882
 3454SOL    HW222394   2.594   5.128   0.853
 3455SOL     OW22395   2.784   4.227   0.899
 3455SOL    HW122396   2.759   4.218   0.803
 3455SOL    HW222397   2.832   4.145   0.930
 3456SOL     OW22398   2.401   3.788   0.512
 3456SOL    HW122399   2.320   3.789   0.570
 3456SOL    HW222400   2.404   3.871   0.457
 3457SOL     OW22401   3.296   4.912   0.041
 3457SOL    HW122402   3.328   4.836   0.098
 3457SOL    HW222403   3.204   4.939   0.071
 3458SOL     OW22404   2.159   3.759   0.171
 3458SOL    HW122405   2.208   3.843   0.150
 3458SOL    HW222406   2.221   3.694   0.216
 3459SOL     OW22407   2.797   3.960   0.480
 3459SOL    HW122408   2.749   4.001   0.402
 3459SOL    HW222409   2.896   3.958   0.461
 3460SOL     OW22410   2.938   4.407   1.464
 3460SOL    HW122411   2.858   4.346   1.467
 3460SOL    HW222412   3.019   4.354   1.440
 3461SOL     OW22413   3.089   5.294   0.793
 3461SOL    HW122414   3.110   5.368   0.728
 3461SOL    HW222415   3.157   5.294   0.866
 3462SOL     OW22416   2.321   4.876   0.741
 3462SOL    HW122417   2.250   4.849   0.806
 3462SOL    HW222418   2.295   4.848   0.648
 3463SOL     OW22419   3.133   5.521   0.591
 3463SOL    HW122420   3.177   5.585   0.527
 3463SOL    HW222421   3.083   5.573   0.661
 3464SOL     OW22422   2.894   4.273   0.016
 3464SOL    HW122423   2.853   4.355  -0.023
 3464SOL    HW222424   2.958   4.299   0.089
 3465SOL     OW22425   1.940   4.280   1.386
 3465SOL    HW122426   2.032   4.279   1.345
 3465SOL    HW222427   1.934   4.354   1.453
 3466SOL     OW22428   2.423   3.946   1.147
 3466SOL    HW122429   2.461   3.862   1.184
 3466SOL    HW222430   2.335   3.965   1.191
 3467SOL     OW22431   2.728   4.178   0.642
 3467SOL    HW122432   2.696   4.250   0.580
 3467SOL    HW222433   2.752   4.097   0.589
 3468SOL     OW22434   2.879   3.763   0.753
 3468SOL    HW122435   2.807   3.768   0.684
 3468SOL    HW222436   2.855   3.694   0.822
 3469SOL     OW22437   3.291   4.897   0.867
 3469SOL    HW122438   3.236   4.813   0.860
 3469SOL    HW222439   3.317   4.926   0.775
 3470SOL     OW22440   3.328   4.314   0.992
 3470SOL    HW122441   3.298   4.219   0.999
 3470SOL    HW222442   3.401   4.330   1.058
 3471SOL     OW22443   3.719   4.557   0.377
 3471SOL    HW122444   3.761   4.493   0.441
 3471SOL    HW222445   3.681   4.506   0.299
 3472SOL     OW22446   2.350   5.109   0.174
 3472SOL    HW122447   2.263   5.094   0.221
 3472SOL    HW222448   2.333   5.135   0.079
 3473SOL     OW22449   3.526   5.004   0.657
 3473SOL    HW122450   3.625   5.012   0.671
 3473SOL    HW222451   3.481   5.088   0.688
 3474SOL     OW22452   3.252   4.299   0.078
 3474SOL    HW122453   3.198   4.278   0.159
 3474SOL    HW222454   3.343   4.258   0.087
 3475SOL     OW22455   2.389   3.980   0.328
 3475SOL    HW122456   2.416   3.921   0.253
 3475SOL    HW222457   2.389   4.075   0.297
 3476SOL     OW22458   3.616   4.947   1.588
 3476SOL    HW122459   3.707   4.908   1.575
 3476SOL    HW222460   3.624   5.043   1.612
 3477SOL     OW22461   2.926   5.071   1.340
 3477SOL    HW122462   2.846   5.048   1.395
 3477SOL    HW222463   3.009   5.045   1.389
 3478SOL     OW22464   3.454   5.353   1.625
 3478SOL    HW122465   3.481   5.387   1.535
 3478SOL    HW222466   3.533   5.315   1.671
 3479SOL     OW22467   2.973   4.919   1.100
 3479SOL    HW122468   2.933   4.963   1.181
 3479SOL    HW222469   2.932   4.956   1.017
 3480SOL     OW22470   3.500   4.823   1.079
 3480SOL    HW122471   3.505   4.904   1.138
 3480SOL    HW222472   3.414   4.825   1.028
 3481SOL     OW22473   2.777   3.813   1.402
 3481SOL    HW122474   2.802   3.793   1.307
 3481SOL    HW222475   2.849   3.869   1.444
 3482SOL     OW22476   2.842   4.840   1.719
 3482SOL    HW122477   2.743   4.846   1.729
 3482SOL    HW222478   2.865   4.760   1.663
 3483SOL     OW22479   2.567   4.774   0.368
 3483SOL    HW122480   2.553   4.781   0.467
 3483SOL    HW222481   2.651   4.723   0.350
 3484SOL     OW22482   2.272   4.537   1.251
 3484SOL    HW122483   2.358   4.549   1.301
 3484SOL    HW222484   2.230   4.450   1.278
 3485SOL     OW22485   3.136   4.110   1.262
 3485SOL    HW122486   3.157   4.184   1.326
 3485SOL    HW222487   3.047   4.127   1.219
 3486SOL     OW22488   1.926   5.288   1.331
 3486SOL    HW122489   1.880   5.370   1.297
 3486SOL    HW222490   2.024   5.307   1.340
 3487SOL     OW22491   2.229   4.824   0.501
 3487SOL    HW122492   2.222   4.907   0.445
 3487SOL    HW222493   2.233   4.744   0.441
 3488SOL     OW22494   2.428   4.261   0.865
 3488SOL    HW122495   2.440   4.327   0.791
 3488SOL    HW222496   2.474   4.295   0.948
 3489SOL     OW22497   3.114   5.072   0.388
 3489SOL    HW122498   3.164   5.149   0.428
 3489SOL    HW222499   3.019   5.074   0.420
 3490SOL     OW22500   3.134   5.169   1.142
 3490SOL    HW122501   3.181   5.182   1.229
 3490SOL    HW222502   3.068   5.095   1.151
 3491SOL     OW22503   3.444   4.363   0.472
 3491SOL    HW122504   3.413   4.424   0.545
 3491SOL    HW222505   3.494   4.415   0.403
 3492SOL     OW22506   2.216   5.234   1.329
 3492SOL    HW122507   2.195   5.190   1.242
 3492SOL    HW222508   2.313   5.260   1.332
 3493SOL     OW22509   2.264   4.475   1.598
 3493SOL    HW122510   2.332   4.530   1.551
 3493SOL    HW222511   2.304   4.387   1.625
 3494SOL     OW22512   2.435   4.594   1.029
 3494SOL    HW122513   2.479   4.683   1.020
 3494SOL    HW222514   2.372   4.594   1.106
 3495SOL     OW22515   3.222   4.586   1.045
 3495SOL    HW122516   3.147   4.586   0.979
 3495SOL    HW222517   3.259   4.494   1.054
 3496SOL     OW22518   3.071   4.249   0.275
 3496SOL    HW122519   3.084   4.165   0.329
 3496SOL    HW222520   3.042   4.323   0.335
 3497SOL     OW22521   2.169   3.937   1.231
 3497SOL    HW122522   2.146   3.974   1.321
 3497SOL    HW222523   2.139   3.842   1.225
 3498SOL     OW22524   1.899   5.034   1.282
 3498SOL    HW122525   1.952   4.985   1.350
 3498SOL    HW222526   1.921   5.132   1.287
 3499SOL     OW22527   2.594   4.358   1.064
 3499SOL    HW122528   2.653   4.332   0.988
 3499SOL    HW222529   2.566   4.454   1.053
 3500SOL     OW22530   3.590   4.659   1.854
 3500SOL    HW122531   3.544   4.652   1.765
 3500SOL    HW222532   3.528   4.703   1.920
 3501SOL     OW22533   2.169   3.787   0.618
 3501SOL    HW122534   2.158   3.881   0.651
 3501SOL    HW222535   2.164   3.724   0.695
 3502SOL     OW22536   3.484   4.091   0.374
 3502SOL    HW122537   3.486   4.015   0.438
 3502SOL    HW222538   3.436   4.168   0.414
 3503SOL     OW22539   2.885   4.490   0.966
 3503SOL    HW122540   2.900   4.511   1.062
 3503SOL    HW222541   2.855   4.395   0.957
 3504SOL     OW22542   2.842   5.297   1.700
 3504SOL    HW122543   2.822   5.341   1.612
 3504SOL    HW222544   2.881   5.206   1.684
 3505SOL     OW22545   3.721   5.242   1.605
 3505SOL    HW122546   3.735   5.269   1.510
 3505SOL    HW222547   3.804   5.264   1.658
 3506SOL     OW22548   3.402   3.998   0.125
 3506SOL    HW122549   3.341   3.923   0.148
 3506SOL    HW222550   3.424   4.050   0.208
 3507SOL     OW22551   3.165   4.562   0.042
 3507SOL    HW122552   3.199   4.469   0.057
 3507SOL    HW222553   3.183   4.589  -0.053
 3508SOL     OW22554   2.930   5.057   0.849
 3508SOL    HW122555   2.937   4.973   0.794
 3508SOL    HW222556   2.992   5.126   0.813
 3509SOL     OW22557   2.181   4.534   0.949
 3509SOL    HW122558   2.274   4.570   0.954
 3509SOL    HW222559   2.175   4.449   1.001
 3510SOL     OW22560   2.201   4.233   1.006
 3510SOL    HW122561   2.149   4.150   0.989
 3510SOL    HW222562   2.278   4.238   0.942
 3511SOL     OW22563   3.022   3.931   1.477
 3511SOL    HW122564   3.022   3.995   1.554
 3511SOL    HW222565   3.050   3.979   1.394
 3512SOL     OW22566   1.870   5.050   0.200
 3512SOL    HW122567   1.777   5.071   0.169
 3512SOL    HW222568   1.880   4.951   0.213
 3513SOL     OW22569   1.950   5.525   0.927
 3513SOL    HW122570   1.908   5.439   0.900
 3513SOL    HW222571   2.044   5.528   0.893
 3514SOL     OW22572   2.366   5.292   0.910
 3514SOL    HW122573   2.432   5.366   0.919
 3514SOL    HW222574   2.410   5.213   0.868
 3515SOL     OW22575   2.864   4.520   1.238
 3515SOL    HW122576   2.905   4.488   1.324
 3515SOL    HW222577   2.768   4.493   1.235
 3516SOL     OW22578   1.902   4.268   1.114
 3516SOL    HW122579   1.987   4.235   1.073
 3516SOL    HW222580   1.915   4.283   1.212
 3517SOL     OW22581   3.231   4.674   1.660
 3517SOL    HW122582   3.270   4.763   1.680
 3517SOL    HW222583   3.241   4.654   1.563
 3518SOL     OW22584   2.677   4.296   0.325
 3518SOL    HW122585   2.684   4.207   0.279
 3518SOL    HW222586   2.583   4.330   0.317
 3519SOL     OW22587   3.519   4.328   1.206
 3519SOL    HW122588   3.481   4.259   1.268
 3519SOL    HW222589   3.601   4.292   1.162
 3520SOL     OW22590   2.533   4.188   1.269
 3520SOL    HW122591   2.499   4.099   1.239
 3520SOL    HW222592   2.559   4.242   1.189
 3521SOL     OW22593   2.792   5.402   1.465
 3521SOL    HW122594   2.768   5.384   1.370
 3521SOL    HW222595   2.822   5.496   1.475
 3522SOL     OW22596   2.335   4.224   0.191
 3522SOL    HW122597   2.396   4.304   0.195
 3522SOL    HW222598   2.240   4.255   0.198
 3523SOL     OW22599   2.021   4.861   1.466
 3523SOL    HW122600   2.043   4.800   1.542
 3523SOL    HW222601   2.031   4.812   1.380
 3524SOL     OW22602   3.209   4.783   1.234
 3524SOL    HW122603   3.233   4.720   1.160
 3524SOL    HW222604   3.119   4.823   1.216
 3525SOL     OW22605   3.164   4.579   0.309
 3525SOL    HW122606   3.078   4.548   0.351
 3525SOL    HW222607   3.160   4.565   0.210
 3526SOL     OW22608   3.621   5.471   1.154
 3526SOL    HW122609   3.682   5.501   1.081
 3526SOL    HW222610   3.583   5.382   1.132
 3527SOL     OW22611   3.114   5.455   1.128
 3527SOL    HW122612   3.198   5.460   1.074
 3527SOL    HW222613   3.091   5.359   1.146
 3528SOL     OW22614   1.945   4.982   1.022
 3528SOL    HW122615   1.940   4.981   1.122
 3528SOL    HW222616   1.862   4.941   0.984
 3529SOL     OW22617   2.765   3.810   0.133
 3529SOL    HW122618   2.816   3.811   0.047
 3529SOL    HW222619   2.821   3.768   0.204
 3530SOL     OW22620   3.588   3.859   0.523
 3530SOL    HW122621   3.661   3.842   0.456
 3530SOL    HW222622   3.557   3.772   0.561
 3531SOL     OW22623   3.250   5.297   0.477
 3531SOL    HW122624   3.317   5.309   0.403
 3531SOL    HW222625   3.210   5.386   0.500
 3532SOL     OW22626   3.142   4.651   0.672
 3532SOL    HW122627   3.202   4.570   0.674
 3532SOL    HW222628   3.182   4.720   0.612
 3533SOL     OW22629   2.692   4.997   1.422
 3533SOL    HW122630   2.687   5.030   1.517
 3533SOL    HW222631   2.606   5.016   1.376
 3534SOL     OW22632   2.534   5.340   0.154
 3534SOL    HW122633   2.543   5.350   0.055
 3534SOL    HW222634   2.494   5.251   0.175
 3535SOL     OW22635   3.512   5.444   1.394
 3535SOL    HW122636   3.565   5.454   1.310
 3535SOL    HW222637   3.485   5.534   1.428
 3536SOL     OW22638   3.703   3.899   0.963
 3536SOL    HW122639   3.742   3.814   0.927
 3536SOL    HW222640   3.605   3.901   0.944
 3537SOL     OW22641   2.125   4.050   0.720
 3537SOL    HW122642   2.046   4.101   0.686
 3537SOL    HW222643   2.116   4.035   0.818
 3538SOL     OW22644   3.056   5.336   0.031
 3538SOL    HW122645   3.062   5.243   0.068
 3538SOL    HW222646   2.997   5.336  -0.049
 3539SOL     OW22647   2.684   4.726   1.372
 3539SOL    HW122648   2.724   4.725   1.280
 3539SOL    HW222649   2.694   4.818   1.412
 3540SOL     OW22650   2.778   4.634   0.291
 3540SOL    HW122651   2.841   4.672   0.223
 3540SOL    HW222652   2.818   4.551   0.330
 3541SOL     OW22653   3.366   5.331   0.044
 3541SOL    HW122654   3.274   5.368   0.051
 3541SOL    HW222655   3.404   5.351  -0.046
 3542SOL     OW22656   2.234   5.012   1.490
 3542SOL    HW122657   2.221   5.105   1.456
 3542SOL    HW222658   2.150   4.960   1.477
 3543SOL     OW22659   3.476   5.016   1.289
 3543SOL    HW122660   3.536   5.019   1.369
 3543SOL    HW222661   3.401   5.080   1.302
 3544SOL     OW22662   2.901   4.822   0.696
 3544SOL    HW122663   2.831   4.775   0.750
 3544SOL    HW222664   2.960   4.754   0.653
 3545SOL     OW22665   2.876   3.960   0.971
 3545SOL    HW122666   2.868   3.924   0.878
 3545SOL    HW222667   2.874   3.884   1.036
 3546SOL     OW22668   2.452   5.211   0.491
 3546SOL    HW122669   2.494   5.153   0.421
 3546SOL    HW222670   2.408   5.290   0.447
 3547SOL     OW22671   3.571   4.109   1.381
 3547SOL    HW122672   3.644   4.178   1.385
 3547SOL    HW222673   3.599   4.034   1.322
 3548SOL     OW22674   2.117   5.072   0.290
 3548SOL    HW122675   2.021   5.073   0.263
 3548SOL    HW222676   2.129   5.125   0.374
 3549SOL     OW22677   1.967   4.737   1.726
 3549SOL    HW122678   1.890   4.704   1.780
 3549SOL    HW222679   2.052   4.707   1.768
 3550SOL     OW22680   2.534   3.927   1.489
 3550SOL    HW122681   2.624   3.911   1.449
 3550SOL    HW222682   2.542   3.932   1.588
 3551SOL     OW22683   1.934   3.890   0.318
 3551SOL    HW122684   1.917   3.973   0.264
 3551SOL    HW222685   2.024   3.853   0.296
 3552SOL     OW22686   3.045   5.059   0.119
 3552SOL    HW122687   2.946   5.048   0.121
 3552SOL    HW222688   3.079   5.074   0.212
 3553SOL     OW22689   2.475   4.566   1.431
 3553SOL    HW122690   2.531   4.647   1.414
 3553SOL    HW222691   2.534   4.486   1.434
 3554SOL     OW22692   3.355   5.491   0.959
 3554SOL    HW122693   3.388   5.555   0.890
 3554SOL    HW222694   3.421   5.485   1.034
 3555SOL     OW22695   3.312   4.944   1.633
 3555SOL    HW122696   3.303   4.934   1.732
 3555SOL    HW222697   3.408   4.937   1.607
 3556SOL     OW22698   2.252   5.465   1.560
 3556SOL    HW122699   2.161   5.506   1.558
 3556SOL    HW222700   2.245   5.371   1.592
 3557SOL     OW22701   3.536   4.607   1.254
 3557SOL    HW122702   3.509   4.518   1.217
 3557SOL    HW222703   3.537   4.675   1.181
 3558SOL     OW22704   3.087   4.049   0.449
 3558SOL    HW122705   3.152   3.975   0.438
 3558SOL    HW222706   3.107   4.099   0.533
 3559SOL     OW22707   2.456   4.469   0.652
 3559SOL    HW122708   2.506   4.554   0.633
 3559SOL    HW222709   2.368   4.471   0.604
 3560SOL     OW22710   3.639   4.066   1.642
 3560SOL    HW122711   3.622   4.097   1.548
 3560SOL    HW222712   3.555   4.029   1.680
 3561SOL     OW22713   3.592   4.658   1.517
 3561SOL    HW122714   3.630   4.749   1.532
 3561SOL    HW222715   3.584   4.641   1.418
 3562SOL     OW22716   2.721   5.098   0.016
 3562SOL    HW122717   2.675   5.113   0.104
 3562SOL    HW222718   2.765   5.183  -0.014
 3563SOL     OW22719   2.523   5.514   0.953
 3563SOL    HW122720   2.477   5.602   0.940
 3563SOL    HW222721   2.622   5.526   0.946
 3564SOL     OW22722   2.721   4.680   0.861
 3564SOL    HW122723   2.775   4.611   0.909
 3564SOL    HW222724   2.689   4.749   0.927
 3565SOL     OW22725   2.945   4.708   0.087
 3565SOL    HW122726   2.922   4.761   0.005
 3565SOL    HW222727   3.026   4.652   0.068
 3566SOL     OW22728   3.723   5.293   0.851
 3566SOL    HW122729   3.652   5.281   0.781
 3566SOL    HW222730   3.724   5.214   0.911
 3567SOL     OW22731   1.941   4.964   0.653
 3567SOL    HW122732   1.940   4.917   0.741
 3567SOL    HW222733   2.023   4.936   0.602
 3568SOL     OW22734   2.534   5.115   1.624
 3568SOL    HW122735   2.456   5.065   1.662
 3568SOL    HW222736   2.531   5.210   1.655
 3569SOL     OW22737   3.686   3.916   1.227
 3569SOL    HW122738   3.682   3.826   1.271
 3569SOL    HW222739   3.689   3.905   1.128
 3570SOL     OW22740   2.290   4.148   0.520
 3570SOL    HW122741   2.320   4.076   0.458
 3570SOL    HW222742   2.251   4.108   0.603
 3571SOL     OW22743   3.567   5.211   1.104
 3571SOL    HW122744   3.474   5.186   1.077
 3571SOL    HW222745   3.593   5.161   1.186
 3572SOL     OW22746   2.179   4.271   1.280
 3572SOL    HW122747   2.217   4.212   1.352
 3572SOL    HW222748   2.219   4.245   1.192
 3573SOL     OW22749   2.674   5.310   0.687
 3573SOL    HW122750   2.706   5.320   0.593
 3573SOL    HW222751   2.595   5.248   0.689
 3574SOL     OW22752   3.286   3.938   1.112
 3574SOL    HW122753   3.338   3.873   1.167
 3574SOL    HW222754   3.237   4.001   1.173
 3575SOL     OW22755   2.863   3.758   1.154
 3575SOL    HW122756   2.800   3.686   1.123
 3575SOL    HW222757   2.956   3.722   1.154
 3576SOL     OW22758   2.632   5.054   0.301
 3576SOL    HW122759   2.586   4.967   0.318
 3576SOL    HW222760   2.723   5.051   0.342
 3577SOL     OW22761   2.480   5.291   1.284
 3577SOL    HW122762   2.475   5.373   1.341
 3577SOL    HW222763   2.569   5.288   1.239
 3578SOL     OW22764   3.214   3.776   0.168
 3578SOL    HW122765   3.249   3.735   0.084
 3578SOL    HW222766   3.124   3.738   0.188
 3579SOL     OW22767   3.162   4.177   0.691
 3579SOL    HW122768   3.103   4.257   0.695
 3579SOL    HW222769   3.177   4.142   0.784
 3580SOL     OW22770   3.455   3.945   0.882
 3580SOL    HW122771   3.371   3.944   0.936
 3580SOL    HW222772   3.457   4.028   0.826
 3581SOL     OW22773   1.901   4.801   0.300
 3581SOL    HW122774   2.000   4.790   0.291
 3581SOL    HW222775   1.861   4.715   0.332
 3582SOL     OW22776   2.737   5.370   0.337
 3582SOL    HW122777   2.660   5.335   0.283
 3582SOL    HW222778   2.705   5.441   0.399
 3583SOL     OW22779   2.997   4.427   2.579
 3583SOL    HW122780   3.054   4.505   2.554
 3583SOL    HW222781   2.937   4.453   2.655
 3584SOL     OW22782   3.617   4.331   2.093
 3584SOL    HW122783   3.605   4.318   1.994
 3584SOL    HW222784   3.587   4.250   2.142
 3585SOL     OW22785   2.300   4.116   3.361
 3585SOL    HW122786   2.382   4.060   3.370
 3585SOL    HW222787   2.219   4.058   3.365
 3586SOL     OW22788   3.465   4.171   2.599
 3586SOL    HW122789   3.391   4.217   2.549
 3586SOL    HW222790   3.516   4.239   2.652
 3587SOL     OW22791   2.093   5.437   2.345
 3587SOL    HW122792   2.127   5.514   2.399
 3587SOL    HW222793   2.137   5.437   2.255
 3588SOL     OW22794   2.092   5.158   2.400
 3588SOL    HW122795   2.066   5.254   2.400
 3588SOL    HW222796   2.021   5.104   2.445
 3589SOL     OW22797   1.889   5.320   1.979
 3589SOL    HW122798   1.870   5.224   2.000
 3589SOL    HW222799   1.856   5.378   2.054
 3590SOL     OW22800   3.387   4.723   2.052
 3590SOL    HW122801   3.324   4.647   2.065
 3590SOL    HW222802   3.435   4.741   2.138
 3591SOL     OW22803   3.049   5.516   3.478
 3591SOL    HW122804   3.073   5.576   3.402
 3591SOL    HW222805   3.056   5.421   3.448
 3592SOL     OW22806   2.669   4.329   3.327
 3592SOL    HW122807   2.622   4.326   3.416
 3592SOL    HW222808   2.618   4.274   3.261
 3593SOL     OW22809   3.256   4.193   3.536
 3593SOL    HW122810   3.236   4.236   3.624
 3593SOL    HW222811   3.334   4.131   3.545
 3594SOL     OW22812   2.853   4.134   3.104
 3594SOL    HW122813   2.776   4.168   3.158
 3594SOL    HW222814   2.819   4.083   3.025
 3595SOL     OW22815   2.903   4.425   2.291
 3595SOL    HW122816   2.929   4.421   2.387
 3595SOL    HW222817   2.818   4.374   2.277
 3596SOL     OW22818   1.992   5.545   3.433
 3596SOL    HW122819   1.982   5.530   3.532
 3596SOL    HW222820   1.906   5.581   3.397
 3597SOL     OW22821   2.870   5.180   2.339
 3597SOL    HW122822   2.824   5.252   2.287
 3597SOL    HW222823   2.866   5.200   2.437
 3598SOL     OW22824   3.657   4.790   2.735
 3598SOL    HW122825   3.595   4.775   2.659
 3598SOL    HW222826   3.605   4.801   2.820
 3599SOL     OW22827   3.089   5.274   3.368
 3599SOL    HW122828   3.095   5.197   3.432
 3599SOL    HW222829   3.037   5.248   3.288
 3600SOL     OW22830   3.494   5.101   1.943
 3600SOL    HW122831   3.462   5.195   1.933
 3600SOL    HW222832   3.418   5.038   1.931
 3601SOL     OW22833   2.111   5.509   3.103
 3601SOL    HW122834   2.168   5.444   3.153
 3601SOL    HW222835   2.095   5.476   3.010
 3602SOL     OW22836   3.409   3.946   3.591
 3602SOL    HW122837   3.404   3.983   3.683
 3602SOL    HW222838   3.337   3.877   3.579
 3603SOL     OW22839   3.213   4.314   3.295
 3603SOL    HW122840   3.241   4.271   3.380
 3603SOL    HW222841   3.238   4.410   3.296
 3604SOL     OW22842   2.159   3.759   2.033
 3604SOL    HW122843   2.208   3.843   2.012
 3604SOL    HW222844   2.221   3.694   2.078
 3605SOL     OW22845   3.133   5.521   2.453
 3605SOL    HW122846   3.177   5.585   2.389
 3605SOL    HW222847   3.083   5.573   2.523
 3606SOL     OW22848   2.728   4.178   2.504
 3606SOL    HW122849   2.696   4.250   2.442
 3606SOL    HW222850   2.752   4.097   2.451
 3607SOL     OW22851   2.879   3.763   2.615
 3607SOL    HW122852   2.807   3.768   2.546
 3607SOL    HW222853   2.855   3.694   2.684
 3608SOL     OW22854   3.526   5.004   2.519
 3608SOL    HW122855   3.625   5.012   2.533
 3608SOL    HW222856   3.481   5.088   2.550
 3609SOL     OW22857   3.616   4.947   3.450
 3609SOL    HW122858   3.707   4.908   3.437
 3609SOL    HW222859   3.624   5.043   3.474
 3610SOL     OW22860   3.454   5.353   3.487
 3610SOL    HW122861   3.481   5.387   3.397
 3610SOL    HW222862   3.533   5.315   3.533
 3611SOL     OW22863   3.500   4.823   2.941
 3611SOL    HW122864   3.505   4.904   3.000
 3611SOL    HW222865   3.414   4.825   2.890
 3612SOL     OW22866   2.777   3.813   3.264
 3612SOL    HW122867   2.802   3.793   3.169
 3612SOL    HW222868   2.849   3.869   3.306
 3613SOL     OW22869   2.842   4.840   3.581
 3613SOL    HW122870   2.743   4.846   3.591
 3613SOL    HW222871   2.865   4.760   3.525
 3614SOL     OW22872   3.136   4.110   3.124
 3614SOL    HW122873   3.157   4.184   3.188
 3614SOL    HW222874   3.047   4.127   3.081
 3615SOL     OW22875   2.229   4.824   2.363
 3615SOL    HW122876   2.222   4.907   2.307
 3615SOL    HW222877   2.233   4.744   2.303
 3616SOL     OW22878   2.428   4.261   2.727
 3616SOL    HW122879   2.440   4.327   2.653
 3616SOL    HW222880   2.474   4.295   2.810
 3617SOL     OW22881   3.114   5.072   2.250
 3617SOL    HW122882   3.164   5.149   2.290
 3617SOL    HW222883   3.019   5.074   2.282
 3618SOL     OW22884   2.366   3.774   3.602
 3618SOL    HW122885   2.324   3.717   3.532
 3618SOL    HW222886   2.300   3.843   3.634
 3619SOL     OW22887   2.169   3.937   3.093
 3619SOL    HW122888   2.146   3.974   3.183
 3619SOL    HW222889   2.139   3.842   3.087
 3620SOL     OW22890   1.899   5.034   3.144
 3620SOL    HW122891   1.952   4.985   3.212
 3620SOL    HW222892   1.921   5.132   3.149
 3621SOL     OW22893   2.212   4.622   3.666
 3621SOL    HW122894   2.288   4.666   3.714
 3621SOL    HW222895   2.247   4.575   3.584
 3622SOL     OW22896   2.930   5.057   2.711
 3622SOL    HW122897   2.937   4.973   2.656
 3622SOL    HW222898   2.992   5.126   2.675
 3623SOL     OW22899   2.201   4.233   2.868
 3623SOL    HW122900   2.149   4.150   2.851
 3623SOL    HW222901   2.278   4.238   2.804
 3624SOL     OW22902   1.870   5.050   2.062
 3624SOL    HW122903   1.777   5.071   2.031
 3624SOL    HW222904   1.880   4.951   2.075
 3625SOL     OW22905   2.366   5.292   2.772
 3625SOL    HW122906   2.432   5.366   2.781
 3625SOL    HW222907   2.410   5.213   2.730
 3626SOL     OW22908   2.051   4.244   3.584
 3626SOL    HW122909   2.110   4.204   3.514
 3626SOL    HW222910   1.993   4.315   3.543
 3627SOL     OW22911   2.533   4.188   3.131
 3627SOL    HW122912   2.499   4.099   3.101
 3627SOL    HW222913   2.559   4.242   3.051
 3628SOL     OW22914   2.021   4.861   3.328
 3628SOL    HW122915   2.043   4.800   3.404
 3628SOL    HW222916   2.031   4.812   3.242
 3629SOL     OW22917   3.114   5.455   2.990
 3629SOL    HW122918   3.198   5.460   2.936
 3629SOL    HW222919   3.091   5.359   3.008
 3630SOL     OW22920   2.550   5.386   3.578
 3630SOL    HW122921   2.494   5.467   3.587
 3630SOL    HW222922   2.602   5.390   3.492
 3631SOL     OW22923   3.250   5.297   2.339
 3631SOL    HW122924   3.317   5.309   2.265
 3631SOL    HW222925   3.210   5.386   2.362
 3632SOL     OW22926   1.992   5.518   3.713
 3632SOL    HW122927   1.951   5.444   3.766
 3632SOL    HW222928   2.056   5.569   3.771
 3633SOL     OW22929   3.703   3.899   2.825
 3633SOL    HW122930   3.742   3.814   2.789
 3633SOL    HW222931   3.605   3.901   2.806
 3634SOL     OW22932   2.684   4.726   3.234
 3634SOL    HW122933   2.724   4.725   3.142
 3634SOL    HW222934   2.694   4.818   3.274
 3635SOL     OW22935   3.476   5.016   3.151
 3635SOL    HW122936   3.536   5.019   3.231
 3635SOL    HW222937   3.401   5.080   3.164
 3636SOL     OW22938   2.901   4.822   2.558
 3636SOL    HW122939   2.831   4.775   2.612
 3636SOL    HW222940   2.960   4.754   2.515
 3637SOL     OW22941   1.967   4.737   3.588
 3637SOL    HW122942   1.890   4.704   3.642
 3637SOL    HW222943   2.052   4.707   3.630
 3638SOL     OW22944   2.534   3.927   3.351
 3638SOL    HW122945   2.624   3.911   3.311
 3638SOL    HW222946   2.542   3.932   3.450
 3639SOL     OW22947   1.934   3.890   2.180
 3639SOL    HW122948   1.917   3.973   2.126
 3639SOL    HW222949   2.024   3.853   2.158
 3640SOL     OW22950   2.721   4.680   2.723
 3640SOL    HW122951   2.775   4.611   2.771
 3640SOL    HW222952   2.689   4.749   2.789
 3641SOL     OW22953   2.674   5.310   2.549
 3641SOL    HW122954   2.706   5.320   2.455
 3641SOL    HW222955   2.595   5.248   2.551
 3642SOL     OW22956   3.214   3.776   2.030
 3642SOL    HW122957   3.249   3.735   1.946
 3642SOL    HW222958   3.124   3.738   2.050
 3643SOL     OW22959   2.087   3.999   4.720
 3643SOL    HW122960   2.122   3.982   4.812
 3643SOL    HW222961   1.999   3.954   4.708
 3644SOL     OW22962   2.431   4.999   4.889
 3644SOL    HW122963   2.338   4.992   4.852
 3644SOL    HW222964   2.442   5.088   4.933
 3645SOL     OW22965   2.547   4.736   4.389
 3645SOL    HW122966   2.616   4.720   4.459
 3645SOL    HW222967   2.474   4.793   4.427
 3646SOL     OW22968   2.197   5.159   4.785
 3646SOL    HW122969   2.119   5.128   4.732
 3646SOL    HW222970   2.255   5.217   4.728
 3647SOL     OW22971   2.102   4.815   4.610
 3647SOL    HW122972   2.116   4.731   4.662
 3647SOL    HW222973   2.047   4.879   4.665
 3648SOL     OW22974   2.482   5.510   5.163
 3648SOL    HW122975   2.390   5.493   5.198
 3648SOL    HW222976   2.510   5.602   5.189
 3649SOL     OW22977   2.468   4.688   3.847
 3649SOL    HW122978   2.475   4.772   3.793
 3649SOL    HW222979   2.514   4.701   3.935
 3650SOL     OW22980   3.456   3.838   5.204
 3650SOL    HW122981   3.438   3.905   5.132
 3650SOL    HW222982   3.453   3.884   5.293
 3651SOL     OW22983   1.984   4.367   4.287
 3651SOL    HW122984   1.939   4.279   4.304
 3651SOL    HW222985   1.983   4.421   4.371
 3652SOL     OW22986   3.704   5.491   4.083
 3652SOL    HW122987   3.758   5.462   4.163
 3652SOL    HW222988   3.734   5.581   4.054
 3653SOL     OW22989   3.503   4.832   4.156
 3653SOL    HW122990   3.589   4.834   4.104
 3653SOL    HW222991   3.517   4.879   4.244
 3654SOL     OW22992   1.975   4.461   5.321
 3654SOL    HW122993   2.063   4.448   5.366
 3654SOL    HW222994   1.962   4.558   5.299
 3655SOL     OW22995   2.671   3.728   4.226
 3655SOL    HW122996   2.711   3.819   4.217
 3655SOL    HW222997   2.571   3.736   4.232
 3656SOL     OW22998   3.387   4.723   3.914
 3656SOL    HW122999   3.324   4.647   3.927
 3656SOL    HW223000   3.435   4.741   4.000
 3657SOL     OW23001   2.903   4.425   4.153
 3657SOL    HW123002   2.929   4.421   4.249
 3657SOL    HW223003   2.818   4.374   4.139
 3658SOL     OW23004   1.938   4.535   4.513
 3658SOL    HW123005   2.037   4.523   4.522
 3658SOL    HW223006   1.914   4.630   4.534
 3659SOL     OW23007   1.992   5.545   5.295
 3659SOL    HW123008   1.982   5.530   5.394
 3659SOL    HW223009   1.906   5.581   5.259
 3660SOL     OW23010   2.412   3.920   4.609
 3660SOL    HW123011   2.407   3.915   4.709
 3660SOL    HW223012   2.414   4.016   4.580
 3661SOL     OW23013   3.657   4.790   4.597
 3661SOL    HW123014   3.595   4.775   4.521
 3661SOL    HW223015   3.605   4.801   4.682
 3662SOL     OW23016   3.089   5.274   5.230
 3662SOL    HW123017   3.095   5.197   5.294
 3662SOL    HW223018   3.037   5.248   5.150
 3663SOL     OW23019   3.494   5.101   3.805
 3663SOL    HW123020   3.462   5.195   3.795
 3663SOL    HW223021   3.418   5.038   3.793
 3664SOL     OW23022   2.244   4.424   4.204
 3664SOL    HW123023   2.289   4.334   4.201
 3664SOL    HW223024   2.150   4.413   4.237
 3665SOL     OW23025   3.409   3.946   5.453
 3665SOL    HW123026   3.404   3.983   5.545
 3665SOL    HW223027   3.337   3.877   5.441
 3666SOL     OW23028   2.476   3.846   3.841
 3666SOL    HW123029   2.574   3.824   3.848
 3666SOL    HW223030   2.445   3.829   3.748
 3667SOL     OW23031   3.089   5.294   4.517
 3667SOL    HW123032   3.110   5.368   4.452
 3667SOL    HW223033   3.157   5.294   4.590
 3668SOL     OW23034   3.133   5.521   4.315
 3668SOL    HW123035   3.177   5.585   4.251
 3668SOL    HW223036   3.083   5.573   4.385
 3669SOL     OW23037   2.423   3.946   4.871
 3669SOL    HW123038   2.461   3.862   4.908
 3669SOL    HW223039   2.335   3.965   4.915
 3670SOL     OW23040   3.291   4.897   4.591
 3670SOL    HW123041   3.236   4.813   4.584
 3670SOL    HW223042   3.317   4.926   4.499
 3671SOL     OW23043   3.328   4.314   4.716
 3671SOL    HW123044   3.298   4.219   4.723
 3671SOL    HW223045   3.401   4.330   4.782
 3672SOL     OW23046   2.350   5.109   3.898
 3672SOL    HW123047   2.263   5.094   3.945
 3672SOL    HW223048   2.333   5.135   3.803
 3673SOL     OW23049   3.526   5.004   4.381
 3673SOL    HW123050   3.625   5.012   4.395
 3673SOL    HW223051   3.481   5.088   4.412
 3674SOL     OW23052   2.389   3.980   4.052
 3674SOL    HW123053   2.416   3.921   3.977
 3674SOL    HW223054   2.389   4.075   4.021
 3675SOL     OW23055   3.616   4.947   5.312
 3675SOL    HW123056   3.707   4.908   5.299
 3675SOL    HW223057   3.624   5.043   5.336
 3676SOL     OW23058   3.500   4.823   4.803
 3676SOL    HW123059   3.505   4.904   4.862
 3676SOL    HW223060   3.414   4.825   4.752
 3677SOL     OW23061   2.842   4.840   5.443
 3677SOL    HW123062   2.743   4.846   5.453
 3677SOL    HW223063   2.865   4.760   5.387
 3678SOL     OW23064   3.114   5.072   4.112
 3678SOL    HW123065   3.164   5.149   4.152
 3678SOL    HW223066   3.019   5.074   4.144
 3679SOL     OW23067   3.444   4.363   4.196
 3679SOL    HW123068   3.413   4.424   4.269
 3679SOL    HW223069   3.494   4.415   4.127
 3680SOL     OW23070   2.875   3.829   5.494
 3680SOL    HW123071   2.881   3.914   5.442
 3680SOL    HW223072   2.907   3.753   5.437
 3681SOL     OW23073   2.169   3.937   4.955
 3681SOL    HW123074   2.146   3.974   5.045
 3681SOL    HW223075   2.139   3.842   4.949
 3682SOL     OW23076   2.594   4.358   4.788
 3682SOL    HW123077   2.653   4.332   4.712
 3682SOL    HW223078   2.566   4.454   4.777
 3683SOL     OW23079   3.484   4.091   4.098
 3683SOL    HW123080   3.486   4.015   4.162
 3683SOL    HW223081   3.436   4.168   4.138
 3684SOL     OW23082   2.181   4.534   4.673
 3684SOL    HW123083   2.274   4.570   4.678
 3684SOL    HW223084   2.175   4.449   4.725
 3685SOL     OW23085   2.051   4.244   5.446
 3685SOL    HW123086   2.110   4.204   5.376
 3685SOL    HW223087   1.993   4.315   5.405
 3686SOL     OW23088   2.114   5.288   5.468
 3686SOL    HW123089   2.084   5.345   5.544
 3686SOL    HW223090   2.107   5.191   5.494
 3687SOL     OW23091   2.021   4.861   5.190
 3687SOL    HW123092   2.043   4.800   5.266
 3687SOL    HW223093   2.031   4.812   5.104
 3688SOL     OW23094   3.209   4.783   4.958
 3688SOL    HW123095   3.233   4.720   4.884
 3688SOL    HW223096   3.119   4.823   4.940
 3689SOL     OW23097   3.114   5.455   4.852
 3689SOL    HW123098   3.198   5.460   4.798
 3689SOL    HW223099   3.091   5.359   4.870
 3690SOL     OW23100   1.945   4.982   4.746
 3690SOL    HW123101   1.940   4.981   4.846
 3690SOL    HW223102   1.862   4.941   4.708
 3691SOL     OW23103   3.250   5.297   4.201
 3691SOL    HW123104   3.317   5.309   4.127
 3691SOL    HW223105   3.210   5.386   4.224
 3692SOL     OW23106   1.992   5.518   5.575
 3692SOL    HW123107   1.951   5.444   5.628
 3692SOL    HW223108   2.056   5.569   5.633
 3693SOL     OW23109   3.142   4.651   4.396
 3693SOL    HW123110   3.202   4.570   4.398
 3693SOL    HW223111   3.182   4.720   4.336
 3694SOL     OW23112   2.534   5.340   3.878
 3694SOL    HW123113   2.543   5.350   3.779
 3694SOL    HW223114   2.494   5.251   3.899
 3695SOL     OW23115   2.125   4.050   4.444
 3695SOL    HW123116   2.046   4.101   4.410
 3695SOL    HW223117   2.116   4.035   4.542
 3696SOL     OW23118   3.056   5.336   3.755
 3696SOL    HW123119   3.062   5.243   3.792
 3696SOL    HW223120   2.997   5.336   3.675
 3697SOL     OW23121   2.778   4.634   4.015
 3697SOL    HW123122   2.841   4.672   3.947
 3697SOL    HW223123   2.818   4.551   4.054
 3698SOL     OW23124   2.234   5.012   5.214
 3698SOL    HW123125   2.221   5.105   5.180
 3698SOL    HW223126   2.150   4.960   5.201
 3699SOL     OW23127   3.476   5.016   5.013
 3699SOL    HW123128   3.536   5.019   5.093
 3699SOL    HW223129   3.401   5.080   5.026
 3700SOL     OW23130   2.117   5.072   4.014
 3700SOL    HW123131   2.021   5.073   3.987
 3700SOL    HW223132   2.129   5.125   4.098
 3701SOL     OW23133   1.967   4.737   5.450
 3701SOL    HW123134   1.890   4.704   5.504
 3701SOL    HW223135   2.052   4.707   5.492
 3702SOL     OW23136   1.934   3.890   4.042
 3702SOL    HW123137   1.917   3.973   3.988
 3702SOL    HW223138   2.024   3.853   4.020
 3703SOL     OW23139   2.578   4.289   5.432
 3703SOL    HW123140   2.597   4.354   5.506
 3703SOL    HW223141   2.638   4.209   5.441
 3704SOL     OW23142   2.252   5.465   5.284
 3704SOL    HW123143   2.161   5.506   5.282
 3704SOL    HW223144   2.245   5.371   5.316
 3705SOL     OW23145   3.536   4.607   4.978
 3705SOL    HW123146   3.509   4.518   4.941
 3705SOL    HW223147   3.537   4.675   4.905
 3706SOL     OW23148   2.721   5.098   3.740
 3706SOL    HW123149   2.675   5.113   3.828
 3706SOL    HW223150   2.765   5.183   3.710
 3707SOL     OW23151   2.721   4.680   4.585
 3707SOL    HW123152   2.775   4.611   4.633
 3707SOL    HW223153   2.689   4.749   4.651
 3708SOL     OW23154   2.083   5.038   5.568
 3708SOL    HW123155   2.018   4.965   5.547
 3708SOL    HW223156   2.087   5.052   5.666
 3709SOL     OW23157   2.534   5.115   5.348
 3709SOL    HW123158   2.456   5.065   5.386
 3709SOL    HW223159   2.531   5.210   5.379
 3710SOL     OW23160   2.290   4.148   4.244
 3710SOL    HW123161   2.320   4.076   4.182
 3710SOL    HW223162   2.251   4.108   4.327
 3711SOL     OW23163   3.214   3.776   3.892
 3711SOL    HW123164   3.249   3.735   3.808
 3711SOL    HW223165   3.124   3.738   3.912
 3712SOL     OW23166   1.901   4.801   4.024
 3712SOL    HW123167   2.000   4.790   4.015
 3712SOL    HW223168   1.861   4.715   4.056
 3713SOL     OW23169   2.087   3.999   6.582
 3713SOL    HW123170   2.122   3.982   6.674
 3713SOL    HW223171   1.999   3.954   6.570
 3714SOL     OW23172   1.881   4.092   6.233
 3714SOL    HW123173   1.799   4.135   6.272
 3714SOL    HW223174   1.853   4.019   6.170
 3715SOL     OW23175   2.431   4.999   6.751
 3715SOL    HW123176   2.338   4.992   6.714
 3715SOL    HW223177   2.442   5.088   6.795
 3716SOL     OW23178   3.417   5.235   6.289
 3716SOL    HW123179   3.360   5.219   6.370
 3716SOL    HW223180   3.358   5.245   6.209
 3717SOL     OW23181   2.997   4.427   6.303
 3717SOL    HW123182   3.054   4.505   6.278
 3717SOL    HW223183   2.937   4.453   6.379
 3718SOL     OW23184   3.617   4.331   5.817
 3718SOL    HW123185   3.605   4.318   5.718
 3718SOL    HW223186   3.587   4.250   5.866
 3719SOL     OW23187   2.630   4.868   6.609
 3719SOL    HW123188   2.552   4.885   6.669
 3719SOL    HW223189   2.664   4.955   6.573
 3720SOL     OW23190   2.547   4.736   6.251
 3720SOL    HW123191   2.616   4.720   6.321
 3720SOL    HW223192   2.474   4.793   6.289
 3721SOL     OW23193   2.197   5.159   6.647
 3721SOL    HW123194   2.119   5.128   6.594
 3721SOL    HW223195   2.255   5.217   6.590
 3722SOL     OW23196   3.322   5.229   6.925
 3722SOL    HW123197   3.346   5.323   6.951
 3722SOL    HW223198   3.306   5.175   7.007
 3723SOL     OW23199   2.300   4.116   7.085
 3723SOL    HW123200   2.382   4.060   7.094
 3723SOL    HW223201   2.219   4.058   7.089
 3724SOL     OW23202   2.093   5.437   6.069
 3724SOL    HW123203   2.127   5.514   6.123
 3724SOL    HW223204   2.137   5.437   5.979
 3725SOL     OW23205   2.092   5.158   6.124
 3725SOL    HW123206   2.066   5.254   6.124
 3725SOL    HW223207   2.021   5.104   6.169
 3726SOL     OW23208   2.102   4.815   6.472
 3726SOL    HW123209   2.116   4.731   6.524
 3726SOL    HW223210   2.047   4.879   6.527
 3727SOL     OW23211   2.482   5.510   7.025
 3727SOL    HW123212   2.390   5.493   7.060
 3727SOL    HW223213   2.510   5.602   7.051
 3728SOL     OW23214   3.456   3.838   7.066
 3728SOL    HW123215   3.438   3.905   6.994
 3728SOL    HW223216   3.453   3.884   7.155
 3729SOL     OW23217   1.984   4.367   6.149
 3729SOL    HW123218   1.939   4.279   6.166
 3729SOL    HW223219   1.983   4.421   6.233
 3730SOL     OW23220   3.704   5.491   5.945
 3730SOL    HW123221   3.758   5.462   6.025
 3730SOL    HW223222   3.734   5.581   5.916
 3731SOL     OW23223   1.889   5.320   5.703
 3731SOL    HW123224   1.870   5.224   5.724
 3731SOL    HW223225   1.856   5.378   5.778
 3732SOL     OW23226   3.551   4.646   6.198
 3732SOL    HW123227   3.646   4.617   6.206
 3732SOL    HW223228   3.543   4.711   6.123
 3733SOL     OW23229   3.503   4.832   6.018
 3733SOL    HW123230   3.589   4.834   5.966
 3733SOL    HW223231   3.517   4.879   6.106
 3734SOL     OW23232   2.475   5.089   6.312
 3734SOL    HW123233   2.426   5.002   6.321
 3734SOL    HW223234   2.452   5.132   6.225
 3735SOL     OW23235   2.671   3.728   6.088
 3735SOL    HW123236   2.711   3.819   6.079
 3735SOL    HW223237   2.571   3.736   6.094
 3736SOL     OW23238   2.059   4.700   6.850
 3736SOL    HW123239   2.148   4.655   6.836
 3736SOL    HW223240   1.986   4.635   6.831
 3737SOL     OW23241   3.328   5.141   6.539
 3737SOL    HW123242   3.269   5.147   6.619
 3737SOL    HW223243   3.313   5.053   6.493
 3738SOL     OW23244   3.529   5.438   6.158
 3738SOL    HW123245   3.488   5.415   6.070
 3738SOL    HW223246   3.511   5.364   6.223
 3739SOL     OW23247   2.460   4.453   5.856
 3739SOL    HW123248   2.484   4.522   5.788
 3739SOL    HW223249   2.382   4.486   5.910
 3740SOL     OW23250   3.143   4.069   6.530
 3740SOL    HW123251   3.057   4.019   6.517
 3740SOL    HW223252   3.205   4.015   6.586
 3741SOL     OW23253   3.438   5.386   5.893
 3741SOL    HW123254   3.527   5.432   5.896
 3741SOL    HW223255   3.417   5.362   5.798
 3742SOL     OW23256   2.669   4.329   7.051
 3742SOL    HW123257   2.622   4.326   7.140
 3742SOL    HW223258   2.618   4.274   6.985
 3743SOL     OW23259   2.853   4.134   6.828
 3743SOL    HW123260   2.776   4.168   6.882
 3743SOL    HW223261   2.819   4.083   6.749
 3744SOL     OW23262   2.903   4.425   6.015
 3744SOL    HW123263   2.929   4.421   6.111
 3744SOL    HW223264   2.818   4.374   6.001
 3745SOL     OW23265   1.938   4.535   6.375
 3745SOL    HW123266   2.037   4.523   6.384
 3745SOL    HW223267   1.914   4.630   6.396
 3746SOL     OW23268   1.992   5.545   7.157
 3746SOL    HW123269   1.982   5.530   7.256
 3746SOL    HW223270   1.906   5.581   7.121
 3747SOL     OW23271   2.727   4.072   5.781
 3747SOL    HW123272   2.786   4.135   5.732
 3747SOL    HW223273   2.746   3.978   5.752
 3748SOL     OW23274   3.224   4.868   6.131
 3748SOL    HW123275   3.307   4.839   6.083
 3748SOL    HW223276   3.175   4.935   6.075
 3749SOL     OW23277   2.412   3.920   6.471
 3749SOL    HW123278   2.407   3.915   6.571
 3749SOL    HW223279   2.414   4.016   6.442
 3750SOL     OW23280   2.870   5.180   6.063
 3750SOL    HW123281   2.824   5.252   6.011
 3750SOL    HW223282   2.866   5.200   6.161
 3751SOL     OW23283   2.213   5.525   6.439
 3751SOL    HW123284   2.263   5.439   6.445
 3751SOL    HW223285   2.278   5.602   6.436
 3752SOL     OW23286   3.657   4.790   6.459
 3752SOL    HW123287   3.595   4.775   6.383
 3752SOL    HW223288   3.605   4.801   6.544
 3753SOL     OW23289   2.183   4.667   5.828
 3753SOL    HW123290   2.265   4.706   5.786
 3753SOL    HW223291   2.156   4.585   5.779
 3754SOL     OW23292   3.320   4.459   6.314
 3754SOL    HW123293   3.315   4.394   6.389
 3754SOL    HW223294   3.400   4.518   6.327
 3755SOL     OW23295   2.973   5.500   5.823
 3755SOL    HW123296   2.913   5.438   5.873
 3755SOL    HW223297   3.004   5.456   5.738
 3756SOL     OW23298   2.064   4.009   7.084
 3756SOL    HW123299   1.984   4.069   7.071
 3756SOL    HW223300   2.054   3.960   7.170
 3757SOL     OW23301   3.494   5.101   5.667
 3757SOL    HW123302   3.462   5.195   5.657
 3757SOL    HW223303   3.418   5.038   5.655
 3758SOL     OW23304   2.326   5.467   5.909
 3758SOL    HW123305   2.359   5.506   5.995
 3758SOL    HW223306   2.402   5.460   5.844
 3759SOL     OW23307   2.111   5.509   6.827
 3759SOL    HW123308   2.168   5.444   6.877
 3759SOL    HW223309   2.095   5.476   6.734
 3760SOL     OW23310   2.802   5.422   6.490
 3760SOL    HW123311   2.882   5.365   6.511
 3760SOL    HW223312   2.753   5.382   6.413
 3761SOL     OW23313   2.750   5.238   6.781
 3761SOL    HW123314   2.727   5.213   6.687
 3761SOL    HW223315   2.811   5.169   6.820
 3762SOL     OW23316   2.665   5.126   6.510
 3762SOL    HW123317   2.755   5.140   6.468
 3762SOL    HW223318   2.594   5.128   6.439
 3763SOL     OW23319   2.784   4.227   6.485
 3763SOL    HW123320   2.759   4.218   6.389
 3763SOL    HW223321   2.832   4.145   6.516
 3764SOL     OW23322   2.401   3.788   6.098
 3764SOL    HW123323   2.320   3.789   6.156
 3764SOL    HW223324   2.404   3.871   6.043
 3765SOL     OW23325   2.159   3.759   5.757
 3765SOL    HW123326   2.208   3.843   5.736
 3765SOL    HW223327   2.221   3.694   5.802
 3766SOL     OW23328   2.797   3.960   6.066
 3766SOL    HW123329   2.749   4.001   5.988
 3766SOL    HW223330   2.896   3.958   6.047
 3767SOL     OW23331   3.089   5.294   6.379
 3767SOL    HW123332   3.110   5.368   6.314
 3767SOL    HW223333   3.157   5.294   6.452
 3768SOL     OW23334   2.321   4.876   6.327
 3768SOL    HW123335   2.250   4.849   6.392
 3768SOL    HW223336   2.295   4.848   6.234
 3769SOL     OW23337   3.133   5.521   6.177
 3769SOL    HW123338   3.177   5.585   6.113
 3769SOL    HW223339   3.083   5.573   6.247
 3770SOL     OW23340   1.940   4.280   6.972
 3770SOL    HW123341   2.032   4.279   6.931
 3770SOL    HW223342   1.934   4.354   7.039
 3771SOL     OW23343   2.423   3.946   6.733
 3771SOL    HW123344   2.461   3.862   6.770
 3771SOL    HW223345   2.335   3.965   6.777
 3772SOL     OW23346   2.728   4.178   6.228
 3772SOL    HW123347   2.696   4.250   6.166
 3772SOL    HW223348   2.752   4.097   6.175
 3773SOL     OW23349   2.879   3.763   6.339
 3773SOL    HW123350   2.807   3.768   6.270
 3773SOL    HW223351   2.855   3.694   6.408
 3774SOL     OW23352   3.291   4.897   6.453
 3774SOL    HW123353   3.236   4.813   6.446
 3774SOL    HW223354   3.317   4.926   6.361
 3775SOL     OW23355   3.328   4.314   6.578
 3775SOL    HW123356   3.298   4.219   6.585
 3775SOL    HW223357   3.401   4.330   6.644
 3776SOL     OW23358   3.719   4.557   5.963
 3776SOL    HW123359   3.761   4.493   6.027
 3776SOL    HW223360   3.681   4.506   5.885
 3777SOL     OW23361   3.526   5.004   6.243
 3777SOL    HW123362   3.625   5.012   6.257
 3777SOL    HW223363   3.481   5.088   6.274
 3778SOL     OW23364   2.389   3.980   5.914
 3778SOL    HW123365   2.416   3.921   5.839
 3778SOL    HW223366   2.389   4.075   5.883
 3779SOL     OW23367   2.926   5.071   6.926
 3779SOL    HW123368   2.846   5.048   6.981
 3779SOL    HW223369   3.009   5.045   6.975
 3780SOL     OW23370   2.973   4.919   6.686
 3780SOL    HW123371   2.933   4.963   6.767
 3780SOL    HW223372   2.932   4.956   6.603
 3781SOL     OW23373   3.500   4.823   6.665
 3781SOL    HW123374   3.505   4.904   6.724
 3781SOL    HW223375   3.414   4.825   6.614
 3782SOL     OW23376   2.777   3.813   6.988
 3782SOL    HW123377   2.802   3.793   6.893
 3782SOL    HW223378   2.849   3.869   7.030
 3783SOL     OW23379   2.567   4.774   5.954
 3783SOL    HW123380   2.553   4.781   6.053
 3783SOL    HW223381   2.651   4.723   5.936
 3784SOL     OW23382   2.272   4.537   6.837
 3784SOL    HW123383   2.358   4.549   6.887
 3784SOL    HW223384   2.230   4.450   6.864
 3785SOL     OW23385   3.136   4.110   6.848
 3785SOL    HW123386   3.157   4.184   6.912
 3785SOL    HW223387   3.047   4.127   6.805
 3786SOL     OW23388   1.926   5.288   6.917
 3786SOL    HW123389   1.880   5.370   6.883
 3786SOL    HW223390   2.024   5.307   6.926
 3787SOL     OW23391   2.229   4.824   6.087
 3787SOL    HW123392   2.222   4.907   6.031
 3787SOL    HW223393   2.233   4.744   6.027
 3788SOL     OW23394   2.428   4.261   6.451
 3788SOL    HW123395   2.440   4.327   6.377
 3788SOL    HW223396   2.474   4.295   6.534
 3789SOL     OW23397   3.114   5.072   5.974
 3789SOL    HW123398   3.164   5.149   6.014
 3789SOL    HW223399   3.019   5.074   6.006
 3790SOL     OW23400   3.134   5.169   6.728
 3790SOL    HW123401   3.181   5.182   6.815
 3790SOL    HW223402   3.068   5.095   6.737
 3791SOL     OW23403   3.444   4.363   6.058
 3791SOL    HW123404   3.413   4.424   6.131
 3791SOL    HW223405   3.494   4.415   5.989
 3792SOL     OW23406   2.216   5.234   6.915
 3792SOL    HW123407   2.195   5.190   6.828
 3792SOL    HW223408   2.313   5.260   6.918
 3793SOL     OW23409   2.264   4.475   7.184
 3793SOL    HW123410   2.332   4.530   7.137
 3793SOL    HW223411   2.304   4.387   7.211
 3794SOL     OW23412   3.449   4.503   7.256
 3794SOL    HW123413   3.357   4.541   7.251
 3794SOL    HW223414   3.509   4.550   7.191
 3795SOL     OW23415   2.435   4.594   6.615
 3795SOL    HW123416   2.479   4.683   6.606
 3795SOL    HW223417   2.372   4.594   6.692
 3796SOL     OW23418   3.222   4.586   6.631
 3796SOL    HW123419   3.147   4.586   6.565
 3796SOL    HW223420   3.259   4.494   6.640
 3797SOL     OW23421   2.169   3.937   6.817
 3797SOL    HW123422   2.146   3.974   6.907
 3797SOL    HW223423   2.139   3.842   6.811
 3798SOL     OW23424   1.899   5.034   6.868
 3798SOL    HW123425   1.952   4.985   6.936
 3798SOL    HW223426   1.921   5.132   6.873
 3799SOL     OW23427   2.594   4.358   6.650
 3799SOL    HW123428   2.653   4.332   6.574
 3799SOL    HW223429   2.566   4.454   6.639
 3800SOL     OW23430   2.169   3.787   6.204
 3800SOL    HW123431   2.158   3.881   6.237
 3800SOL    HW223432   2.164   3.724   6.281
 3801SOL     OW23433   2.885   4.490   6.552
 3801SOL    HW123434   2.900   4.511   6.648
 3801SOL    HW223435   2.855   4.395   6.543
 3802SOL     OW23436   2.842   5.297   7.286
 3802SOL    HW123437   2.822   5.341   7.198
 3802SOL    HW223438   2.881   5.206   7.270
 3803SOL     OW23439   2.930   5.057   6.435
 3803SOL    HW123440   2.937   4.973   6.380
 3803SOL    HW223441   2.992   5.126   6.399
 3804SOL     OW23442   2.181   4.534   6.535
 3804SOL    HW123443   2.274   4.570   6.540
 3804SOL    HW223444   2.175   4.449   6.587
 3805SOL     OW23445   2.201   4.233   6.592
 3805SOL    HW123446   2.149   4.150   6.575
 3805SOL    HW223447   2.278   4.238   6.528
 3806SOL     OW23448   3.000   4.104   7.264
 3806SOL    HW123449   2.955   4.167   7.328
 3806SOL    HW223450   3.093   4.135   7.247
 3807SOL     OW23451   3.022   3.931   7.063
 3807SOL    HW123452   3.022   3.995   7.140
 3807SOL    HW223453   3.050   3.979   6.980
 3808SOL     OW23454   1.870   5.050   5.786
 3808SOL    HW123455   1.777   5.071   5.755
 3808SOL    HW223456   1.880   4.951   5.799
 3809SOL     OW23457   1.950   5.525   6.513
 3809SOL    HW123458   1.908   5.439   6.486
 3809SOL    HW223459   2.044   5.528   6.479
 3810SOL     OW23460   2.366   5.292   6.496
 3810SOL    HW123461   2.432   5.366   6.505
 3810SOL    HW223462   2.410   5.213   6.454
 3811SOL     OW23463   2.864   4.520   6.824
 3811SOL    HW123464   2.905   4.488   6.910
 3811SOL    HW223465   2.768   4.493   6.821
 3812SOL     OW23466   1.902   4.268   6.700
 3812SOL    HW123467   1.987   4.235   6.659
 3812SOL    HW223468   1.915   4.283   6.798
 3813SOL     OW23469   2.677   4.296   5.911
 3813SOL    HW123470   2.684   4.207   5.865
 3813SOL    HW223471   2.583   4.330   5.903
 3814SOL     OW23472   3.519   4.328   6.792
 3814SOL    HW123473   3.481   4.259   6.854
 3814SOL    HW223474   3.601   4.292   6.748
 3815SOL     OW23475   2.533   4.188   6.855
 3815SOL    HW123476   2.499   4.099   6.825
 3815SOL    HW223477   2.559   4.242   6.775
 3816SOL     OW23478   2.792   5.402   7.051
 3816SOL    HW123479   2.768   5.384   6.956
 3816SOL    HW223480   2.822   5.496   7.061
 3817SOL     OW23481   2.021   4.861   7.052
 3817SOL    HW123482   2.043   4.800   7.128
 3817SOL    HW223483   2.031   4.812   6.966
 3818SOL     OW23484   3.209   4.783   6.820
 3818SOL    HW123485   3.233   4.720   6.746
 3818SOL    HW223486   3.119   4.823   6.802
 3819SOL     OW23487   3.164   4.579   5.895
 3819SOL    HW123488   3.078   4.548   5.937
 3819SOL    HW223489   3.160   4.565   5.796
 3820SOL     OW23490   3.621   5.471   6.740
 3820SOL    HW123491   3.682   5.501   6.667
 3820SOL    HW223492   3.583   5.382   6.718
 3821SOL     OW23493   3.114   5.455   6.714
 3821SOL    HW123494   3.198   5.460   6.660
 3821SOL    HW223495   3.091   5.359   6.732
 3822SOL     OW23496   1.945   4.982   6.608
 3822SOL    HW123497   1.940   4.981   6.708
 3822SOL    HW223498   1.862   4.941   6.570
 3823SOL     OW23499   3.588   3.859   6.109
 3823SOL    HW123500   3.661   3.842   6.042
 3823SOL    HW223501   3.557   3.772   6.147
 3824SOL     OW23502   3.250   5.297   6.063
 3824SOL    HW123503   3.317   5.309   5.989
 3824SOL    HW223504   3.210   5.386   6.086
 3825SOL     OW23505   3.142   4.651   6.258
 3825SOL    HW123506   3.202   4.570   6.260
 3825SOL    HW223507   3.182   4.720   6.198
 3826SOL     OW23508   2.534   5.340   5.740
 3826SOL    HW123509   2.543   5.350   5.641
 3826SOL    HW223510   2.494   5.251   5.761
 3827SOL     OW23511   3.512   5.444   6.980
 3827SOL    HW123512   3.565   5.454   6.896
 3827SOL    HW223513   3.485   5.534   7.014
 3828SOL     OW23514   2.125   4.050   6.306
 3828SOL    HW123515   2.046   4.101   6.272
 3828SOL    HW223516   2.116   4.035   6.404
 3829SOL     OW23517   2.684   4.726   6.958
 3829SOL    HW123518   2.724   4.725   6.866
 3829SOL    HW223519   2.694   4.818   6.998
 3830SOL     OW23520   2.778   4.634   5.877
 3830SOL    HW123521   2.841   4.672   5.809
 3830SOL    HW223522   2.818   4.551   5.916
 3831SOL     OW23523   2.234   5.012   7.076
 3831SOL    HW123524   2.221   5.105   7.042
 3831SOL    HW223525   2.150   4.960   7.063
 3832SOL     OW23526   3.476   5.016   6.875
 3832SOL    HW123527   3.536   5.019   6.955
 3832SOL    HW223528   3.401   5.080   6.888
 3833SOL     OW23529   2.901   4.822   6.282
 3833SOL    HW123530   2.831   4.775   6.336
 3833SOL    HW223531   2.960   4.754   6.239
 3834SOL     OW23532   2.876   3.960   6.557
 3834SOL    HW123533   2.868   3.924   6.464
 3834SOL    HW223534   2.874   3.884   6.622
 3835SOL     OW23535   2.452   5.211   6.077
 3835SOL    HW123536   2.494   5.153   6.007
 3835SOL    HW223537   2.408   5.290   6.033
 3836SOL     OW23538   3.571   4.109   6.967
 3836SOL    HW123539   3.644   4.178   6.971
 3836SOL    HW223540   3.599   4.034   6.908
 3837SOL     OW23541   2.117   5.072   5.876
 3837SOL    HW123542   2.021   5.073   5.849
 3837SOL    HW223543   2.129   5.125   5.960
 3838SOL     OW23544   1.937   4.069   5.619
 3838SOL    HW123545   1.845   4.041   5.590
 3838SOL    HW223546   1.968   4.146   5.563
 3839SOL     OW23547   3.302   4.580   6.984
 3839SOL    HW123548   3.245   4.632   6.921
 3839SOL    HW223549   3.398   4.592   6.960
 3840SOL     OW23550   1.934   3.890   5.904
 3840SOL    HW123551   1.917   3.973   5.850
 3840SOL    HW223552   2.024   3.853   5.882
 3841SOL     OW23553   2.475   4.566   7.017
 3841SOL    HW123554   2.531   4.647   7.000
 3841SOL    HW223555   2.534   4.486   7.020
 3842SOL     OW23556   3.355   5.491   6.545
 3842SOL    HW123557   3.388   5.555   6.476
 3842SOL    HW223558   3.421   5.485   6.620
 3843SOL     OW23559   2.252   5.465   7.146
 3843SOL    HW123560   2.161   5.506   7.144
 3843SOL    HW223561   2.245   5.371   7.178
 3844SOL     OW23562   3.536   4.607   6.840
 3844SOL    HW123563   3.509   4.518   6.803
 3844SOL    HW223564   3.537   4.675   6.767
 3845SOL     OW23565   2.456   4.469   6.238
 3845SOL    HW123566   2.506   4.554   6.219
 3845SOL    HW223567   2.368   4.471   6.190
 3846SOL     OW23568   3.639   4.066   7.228
 3846SOL    HW123569   3.622   4.097   7.134
 3846SOL    HW223570   3.555   4.029   7.266
 3847SOL     OW23571   3.592   4.658   7.103
 3847SOL    HW123572   3.630   4.749   7.118
 3847SOL    HW223573   3.584   4.641   7.004
 3848SOL     OW23574   2.523   5.514   6.539
 3848SOL    HW123575   2.477   5.602   6.526
 3848SOL    HW223576   2.622   5.526   6.532
 3849SOL     OW23577   2.721   4.680   6.447
 3849SOL    HW123578   2.775   4.611   6.495
 3849SOL    HW223579   2.689   4.749   6.513
 3850SOL     OW23580   3.723   5.293   6.437
 3850SOL    HW123581   3.652   5.281   6.367
 3850SOL    HW223582   3.724   5.214   6.497
 3851SOL     OW23583   1.941   4.964   6.239
 3851SOL    HW123584   1.940   4.917   6.327
 3851SOL    HW223585   2.023   4.936   6.188
 3852SOL     OW23586   3.686   3.916   6.813
 3852SOL    HW123587   3.682   3.826   6.857
 3852SOL    HW223588   3.689   3.905   6.714
 3853SOL     OW23589   2.290   4.148   6.106
 3853SOL    HW123590   2.320   4.076   6.044
 3853SOL    HW223591   2.251   4.108   6.189
 3854SOL     OW23592   3.567   5.211   6.690
 3854SOL    HW123593   3.474   5.186   6.663
 3854SOL    HW223594   3.593   5.161   6.772
 3855SOL     OW23595   2.179   4.271   6.866
 3855SOL    HW123596   2.217   4.212   6.938
 3855SOL    HW223597   2.219   4.245   6.778
 3856SOL     OW23598   2.674   5.310   6.273
 3856SOL    HW123599   2.706   5.320   6.179
 3856SOL    HW223600   2.595   5.248   6.275
 3857SOL     OW23601   3.286   3.938   6.698
 3857SOL    HW123602   3.338   3.873   6.753
 3857SOL    HW223603   3.237   4.001   6.759
 3858SOL     OW23604   2.863   3.758   6.740
 3858SOL    HW123605   2.800   3.686   6.709
 3858SOL    HW223606   2.956   3.722   6.740
 3859SOL     OW23607   2.480   5.291   6.870
 3859SOL    HW123608   2.475   5.373   6.927
 3859SOL    HW223609   2.569   5.288   6.825
 3860SOL     OW23610   3.162   4.177   6.277
 3860SOL    HW123611   3.103   4.257   6.281
 3860SOL    HW223612   3.177   4.142   6.370
 3861SOL     OW23613   1.901   4.801   5.886
 3861SOL    HW123614   2.000   4.790   5.877
 3861SOL    HW223615   1.861   4.715   5.918
 3862SOL     OW23616   2.737   5.370   5.923
 3862SOL    HW123617   2.660   5.335   5.869
 3862SOL    HW223618   2.705   5.441   5.985
 3863SOL     OW23619   2.092   6.214   0.113
 3863SOL    HW123620   1.999   6.212   0.150
 3863SOL    HW223621   2.093   6.175   0.021
 3864SOL     OW23622   2.087   5.861   0.996
 3864SOL    HW123623   2.122   5.844   1.088
 3864SOL    HW223624   1.999   5.816   0.984
 3865SOL     OW23625   1.881   5.954   0.647
 3865SOL    HW123626   1.799   5.997   0.686
 3865SOL    HW223627   1.853   5.881   0.584
 3866SOL     OW23628   2.431   6.861   1.165
 3866SOL    HW123629   2.338   6.854   1.128
 3866SOL    HW223630   2.442   6.950   1.209
 3867SOL     OW23631   3.417   7.097   0.703
 3867SOL    HW123632   3.360   7.081   0.784
 3867SOL    HW223633   3.358   7.107   0.623
 3868SOL     OW23634   2.997   6.289   0.717
 3868SOL    HW123635   3.054   6.367   0.692
 3868SOL    HW223636   2.937   6.315   0.793
 3869SOL     OW23637   3.617   6.193   0.231
 3869SOL    HW123638   3.605   6.180   0.132
 3869SOL    HW223639   3.587   6.112   0.280
 3870SOL     OW23640   2.630   6.730   1.023
 3870SOL    HW123641   2.552   6.747   1.083
 3870SOL    HW223642   2.664   6.817   0.987
 3871SOL     OW23643   2.547   6.598   0.665
 3871SOL    HW123644   2.616   6.582   0.735
 3871SOL    HW223645   2.474   6.655   0.703
 3872SOL     OW23646   2.197   7.021   1.061
 3872SOL    HW123647   2.119   6.990   1.008
 3872SOL    HW223648   2.255   7.079   1.004
 3873SOL     OW23649   3.322   7.091   1.339
 3873SOL    HW123650   3.346   7.185   1.365
 3873SOL    HW223651   3.306   7.037   1.421
 3874SOL     OW23652   2.300   5.978   1.499
 3874SOL    HW123653   2.382   5.922   1.508
 3874SOL    HW223654   2.219   5.920   1.503
 3875SOL     OW23655   3.465   6.033   0.737
 3875SOL    HW123656   3.391   6.079   0.687
 3875SOL    HW223657   3.516   6.101   0.790
 3876SOL     OW23658   2.093   7.299   0.483
 3876SOL    HW123659   2.127   7.376   0.537
 3876SOL    HW223660   2.137   7.299   0.393
 3877SOL     OW23661   2.989   6.927   1.690
 3877SOL    HW123662   3.036   6.927   1.778
 3877SOL    HW223663   2.941   6.840   1.679
 3878SOL     OW23664   2.092   7.020   0.538
 3878SOL    HW123665   2.066   7.116   0.538
 3878SOL    HW223666   2.021   6.966   0.583
 3879SOL     OW23667   2.102   6.677   0.886
 3879SOL    HW123668   2.116   6.593   0.938
 3879SOL    HW223669   2.047   6.741   0.941
 3880SOL     OW23670   2.468   6.550   0.123
 3880SOL    HW123671   2.475   6.634   0.069
 3880SOL    HW223672   2.514   6.563   0.211
 3881SOL     OW23673   3.456   5.700   1.480
 3881SOL    HW123674   3.438   5.767   1.408
 3881SOL    HW223675   3.453   5.746   1.569
 3882SOL     OW23676   1.984   6.229   0.563
 3882SOL    HW123677   1.939   6.141   0.580
 3882SOL    HW223678   1.983   6.283   0.647
 3883SOL     OW23679   3.704   7.353   0.359
 3883SOL    HW123680   3.758   7.324   0.439
 3883SOL    HW223681   3.734   7.443   0.330
 3884SOL     OW23682   1.889   7.182   0.117
 3884SOL    HW123683   1.870   7.086   0.138
 3884SOL    HW223684   1.856   7.240   0.192
 3885SOL     OW23685   3.551   6.508   0.612
 3885SOL    HW123686   3.646   6.479   0.620
 3885SOL    HW223687   3.543   6.573   0.537
 3886SOL     OW23688   3.503   6.694   0.432
 3886SOL    HW123689   3.589   6.696   0.380
 3886SOL    HW223690   3.517   6.741   0.520
 3887SOL     OW23691   1.975   6.323   1.597
 3887SOL    HW123692   2.063   6.310   1.642
 3887SOL    HW223693   1.962   6.420   1.575
 3888SOL     OW23694   2.475   6.951   0.726
 3888SOL    HW123695   2.426   6.864   0.735
 3888SOL    HW223696   2.452   6.994   0.639
 3889SOL     OW23697   3.155   6.814   1.423
 3889SOL    HW123698   3.192   6.741   1.365
 3889SOL    HW223699   3.207   6.819   1.508
 3890SOL     OW23700   2.671   5.590   0.502
 3890SOL    HW123701   2.711   5.681   0.493
 3890SOL    HW223702   2.571   5.598   0.508
 3891SOL     OW23703   3.387   6.585   0.190
 3891SOL    HW123704   3.324   6.509   0.203
 3891SOL    HW223705   3.435   6.603   0.276
 3892SOL     OW23706   3.049   7.378   1.616
 3892SOL    HW123707   3.073   7.438   1.540
 3892SOL    HW223708   3.056   7.283   1.586
 3893SOL     OW23709   3.328   7.003   0.953
 3893SOL    HW123710   3.269   7.009   1.033
 3893SOL    HW223711   3.313   6.915   0.907
 3894SOL     OW23712   3.529   7.300   0.572
 3894SOL    HW123713   3.488   7.277   0.484
 3894SOL    HW223714   3.511   7.226   0.637
 3895SOL     OW23715   2.460   6.315   0.270
 3895SOL    HW123716   2.484   6.384   0.202
 3895SOL    HW223717   2.382   6.348   0.324
 3896SOL     OW23718   3.143   5.931   0.944
 3896SOL    HW123719   3.057   5.881   0.931
 3896SOL    HW223720   3.205   5.877   1.000
 3897SOL     OW23721   3.438   7.248   0.307
 3897SOL    HW123722   3.527   7.294   0.310
 3897SOL    HW223723   3.417   7.224   0.212
 3898SOL     OW23724   2.853   5.996   1.242
 3898SOL    HW123725   2.776   6.030   1.296
 3898SOL    HW223726   2.819   5.945   1.163
 3899SOL     OW23727   2.903   6.287   0.429
 3899SOL    HW123728   2.929   6.283   0.525
 3899SOL    HW223729   2.818   6.236   0.415
 3900SOL     OW23730   1.938   6.397   0.789
 3900SOL    HW123731   2.037   6.385   0.798
 3900SOL    HW223732   1.914   6.492   0.810
 3901SOL     OW23733   2.727   5.934   0.195
 3901SOL    HW123734   2.786   5.997   0.146
 3901SOL    HW223735   2.746   5.840   0.166
 3902SOL     OW23736   3.581   6.171   1.831
 3902SOL    HW123737   3.555   6.260   1.795
 3902SOL    HW223738   3.579   6.103   1.758
 3903SOL     OW23739   3.224   6.730   0.545
 3903SOL    HW123740   3.307   6.701   0.497
 3903SOL    HW223741   3.175   6.797   0.489
 3904SOL     OW23742   2.412   5.782   0.885
 3904SOL    HW123743   2.407   5.777   0.985
 3904SOL    HW223744   2.414   5.878   0.856
 3905SOL     OW23745   2.870   7.042   0.477
 3905SOL    HW123746   2.824   7.114   0.425
 3905SOL    HW223747   2.866   7.062   0.575
 3906SOL     OW23748   2.213   7.387   0.853
 3906SOL    HW123749   2.263   7.301   0.859
 3906SOL    HW223750   2.278   7.464   0.850
 3907SOL     OW23751   3.657   6.652   0.873
 3907SOL    HW123752   3.595   6.637   0.797
 3907SOL    HW223753   3.605   6.663   0.958
 3908SOL     OW23754   3.089   7.136   1.506
 3908SOL    HW123755   3.095   7.059   1.570
 3908SOL    HW223756   3.037   7.110   1.426
 3909SOL     OW23757   2.183   6.529   0.242
 3909SOL    HW123758   2.265   6.568   0.200
 3909SOL    HW223759   2.156   6.447   0.193
 3910SOL     OW23760   3.320   6.321   0.728
 3910SOL    HW123761   3.315   6.256   0.803
 3910SOL    HW223762   3.400   6.380   0.741
 3911SOL     OW23763   2.973   7.362   0.237
 3911SOL    HW123764   2.913   7.300   0.287
 3911SOL    HW223765   3.004   7.318   0.152
 3912SOL     OW23766   3.494   6.963   0.081
 3912SOL    HW123767   3.462   7.057   0.071
 3912SOL    HW223768   3.418   6.900   0.069
 3913SOL     OW23769   2.326   7.329   0.323
 3913SOL    HW123770   2.359   7.368   0.409
 3913SOL    HW223771   2.402   7.322   0.258
 3914SOL     OW23772   3.262   5.693   0.426
 3914SOL    HW123773   3.238   5.656   0.336
 3914SOL    HW223774   3.361   5.709   0.430
 3915SOL     OW23775   2.111   7.371   1.241
 3915SOL    HW123776   2.168   7.306   1.291
 3915SOL    HW223777   2.095   7.338   1.148
 3916SOL     OW23778   2.802   7.284   0.904
 3916SOL    HW123779   2.882   7.227   0.925
 3916SOL    HW223780   2.753   7.244   0.827
 3917SOL     OW23781   2.244   6.286   0.480
 3917SOL    HW123782   2.289   6.196   0.477
 3917SOL    HW223783   2.150   6.275   0.513
 3918SOL     OW23784   3.409   5.808   1.729
 3918SOL    HW123785   3.404   5.845   1.821
 3918SOL    HW223786   3.337   5.739   1.717
 3919SOL     OW23787   2.476   5.708   0.117
 3919SOL    HW123788   2.574   5.686   0.124
 3919SOL    HW223789   2.445   5.691   0.024
 3920SOL     OW23790   2.750   7.100   1.195
 3920SOL    HW123791   2.727   7.075   1.101
 3920SOL    HW223792   2.811   7.031   1.234
 3921SOL     OW23793   3.213   6.176   1.433
 3921SOL    HW123794   3.241   6.133   1.518
 3921SOL    HW223795   3.238   6.272   1.434
 3922SOL     OW23796   2.665   6.988   0.924
 3922SOL    HW123797   2.755   7.002   0.882
 3922SOL    HW223798   2.594   6.990   0.853
 3923SOL     OW23799   2.784   6.089   0.899
 3923SOL    HW123800   2.759   6.080   0.803
 3923SOL    HW223801   2.832   6.007   0.930
 3924SOL     OW23802   2.401   5.650   0.512
 3924SOL    HW123803   2.320   5.651   0.570
 3924SOL    HW223804   2.404   5.733   0.457
 3925SOL     OW23805   3.296   6.774   0.041
 3925SOL    HW123806   3.328   6.698   0.098
 3925SOL    HW223807   3.204   6.801   0.071
 3926SOL     OW23808   2.159   5.621   0.171
 3926SOL    HW123809   2.208   5.705   0.150
 3926SOL    HW223810   2.221   5.556   0.216
 3927SOL     OW23811   2.797   5.822   0.480
 3927SOL    HW123812   2.749   5.863   0.402
 3927SOL    HW223813   2.896   5.820   0.461
 3928SOL     OW23814   3.089   7.156   0.793
 3928SOL    HW123815   3.110   7.230   0.728
 3928SOL    HW223816   3.157   7.156   0.866
 3929SOL     OW23817   2.321   6.738   0.741
 3929SOL    HW123818   2.250   6.711   0.806
 3929SOL    HW223819   2.295   6.710   0.648
 3930SOL     OW23820   3.133   7.383   0.591
 3930SOL    HW123821   3.177   7.447   0.527
 3930SOL    HW223822   3.083   7.435   0.661
 3931SOL     OW23823   2.894   6.135   0.016
 3931SOL    HW123824   2.853   6.217  -0.023
 3931SOL    HW223825   2.958   6.161   0.089
 3932SOL     OW23826   1.940   6.142   1.386
 3932SOL    HW123827   2.032   6.141   1.345
 3932SOL    HW223828   1.934   6.216   1.453
 3933SOL     OW23829   2.423   5.808   1.147
 3933SOL    HW123830   2.461   5.724   1.184
 3933SOL    HW223831   2.335   5.827   1.191
 3934SOL     OW23832   2.728   6.040   0.642
 3934SOL    HW123833   2.696   6.112   0.580
 3934SOL    HW223834   2.752   5.959   0.589
 3935SOL     OW23835   2.879   5.625   0.753
 3935SOL    HW123836   2.807   5.630   0.684
 3935SOL    HW223837   2.855   5.556   0.822
 3936SOL     OW23838   3.291   6.759   0.867
 3936SOL    HW123839   3.236   6.675   0.860
 3936SOL    HW223840   3.317   6.788   0.775
 3937SOL     OW23841   3.328   6.176   0.992
 3937SOL    HW123842   3.298   6.081   0.999
 3937SOL    HW223843   3.401   6.192   1.058
 3938SOL     OW23844   3.719   6.419   0.377
 3938SOL    HW123845   3.761   6.355   0.441
 3938SOL    HW223846   3.681   6.368   0.299
 3939SOL     OW23847   2.350   6.971   0.174
 3939SOL    HW123848   2.263   6.956   0.221
 3939SOL    HW223849   2.333   6.997   0.079
 3940SOL     OW23850   3.526   6.866   0.657
 3940SOL    HW123851   3.625   6.874   0.671
 3940SOL    HW223852   3.481   6.950   0.688
 3941SOL     OW23853   3.252   6.161   0.078
 3941SOL    HW123854   3.198   6.140   0.159
 3941SOL    HW223855   3.343   6.120   0.087
 3942SOL     OW23856   2.389   5.842   0.328
 3942SOL    HW123857   2.416   5.783   0.253
 3942SOL    HW223858   2.389   5.937   0.297
 3943SOL     OW23859   3.616   6.809   1.588
 3943SOL    HW123860   3.707   6.770   1.575
 3943SOL    HW223861   3.624   6.905   1.612
 3944SOL     OW23862   2.926   6.933   1.340
 3944SOL    HW123863   2.846   6.910   1.395
 3944SOL    HW223864   3.009   6.907   1.389
 3945SOL     OW23865   3.454   7.215   1.625
 3945SOL    HW123866   3.481   7.249   1.535
 3945SOL    HW223867   3.533   7.177   1.671
 3946SOL     OW23868   2.973   6.781   1.100
 3946SOL    HW123869   2.933   6.825   1.181
 3946SOL    HW223870   2.932   6.818   1.017
 3947SOL     OW23871   3.500   6.685   1.079
 3947SOL    HW123872   3.505   6.766   1.138
 3947SOL    HW223873   3.414   6.687   1.028
 3948SOL     OW23874   2.567   6.636   0.368
 3948SOL    HW123875   2.553   6.643   0.467
 3948SOL    HW223876   2.651   6.585   0.350
 3949SOL     OW23877   3.136   5.972   1.262
 3949SOL    HW123878   3.157   6.046   1.326
 3949SOL    HW223879   3.047   5.989   1.219
 3950SOL     OW23880   1.926   7.150   1.331
 3950SOL    HW123881   1.880   7.232   1.297
 3950SOL    HW223882   2.024   7.169   1.340
 3951SOL     OW23883   2.229   6.686   0.501
 3951SOL    HW123884   2.222   6.769   0.445
 3951SOL    HW223885   2.233   6.606   0.441
 3952SOL     OW23886   2.428   6.123   0.865
 3952SOL    HW123887   2.440   6.189   0.791
 3952SOL    HW223888   2.474   6.157   0.948
 3953SOL     OW23889   3.114   6.934   0.388
 3953SOL    HW123890   3.164   7.011   0.428
 3953SOL    HW223891   3.019   6.936   0.420
 3954SOL     OW23892   3.134   7.031   1.142
 3954SOL    HW123893   3.181   7.044   1.229
 3954SOL    HW223894   3.068   6.957   1.151
 3955SOL     OW23895   3.444   6.225   0.472
 3955SOL    HW123896   3.413   6.286   0.545
 3955SOL    HW223897   3.494   6.277   0.403
 3956SOL     OW23898   3.449   6.365   1.670
 3956SOL    HW123899   3.357   6.403   1.665
 3956SOL    HW223900   3.509   6.412   1.605
 3957SOL     OW23901   2.435   6.456   1.029
 3957SOL    HW123902   2.479   6.545   1.020
 3957SOL    HW223903   2.372   6.456   1.106
 3958SOL     OW23904   3.222   6.448   1.045
 3958SOL    HW123905   3.147   6.448   0.979
 3958SOL    HW223906   3.259   6.356   1.054
 3959SOL     OW23907   3.071   6.111   0.275
 3959SOL    HW123908   3.084   6.027   0.329
 3959SOL    HW223909   3.042   6.185   0.335
 3960SOL     OW23910   2.169   5.799   1.231
 3960SOL    HW123911   2.146   5.836   1.321
 3960SOL    HW223912   2.139   5.704   1.225
 3961SOL     OW23913   1.899   6.896   1.282
 3961SOL    HW123914   1.952   6.847   1.350
 3961SOL    HW223915   1.921   6.994   1.287
 3962SOL     OW23916   2.594   6.220   1.064
 3962SOL    HW123917   2.653   6.194   0.988
 3962SOL    HW223918   2.566   6.316   1.053
 3963SOL     OW23919   3.590   6.521   1.854
 3963SOL    HW123920   3.544   6.514   1.765
 3963SOL    HW223921   3.528   6.565   1.920
 3964SOL     OW23922   2.169   5.649   0.618
 3964SOL    HW123923   2.158   5.743   0.651
 3964SOL    HW223924   2.164   5.586   0.695
 3965SOL     OW23925   3.484   5.953   0.374
 3965SOL    HW123926   3.486   5.877   0.438
 3965SOL    HW223927   3.436   6.030   0.414
 3966SOL     OW23928   2.885   6.352   0.966
 3966SOL    HW123929   2.900   6.373   1.062
 3966SOL    HW223930   2.855   6.257   0.957
 3967SOL     OW23931   2.842   7.159   1.700
 3967SOL    HW123932   2.822   7.203   1.612
 3967SOL    HW223933   2.881   7.068   1.684
 3968SOL     OW23934   3.721   7.104   1.605
 3968SOL    HW123935   3.735   7.131   1.510
 3968SOL    HW223936   3.804   7.126   1.658
 3969SOL     OW23937   2.212   6.484   1.804
 3969SOL    HW123938   2.288   6.528   1.852
 3969SOL    HW223939   2.247   6.437   1.722
 3970SOL     OW23940   3.402   5.860   0.125
 3970SOL    HW123941   3.341   5.785   0.148
 3970SOL    HW223942   3.424   5.912   0.208
 3971SOL     OW23943   3.165   6.424   0.042
 3971SOL    HW123944   3.199   6.331   0.057
 3971SOL    HW223945   3.183   6.451  -0.053
 3972SOL     OW23946   2.930   6.919   0.849
 3972SOL    HW123947   2.937   6.835   0.794
 3972SOL    HW223948   2.992   6.988   0.813
 3973SOL     OW23949   2.181   6.396   0.949
 3973SOL    HW123950   2.274   6.432   0.954
 3973SOL    HW223951   2.175   6.311   1.001
 3974SOL     OW23952   2.201   6.095   1.006
 3974SOL    HW123953   2.149   6.012   0.989
 3974SOL    HW223954   2.278   6.100   0.942
 3975SOL     OW23955   1.870   6.912   0.200
 3975SOL    HW123956   1.777   6.933   0.169
 3975SOL    HW223957   1.880   6.813   0.213
 3976SOL     OW23958   1.950   7.387   0.927
 3976SOL    HW123959   1.908   7.301   0.900
 3976SOL    HW223960   2.044   7.390   0.893
 3977SOL     OW23961   2.366   7.154   0.910
 3977SOL    HW123962   2.432   7.228   0.919
 3977SOL    HW223963   2.410   7.075   0.868
 3978SOL     OW23964   2.864   6.382   1.238
 3978SOL    HW123965   2.905   6.350   1.324
 3978SOL    HW223966   2.768   6.355   1.235
 3979SOL     OW23967   1.902   6.130   1.114
 3979SOL    HW123968   1.987   6.097   1.073
 3979SOL    HW223969   1.915   6.145   1.212
 3980SOL     OW23970   2.051   6.106   1.722
 3980SOL    HW123971   2.110   6.066   1.652
 3980SOL    HW223972   1.993   6.177   1.681
 3981SOL     OW23973   3.231   6.536   1.660
 3981SOL    HW123974   3.270   6.625   1.680
 3981SOL    HW223975   3.241   6.516   1.563
 3982SOL     OW23976   2.677   6.158   0.325
 3982SOL    HW123977   2.684   6.069   0.279
 3982SOL    HW223978   2.583   6.192   0.317
 3983SOL     OW23979   3.519   6.190   1.206
 3983SOL    HW123980   3.481   6.121   1.268
 3983SOL    HW223981   3.601   6.154   1.162
 3984SOL     OW23982   2.533   6.050   1.269
 3984SOL    HW123983   2.499   5.961   1.239
 3984SOL    HW223984   2.559   6.104   1.189
 3985SOL     OW23985   2.335   6.086   0.191
 3985SOL    HW123986   2.396   6.166   0.195
 3985SOL    HW223987   2.240   6.117   0.198
 3986SOL     OW23988   2.021   6.723   1.466
 3986SOL    HW123989   2.043   6.662   1.542
 3986SOL    HW223990   2.031   6.674   1.380
 3987SOL     OW23991   3.209   6.645   1.234
 3987SOL    HW123992   3.233   6.582   1.160
 3987SOL    HW223993   3.119   6.685   1.216
 3988SOL     OW23994   3.164   6.441   0.309
 3988SOL    HW123995   3.078   6.410   0.351
 3988SOL    HW223996   3.160   6.427   0.210
 3989SOL     OW23997   3.621   7.333   1.154
 3989SOL    HW123998   3.682   7.363   1.081
 3989SOL    HW223999   3.583   7.244   1.132
 3990SOL     OW24000   3.114   7.317   1.128
 3990SOL    HW124001   3.198   7.322   1.074
 3990SOL    HW224002   3.091   7.221   1.146
 3991SOL     OW24003   1.945   6.844   1.022
 3991SOL    HW124004   1.940   6.843   1.122
 3991SOL    HW224005   1.862   6.803   0.984
 3992SOL     OW24006   2.765   5.672   0.133
 3992SOL    HW124007   2.816   5.673   0.047
 3992SOL    HW224008   2.821   5.630   0.204
 3993SOL     OW24009   3.588   5.721   0.523
 3993SOL    HW124010   3.661   5.704   0.456
 3993SOL    HW224011   3.557   5.634   0.561
 3994SOL     OW24012   3.250   7.159   0.477
 3994SOL    HW124013   3.317   7.171   0.403
 3994SOL    HW224014   3.210   7.248   0.500
 3995SOL     OW24015   3.142   6.513   0.672
 3995SOL    HW124016   3.202   6.432   0.674
 3995SOL    HW224017   3.182   6.582   0.612
 3996SOL     OW24018   2.692   6.859   1.422
 3996SOL    HW124019   2.687   6.892   1.517
 3996SOL    HW224020   2.606   6.878   1.376
 3997SOL     OW24021   2.534   7.202   0.154
 3997SOL    HW124022   2.543   7.212   0.055
 3997SOL    HW224023   2.494   7.113   0.175
 3998SOL     OW24024   3.512   7.306   1.394
 3998SOL    HW124025   3.565   7.316   1.310
 3998SOL    HW224026   3.485   7.396   1.428
 3999SOL     OW24027   3.703   5.761   0.963
 3999SOL    HW124028   3.742   5.676   0.927
 3999SOL    HW224029   3.605   5.763   0.944
 4000SOL     OW24030   2.125   5.912   0.720
 4000SOL    HW124031   2.046   5.963   0.686
 4000SOL    HW224032   2.116   5.897   0.818
 4001SOL     OW24033   3.056   7.198   0.031
 4001SOL    HW124034   3.062   7.105   0.068
 4001SOL    HW224035   2.997   7.198  -0.049
 4002SOL     OW24036   2.684   6.588   1.372
 4002SOL    HW124037   2.724   6.587   1.280
 4002SOL    HW224038   2.694   6.680   1.412
 4003SOL     OW24039   2.778   6.496   0.291
 4003SOL    HW124040   2.841   6.534   0.223
 4003SOL    HW224041   2.818   6.413   0.330
 4004SOL     OW24042   3.366   7.193   0.044
 4004SOL    HW124043   3.274   7.230   0.051
 4004SOL    HW224044   3.404   7.213  -0.046
 4005SOL     OW24045   3.476   6.878   1.289
 4005SOL    HW124046   3.536   6.881   1.369
 4005SOL    HW224047   3.401   6.942   1.302
 4006SOL     OW24048   2.901   6.684   0.696
 4006SOL    HW124049   2.831   6.637   0.750
 4006SOL    HW224050   2.960   6.616   0.653
 4007SOL     OW24051   2.876   5.822   0.971
 4007SOL    HW124052   2.868   5.786   0.878
 4007SOL    HW224053   2.874   5.746   1.036
 4008SOL     OW24054   2.452   7.073   0.491
 4008SOL    HW124055   2.494   7.015   0.421
 4008SOL    HW224056   2.408   7.152   0.447
 4009SOL     OW24057   3.571   5.971   1.381
 4009SOL    HW124058   3.644   6.040   1.385
 4009SOL    HW224059   3.599   5.896   1.322
 4010SOL     OW24060   2.117   6.934   0.290
 4010SOL    HW124061   2.021   6.935   0.263
 4010SOL    HW224062   2.129   6.987   0.374
 4011SOL     OW24063   1.967   6.599   1.726
 4011SOL    HW124064   1.890   6.566   1.780
 4011SOL    HW224065   2.052   6.569   1.768
 4012SOL     OW24066   3.302   6.442   1.398
 4012SOL    HW124067   3.245   6.494   1.335
 4012SOL    HW224068   3.398   6.454   1.374
 4013SOL     OW24069   1.934   5.752   0.318
 4013SOL    HW124070   1.917   5.835   0.264
 4013SOL    HW224071   2.024   5.715   0.296
 4014SOL     OW24072   3.045   6.921   0.119
 4014SOL    HW124073   2.946   6.910   0.121
 4014SOL    HW224074   3.079   6.936   0.212
 4015SOL     OW24075   3.355   7.353   0.959
 4015SOL    HW124076   3.388   7.417   0.890
 4015SOL    HW224077   3.421   7.347   1.034
 4016SOL     OW24078   3.312   6.806   1.633
 4016SOL    HW124079   3.303   6.796   1.732
 4016SOL    HW224080   3.408   6.799   1.607
 4017SOL     OW24081   2.252   7.327   1.560
 4017SOL    HW124082   2.161   7.368   1.558
 4017SOL    HW224083   2.245   7.233   1.592
 4018SOL     OW24084   3.536   6.469   1.254
 4018SOL    HW124085   3.509   6.380   1.217
 4018SOL    HW224086   3.537   6.537   1.181
 4019SOL     OW24087   3.087   5.911   0.449
 4019SOL    HW124088   3.152   5.837   0.438
 4019SOL    HW224089   3.107   5.961   0.533
 4020SOL     OW24090   2.456   6.331   0.652
 4020SOL    HW124091   2.506   6.416   0.633
 4020SOL    HW224092   2.368   6.333   0.604
 4021SOL     OW24093   3.639   5.928   1.642
 4021SOL    HW124094   3.622   5.959   1.548
 4021SOL    HW224095   3.555   5.891   1.680
 4022SOL     OW24096   3.592   6.520   1.517
 4022SOL    HW124097   3.630   6.611   1.532
 4022SOL    HW224098   3.584   6.503   1.418
 4023SOL     OW24099   2.721   6.960   0.016
 4023SOL    HW124100   2.675   6.975   0.104
 4023SOL    HW224101   2.765   7.045  -0.014
 4024SOL     OW24102   2.523   7.376   0.953
 4024SOL    HW124103   2.477   7.464   0.940
 4024SOL    HW224104   2.622   7.388   0.946
 4025SOL     OW24105   2.721   6.542   0.861
 4025SOL    HW124106   2.775   6.473   0.909
 4025SOL    HW224107   2.689   6.611   0.927
 4026SOL     OW24108   2.945   6.570   0.087
 4026SOL    HW124109   2.922   6.623   0.005
 4026SOL    HW224110   3.026   6.514   0.068
 4027SOL     OW24111   3.723   7.155   0.851
 4027SOL    HW124112   3.652   7.143   0.781
 4027SOL    HW224113   3.724   7.076   0.911
 4028SOL     OW24114   1.941   6.826   0.653
 4028SOL    HW124115   1.940   6.779   0.741
 4028SOL    HW224116   2.023   6.798   0.602
 4029SOL     OW24117   2.534   6.977   1.624
 4029SOL    HW124118   2.456   6.927   1.662
 4029SOL    HW224119   2.531   7.072   1.655
 4030SOL     OW24120   3.686   5.778   1.227
 4030SOL    HW124121   3.682   5.688   1.271
 4030SOL    HW224122   3.689   5.767   1.128
 4031SOL     OW24123   2.290   6.010   0.520
 4031SOL    HW124124   2.320   5.938   0.458
 4031SOL    HW224125   2.251   5.970   0.603
 4032SOL     OW24126   3.567   7.073   1.104
 4032SOL    HW124127   3.474   7.048   1.077
 4032SOL    HW224128   3.593   7.023   1.186
 4033SOL     OW24129   2.674   7.172   0.687
 4033SOL    HW124130   2.706   7.182   0.593
 4033SOL    HW224131   2.595   7.110   0.689
 4034SOL     OW24132   3.286   5.800   1.112
 4034SOL    HW124133   3.338   5.735   1.167
 4034SOL    HW224134   3.237   5.863   1.173
 4035SOL     OW24135   2.863   5.620   1.154
 4035SOL    HW124136   2.800   5.548   1.123
 4035SOL    HW224137   2.956   5.584   1.154
 4036SOL     OW24138   2.632   6.916   0.301
 4036SOL    HW124139   2.586   6.829   0.318
 4036SOL    HW224140   2.723   6.913   0.342
 4037SOL     OW24141   3.214   5.638   0.168
 4037SOL    HW124142   3.249   5.597   0.084
 4037SOL    HW224143   3.124   5.600   0.188
 4038SOL     OW24144   3.162   6.039   0.691
 4038SOL    HW124145   3.103   6.119   0.695
 4038SOL    HW224146   3.177   6.004   0.784
 4039SOL     OW24147   3.455   5.807   0.882
 4039SOL    HW124148   3.371   5.806   0.936
 4039SOL    HW224149   3.457   5.890   0.826
 4040SOL     OW24150   1.901   6.663   0.300
 4040SOL    HW124151   2.000   6.652   0.291
 4040SOL    HW224152   1.861   6.577   0.332
 4041SOL     OW24153   2.737   7.232   0.337
 4041SOL    HW124154   2.660   7.197   0.283
 4041SOL    HW224155   2.705   7.303   0.399
 4042SOL     OW24156   2.092   6.214   1.975
 4042SOL    HW124157   1.999   6.212   2.012
 4042SOL    HW224158   2.093   6.175   1.883
 4043SOL     OW24159   2.431   6.861   3.027
 4043SOL    HW124160   2.338   6.854   2.990
 4043SOL    HW224161   2.442   6.950   3.071
 4044SOL     OW24162   2.712   6.384   3.685
 4044SOL    HW124163   2.708   6.460   3.750
 4044SOL    HW224164   2.734   6.420   3.594
 4045SOL     OW24165   2.548   6.747   3.665
 4045SOL    HW124166   2.608   6.826   3.679
 4045SOL    HW224167   2.462   6.778   3.624
 4046SOL     OW24168   2.093   7.299   2.345
 4046SOL    HW124169   2.127   7.376   2.399
 4046SOL    HW224170   2.137   7.299   2.255
 4047SOL     OW24171   2.989   6.927   3.552
 4047SOL    HW124172   3.036   6.927   3.640
 4047SOL    HW224173   2.941   6.840   3.541
 4048SOL     OW24174   2.482   7.372   3.301
 4048SOL    HW124175   2.390   7.355   3.336
 4048SOL    HW224176   2.510   7.464   3.327
 4049SOL     OW24177   2.468   6.550   1.985
 4049SOL    HW124178   2.475   6.634   1.931
 4049SOL    HW224179   2.514   6.563   2.073
 4050SOL     OW24180   3.456   5.700   3.342
 4050SOL    HW124181   3.438   5.767   3.270
 4050SOL    HW224182   3.453   5.746   3.431
 4051SOL     OW24183   1.889   7.182   1.979
 4051SOL    HW124184   1.870   7.086   2.000
 4051SOL    HW224185   1.856   7.240   2.054
 4052SOL     OW24186   3.328   7.003   2.815
 4052SOL    HW124187   3.269   7.009   2.895
 4052SOL    HW224188   3.313   6.915   2.769
 4053SOL     OW24189   3.529   7.300   2.434
 4053SOL    HW124190   3.488   7.277   2.346
 4053SOL    HW224191   3.511   7.226   2.499
 4054SOL     OW24192   2.460   6.315   2.132
 4054SOL    HW124193   2.484   6.384   2.064
 4054SOL    HW224194   2.382   6.348   2.186
 4055SOL     OW24195   3.438   7.248   2.169
 4055SOL    HW124196   3.527   7.294   2.172
 4055SOL    HW224197   3.417   7.224   2.074
 4056SOL     OW24198   2.853   5.996   3.104
 4056SOL    HW124199   2.776   6.030   3.158
 4056SOL    HW224200   2.819   5.945   3.025
 4057SOL     OW24201   1.938   6.397   2.651
 4057SOL    HW124202   2.037   6.385   2.660
 4057SOL    HW224203   1.914   6.492   2.672
 4058SOL     OW24204   1.992   7.407   3.433
 4058SOL    HW124205   1.982   7.392   3.532
 4058SOL    HW224206   1.906   7.443   3.397
 4059SOL     OW24207   3.224   6.730   2.407
 4059SOL    HW124208   3.307   6.701   2.359
 4059SOL    HW224209   3.175   6.797   2.351
 4060SOL     OW24210   2.213   7.387   2.715
 4060SOL    HW124211   2.263   7.301   2.721
 4060SOL    HW224212   2.278   7.464   2.712
 4061SOL     OW24213   3.089   7.136   3.368
 4061SOL    HW124214   3.095   7.059   3.432
 4061SOL    HW224215   3.037   7.110   3.288
 4062SOL     OW24216   2.973   7.362   2.099
 4062SOL    HW124217   2.913   7.300   2.149
 4062SOL    HW224218   3.004   7.318   2.014
 4063SOL     OW24219   3.494   6.963   1.943
 4063SOL    HW124220   3.462   7.057   1.933
 4063SOL    HW224221   3.418   6.900   1.931
 4064SOL     OW24222   2.111   7.371   3.103
 4064SOL    HW124223   2.168   7.306   3.153
 4064SOL    HW224224   2.095   7.338   3.010
 4065SOL     OW24225   2.802   7.284   2.766
 4065SOL    HW124226   2.882   7.227   2.787
 4065SOL    HW224227   2.753   7.244   2.689
 4066SOL     OW24228   2.643   5.850   3.611
 4066SOL    HW124229   2.710   5.789   3.654
 4066SOL    HW224230   2.570   5.869   3.676
 4067SOL     OW24231   2.797   5.822   2.342
 4067SOL    HW124232   2.749   5.863   2.264
 4067SOL    HW224233   2.896   5.820   2.323
 4068SOL     OW24234   3.089   7.156   2.655
 4068SOL    HW124235   3.110   7.230   2.590
 4068SOL    HW224236   3.157   7.156   2.728
 4069SOL     OW24237   2.321   6.738   2.603
 4069SOL    HW124238   2.250   6.711   2.668
 4069SOL    HW224239   2.295   6.710   2.510
 4070SOL     OW24240   3.133   7.383   2.453
 4070SOL    HW124241   3.177   7.447   2.389
 4070SOL    HW224242   3.083   7.435   2.523
 4071SOL     OW24243   2.894   6.135   1.878
 4071SOL    HW124244   2.853   6.217   1.839
 4071SOL    HW224245   2.958   6.161   1.951
 4072SOL     OW24246   3.291   6.759   2.729
 4072SOL    HW124247   3.236   6.675   2.722
 4072SOL    HW224248   3.317   6.788   2.637
 4073SOL     OW24249   2.350   6.971   2.036
 4073SOL    HW124250   2.263   6.956   2.083
 4073SOL    HW224251   2.333   6.997   1.941
 4074SOL     OW24252   3.252   6.161   1.940
 4074SOL    HW124253   3.198   6.140   2.021
 4074SOL    HW224254   3.343   6.120   1.949
 4075SOL     OW24255   2.973   6.781   2.962
 4075SOL    HW124256   2.933   6.825   3.043
 4075SOL    HW224257   2.932   6.818   2.879
 4076SOL     OW24258   2.777   5.675   3.264
 4076SOL    HW124259   2.802   5.655   3.169
 4076SOL    HW224260   2.849   5.731   3.306
 4077SOL     OW24261   3.136   5.972   3.124
 4077SOL    HW124262   3.157   6.046   3.188
 4077SOL    HW224263   3.047   5.989   3.081
 4078SOL     OW24264   2.229   6.686   2.363
 4078SOL    HW124265   2.222   6.769   2.307
 4078SOL    HW224266   2.233   6.606   2.303
 4079SOL     OW24267   3.134   7.031   3.004
 4079SOL    HW124268   3.181   7.044   3.091
 4079SOL    HW224269   3.068   6.957   3.013
 4080SOL     OW24270   3.444   6.225   2.334
 4080SOL    HW124271   3.413   6.286   2.407
 4080SOL    HW224272   3.494   6.277   2.265
 4081SOL     OW24273   2.875   5.691   3.632
 4081SOL    HW124274   2.881   5.776   3.580
 4081SOL    HW224275   2.907   5.615   3.575
 4082SOL     OW24276   1.899   6.896   3.144
 4082SOL    HW124277   1.952   6.847   3.212
 4082SOL    HW224278   1.921   6.994   3.149
 4083SOL     OW24279   2.594   6.220   2.926
 4083SOL    HW124280   2.653   6.194   2.850
 4083SOL    HW224281   2.566   6.316   2.915
 4084SOL     OW24282   2.885   6.352   2.828
 4084SOL    HW124283   2.900   6.373   2.924
 4084SOL    HW224284   2.855   6.257   2.819
 4085SOL     OW24285   3.721   7.104   3.467
 4085SOL    HW124286   3.735   7.131   3.372
 4085SOL    HW224287   3.804   7.126   3.520
 4086SOL     OW24288   3.402   5.860   1.987
 4086SOL    HW124289   3.341   5.785   2.010
 4086SOL    HW224290   3.424   5.912   2.070
 4087SOL     OW24291   3.165   6.424   1.904
 4087SOL    HW124292   3.199   6.331   1.919
 4087SOL    HW224293   3.183   6.451   1.809
 4088SOL     OW24294   1.950   7.387   2.789
 4088SOL    HW124295   1.908   7.301   2.762
 4088SOL    HW224296   2.044   7.390   2.755
 4089SOL     OW24297   2.051   6.106   3.584
 4089SOL    HW124298   2.110   6.066   3.514
 4089SOL    HW224299   1.993   6.177   3.543
 4090SOL     OW24300   3.231   6.536   3.522
 4090SOL    HW124301   3.270   6.625   3.542
 4090SOL    HW224302   3.241   6.516   3.425
 4091SOL     OW24303   2.114   7.150   3.606
 4091SOL    HW124304   2.084   7.207   3.682
 4091SOL    HW224305   2.107   7.053   3.632
 4092SOL     OW24306   2.335   6.086   2.053
 4092SOL    HW124307   2.396   6.166   2.057
 4092SOL    HW224308   2.240   6.117   2.060
 4093SOL     OW24309   2.021   6.723   3.328
 4093SOL    HW124310   2.043   6.662   3.404
 4093SOL    HW224311   2.031   6.674   3.242
 4094SOL     OW24312   3.164   6.441   2.171
 4094SOL    HW124313   3.078   6.410   2.213
 4094SOL    HW224314   3.160   6.427   2.072
 4095SOL     OW24315   3.114   7.317   2.990
 4095SOL    HW124316   3.198   7.322   2.936
 4095SOL    HW224317   3.091   7.221   3.008
 4096SOL     OW24318   3.588   5.721   2.385
 4096SOL    HW124319   3.661   5.704   2.318
 4096SOL    HW224320   3.557   5.634   2.423
 4097SOL     OW24321   1.992   7.380   3.713
 4097SOL    HW124322   1.951   7.306   3.766
 4097SOL    HW224323   2.056   7.431   3.771
 4098SOL     OW24324   2.692   6.859   3.284
 4098SOL    HW124325   2.687   6.892   3.379
 4098SOL    HW224326   2.606   6.878   3.238
 4099SOL     OW24327   3.512   7.306   3.256
 4099SOL    HW124328   3.565   7.316   3.172
 4099SOL    HW224329   3.485   7.396   3.290
 4100SOL     OW24330   2.125   5.912   2.582
 4100SOL    HW124331   2.046   5.963   2.548
 4100SOL    HW224332   2.116   5.897   2.680
 4101SOL     OW24333   3.056   7.198   1.893
 4101SOL    HW124334   3.062   7.105   1.930
 4101SOL    HW224335   2.997   7.198   1.813
 4102SOL     OW24336   3.366   7.193   1.906
 4102SOL    HW124337   3.274   7.230   1.913
 4102SOL    HW224338   3.404   7.213   1.816
 4103SOL     OW24339   2.876   5.822   2.833
 4103SOL    HW124340   2.868   5.786   2.740
 4103SOL    HW224341   2.874   5.746   2.898
 4104SOL     OW24342   3.302   6.442   3.260
 4104SOL    HW124343   3.245   6.494   3.197
 4104SOL    HW224344   3.398   6.454   3.236
 4105SOL     OW24345   2.578   6.151   3.570
 4105SOL    HW124346   2.597   6.216   3.644
 4105SOL    HW224347   2.638   6.071   3.579
 4106SOL     OW24348   3.312   6.806   3.495
 4106SOL    HW124349   3.303   6.796   3.594
 4106SOL    HW224350   3.408   6.799   3.469
 4107SOL     OW24351   2.252   7.327   3.422
 4107SOL    HW124352   2.161   7.368   3.420
 4107SOL    HW224353   2.245   7.233   3.454
 4108SOL     OW24354   3.639   5.928   3.504
 4108SOL    HW124355   3.622   5.959   3.410
 4108SOL    HW224356   3.555   5.891   3.542
 4109SOL     OW24357   2.721   6.960   1.878
 4109SOL    HW124358   2.675   6.975   1.966
 4109SOL    HW224359   2.765   7.045   1.848
 4110SOL     OW24360   2.523   7.376   2.815
 4110SOL    HW124361   2.477   7.464   2.802
 4110SOL    HW224362   2.622   7.388   2.808
 4111SOL     OW24363   2.290   6.010   2.382
 4111SOL    HW124364   2.320   5.938   2.320
 4111SOL    HW224365   2.251   5.970   2.465
 4112SOL     OW24366   2.179   6.133   3.142
 4112SOL    HW124367   2.217   6.074   3.214
 4112SOL    HW224368   2.219   6.107   3.054
 4113SOL     OW24369   3.286   5.800   2.974
 4113SOL    HW124370   3.338   5.735   3.029
 4113SOL    HW224371   3.237   5.863   3.035
 4114SOL     OW24372   2.632   6.916   2.163
 4114SOL    HW124373   2.586   6.829   2.180
 4114SOL    HW224374   2.723   6.913   2.204
 4115SOL     OW24375   2.480   7.153   3.146
 4115SOL    HW124376   2.475   7.235   3.203
 4115SOL    HW224377   2.569   7.150   3.101
 4116SOL     OW24378   3.455   5.807   2.744
 4116SOL    HW124379   3.371   5.806   2.798
 4116SOL    HW224380   3.457   5.890   2.688
 4117SOL     OW24381   1.901   6.663   2.162
 4117SOL    HW124382   2.000   6.652   2.153
 4117SOL    HW224383   1.861   6.577   2.194
 4118SOL     OW24384   2.087   5.861   4.720
 4118SOL    HW124385   2.122   5.844   4.812
 4118SOL    HW224386   1.999   5.816   4.708
 4119SOL     OW24387   2.997   6.289   4.441
 4119SOL    HW124388   3.054   6.367   4.416
 4119SOL    HW224389   2.937   6.315   4.517
 4120SOL     OW24390   2.712   6.384   5.547
 4120SOL    HW124391   2.708   6.460   5.612
 4120SOL    HW224392   2.734   6.420   5.456
 4121SOL     OW24393   2.468   6.550   3.847
 4121SOL    HW124394   2.475   6.634   3.793
 4121SOL    HW224395   2.514   6.563   3.935
 4122SOL     OW24396   3.704   7.353   4.083
 4122SOL    HW124397   3.758   7.324   4.163
 4122SOL    HW224398   3.734   7.443   4.054
 4123SOL     OW24399   1.975   6.323   5.321
 4123SOL    HW124400   2.063   6.310   5.366
 4123SOL    HW224401   1.962   6.420   5.299
 4124SOL     OW24402   3.155   6.814   5.147
 4124SOL    HW124403   3.192   6.741   5.089
 4124SOL    HW224404   3.207   6.819   5.232
 4125SOL     OW24405   2.671   5.590   4.226
 4125SOL    HW124406   2.711   5.681   4.217
 4125SOL    HW224407   2.571   5.598   4.232
 4126SOL     OW24408   3.387   6.585   3.914
 4126SOL    HW124409   3.324   6.509   3.927
 4126SOL    HW224410   3.435   6.603   4.000
 4127SOL     OW24411   3.049   7.378   5.340
 4127SOL    HW124412   3.073   7.438   5.264
 4127SOL    HW224413   3.056   7.283   5.310
 4128SOL     OW24414   2.179   5.837   5.525
 4128SOL    HW124415   2.250   5.908   5.531
 4128SOL    HW224416   2.091   5.876   5.553
 4129SOL     OW24417   3.328   7.003   4.677
 4129SOL    HW124418   3.269   7.009   4.757
 4129SOL    HW224419   3.313   6.915   4.631
 4130SOL     OW24420   1.992   7.407   5.295
 4130SOL    HW124421   1.982   7.392   5.394
 4130SOL    HW224422   1.906   7.443   5.259
 4131SOL     OW24423   2.183   6.529   3.966
 4131SOL    HW124424   2.265   6.568   3.924
 4131SOL    HW224425   2.156   6.447   3.917
 4132SOL     OW24426   2.323   6.852   5.451
 4132SOL    HW124427   2.273   6.853   5.365
 4132SOL    HW224428   2.260   6.834   5.527
 4133SOL     OW24429   2.064   5.871   5.222
 4133SOL    HW124430   1.984   5.931   5.209
 4133SOL    HW224431   2.054   5.822   5.308
 4134SOL     OW24432   2.326   7.329   4.047
 4134SOL    HW124433   2.359   7.368   4.133
 4134SOL    HW224434   2.402   7.322   3.982
 4135SOL     OW24435   3.262   5.693   4.150
 4135SOL    HW124436   3.238   5.656   4.060
 4135SOL    HW224437   3.361   5.709   4.154
 4136SOL     OW24438   2.159   5.621   3.895
 4136SOL    HW124439   2.208   5.705   3.874
 4136SOL    HW224440   2.221   5.556   3.940
 4137SOL     OW24441   2.797   5.822   4.204
 4137SOL    HW124442   2.749   5.863   4.126
 4137SOL    HW224443   2.896   5.820   4.185
 4138SOL     OW24444   3.089   7.156   4.517
 4138SOL    HW124445   3.110   7.230   4.452
 4138SOL    HW224446   3.157   7.156   4.590
 4139SOL     OW24447   3.133   7.383   4.315
 4139SOL    HW124448   3.177   7.447   4.251
 4139SOL    HW224449   3.083   7.435   4.385
 4140SOL     OW24450   3.291   6.759   4.591
 4140SOL    HW124451   3.236   6.675   4.584
 4140SOL    HW224452   3.317   6.788   4.499
 4141SOL     OW24453   3.252   6.161   3.802
 4141SOL    HW124454   3.198   6.140   3.883
 4141SOL    HW224455   3.343   6.120   3.811
 4142SOL     OW24456   3.616   6.809   5.312
 4142SOL    HW124457   3.707   6.770   5.299
 4142SOL    HW224458   3.624   6.905   5.336
 4143SOL     OW24459   2.229   6.686   4.225
 4143SOL    HW124460   2.222   6.769   4.169
 4143SOL    HW224461   2.233   6.606   4.165
 4144SOL     OW24462   2.264   6.337   5.322
 4144SOL    HW124463   2.332   6.392   5.275
 4144SOL    HW224464   2.304   6.249   5.349
 4145SOL     OW24465   2.875   5.691   5.494
 4145SOL    HW124466   2.881   5.776   5.442
 4145SOL    HW224467   2.907   5.615   5.437
 4146SOL     OW24468   2.169   5.799   4.955
 4146SOL    HW124469   2.146   5.836   5.045
 4146SOL    HW224470   2.139   5.704   4.949
 4147SOL     OW24471   3.484   5.953   4.098
 4147SOL    HW124472   3.486   5.877   4.162
 4147SOL    HW224473   3.436   6.030   4.138
 4148SOL     OW24474   3.721   7.104   5.329
 4148SOL    HW124475   3.735   7.131   5.234
 4148SOL    HW224476   3.804   7.126   5.382
 4149SOL     OW24477   2.212   6.484   5.528
 4149SOL    HW124478   2.288   6.528   5.576
 4149SOL    HW224479   2.247   6.437   5.446
 4150SOL     OW24480   3.165   6.424   3.766
 4150SOL    HW124481   3.199   6.331   3.781
 4150SOL    HW224482   3.183   6.451   3.671
 4151SOL     OW24483   3.000   5.966   5.402
 4151SOL    HW124484   2.955   6.029   5.466
 4151SOL    HW224485   3.093   5.997   5.385
 4152SOL     OW24486   3.022   5.793   5.201
 4152SOL    HW124487   3.022   5.857   5.278
 4152SOL    HW224488   3.050   5.841   5.118
 4153SOL     OW24489   1.870   6.912   3.924
 4153SOL    HW124490   1.777   6.933   3.893
 4153SOL    HW224491   1.880   6.813   3.937
 4154SOL     OW24492   2.366   7.154   4.634
 4154SOL    HW124493   2.432   7.228   4.643
 4154SOL    HW224494   2.410   7.075   4.592
 4155SOL     OW24495   2.864   6.382   4.962
 4155SOL    HW124496   2.905   6.350   5.048
 4155SOL    HW224497   2.768   6.355   4.959
 4156SOL     OW24498   3.231   6.536   5.384
 4156SOL    HW124499   3.270   6.625   5.404
 4156SOL    HW224500   3.241   6.516   5.287
 4157SOL     OW24501   2.114   7.150   5.468
 4157SOL    HW124502   2.084   7.207   5.544
 4157SOL    HW224503   2.107   7.053   5.494
 4158SOL     OW24504   2.792   7.264   5.189
 4158SOL    HW124505   2.768   7.246   5.094
 4158SOL    HW224506   2.822   7.358   5.199
 4159SOL     OW24507   3.209   6.645   4.958
 4159SOL    HW124508   3.233   6.582   4.884
 4159SOL    HW224509   3.119   6.685   4.940
 4160SOL     OW24510   3.621   7.333   4.878
 4160SOL    HW124511   3.682   7.363   4.805
 4160SOL    HW224512   3.583   7.244   4.856
 4161SOL     OW24513   2.550   7.248   5.440
 4161SOL    HW124514   2.494   7.329   5.449
 4161SOL    HW224515   2.602   7.252   5.354
 4162SOL     OW24516   2.692   6.859   5.146
 4162SOL    HW124517   2.687   6.892   5.241
 4162SOL    HW224518   2.606   6.878   5.100
 4163SOL     OW24519   3.703   5.761   4.687
 4163SOL    HW124520   3.742   5.676   4.651
 4163SOL    HW224521   3.605   5.763   4.668
 4164SOL     OW24522   2.125   5.912   4.444
 4164SOL    HW124523   2.046   5.963   4.410
 4164SOL    HW224524   2.116   5.897   4.542
 4165SOL     OW24525   2.684   6.588   5.096
 4165SOL    HW124526   2.724   6.587   5.004
 4165SOL    HW224527   2.694   6.680   5.136
 4166SOL     OW24528   3.366   7.193   3.768
 4166SOL    HW124529   3.274   7.230   3.775
 4166SOL    HW224530   3.404   7.213   3.678
 4167SOL     OW24531   3.476   6.878   5.013
 4167SOL    HW124532   3.536   6.881   5.093
 4167SOL    HW224533   3.401   6.942   5.026
 4168SOL     OW24534   2.117   6.934   4.014
 4168SOL    HW124535   2.021   6.935   3.987
 4168SOL    HW224536   2.129   6.987   4.098
 4169SOL     OW24537   1.967   6.599   5.450
 4169SOL    HW124538   1.890   6.566   5.504
 4169SOL    HW224539   2.052   6.569   5.492
 4170SOL     OW24540   2.534   5.789   5.213
 4170SOL    HW124541   2.624   5.773   5.173
 4170SOL    HW224542   2.542   5.794   5.312
 4171SOL     OW24543   3.302   6.442   5.122
 4171SOL    HW124544   3.245   6.494   5.059
 4171SOL    HW224545   3.398   6.454   5.098
 4172SOL     OW24546   3.045   6.921   3.843
 4172SOL    HW124547   2.946   6.910   3.845
 4172SOL    HW224548   3.079   6.936   3.936
 4173SOL     OW24549   3.312   6.806   5.357
 4173SOL    HW124550   3.303   6.796   5.456
 4173SOL    HW224551   3.408   6.799   5.331
 4174SOL     OW24552   2.456   6.331   4.376
 4174SOL    HW124553   2.506   6.416   4.357
 4174SOL    HW224554   2.368   6.333   4.328
 4175SOL     OW24555   2.721   6.960   3.740
 4175SOL    HW124556   2.675   6.975   3.828
 4175SOL    HW224557   2.765   7.045   3.710
 4176SOL     OW24558   2.534   6.977   5.348
 4176SOL    HW124559   2.456   6.927   5.386
 4176SOL    HW224560   2.531   7.072   5.379
 4177SOL     OW24561   3.686   5.778   4.951
 4177SOL    HW124562   3.682   5.688   4.995
 4177SOL    HW224563   3.689   5.767   4.852
 4178SOL     OW24564   3.567   7.073   4.828
 4178SOL    HW124565   3.474   7.048   4.801
 4178SOL    HW224566   3.593   7.023   4.910
 4179SOL     OW24567   2.632   6.916   4.025
 4179SOL    HW124568   2.586   6.829   4.042
 4179SOL    HW224569   2.723   6.913   4.066
 4180SOL     OW24570   3.214   5.638   3.892
 4180SOL    HW124571   3.249   5.597   3.808
 4180SOL    HW224572   3.124   5.600   3.912
 4181SOL     OW24573   3.455   5.807   4.606
 4181SOL    HW124574   3.371   5.806   4.660
 4181SOL    HW224575   3.457   5.890   4.550
 4182SOL     OW24576   2.087   5.861   6.582
 4182SOL    HW124577   2.122   5.844   6.674
 4182SOL    HW224578   1.999   5.816   6.570
 4183SOL     OW24579   1.881   5.954   6.233
 4183SOL    HW124580   1.799   5.997   6.272
 4183SOL    HW224581   1.853   5.881   6.170
 4184SOL     OW24582   2.431   6.861   6.751
 4184SOL    HW124583   2.338   6.854   6.714
 4184SOL    HW224584   2.442   6.950   6.795
 4185SOL     OW24585   3.417   7.097   6.289
 4185SOL    HW124586   3.360   7.081   6.370
 4185SOL    HW224587   3.358   7.107   6.209
 4186SOL     OW24588   2.997   6.289   6.303
 4186SOL    HW124589   3.054   6.367   6.278
 4186SOL    HW224590   2.937   6.315   6.379
 4187SOL     OW24591   2.630   6.730   6.609
 4187SOL    HW124592   2.552   6.747   6.669
 4187SOL    HW224593   2.664   6.817   6.573
 4188SOL     OW24594   2.547   6.598   6.251
 4188SOL    HW124595   2.616   6.582   6.321
 4188SOL    HW224596   2.474   6.655   6.289
 4189SOL     OW24597   2.197   7.021   6.647
 4189SOL    HW124598   2.119   6.990   6.594
 4189SOL    HW224599   2.255   7.079   6.590
 4190SOL     OW24600   3.322   7.091   6.925
 4190SOL    HW124601   3.346   7.185   6.951
 4190SOL    HW224602   3.306   7.037   7.007
 4191SOL     OW24603   2.300   5.978   7.085
 4191SOL    HW124604   2.382   5.922   7.094
 4191SOL    HW224605   2.219   5.920   7.089
 4192SOL     OW24606   3.465   6.033   6.323
 4192SOL    HW124607   3.391   6.079   6.273
 4192SOL    HW224608   3.516   6.101   6.376
 4193SOL     OW24609   2.093   7.299   6.069
 4193SOL    HW124610   2.127   7.376   6.123
 4193SOL    HW224611   2.137   7.299   5.979
 4194SOL     OW24612   2.092   7.020   6.124
 4194SOL    HW124613   2.066   7.116   6.124
 4194SOL    HW224614   2.021   6.966   6.169
 4195SOL     OW24615   2.102   6.677   6.472
 4195SOL    HW124616   2.116   6.593   6.524
 4195SOL    HW224617   2.047   6.741   6.527
 4196SOL     OW24618   2.482   7.372   7.025
 4196SOL    HW124619   2.390   7.355   7.060
 4196SOL    HW224620   2.510   7.464   7.051
 4197SOL     OW24621   2.468   6.550   5.709
 4197SOL    HW124622   2.475   6.634   5.655
 4197SOL    HW224623   2.514   6.563   5.797
 4198SOL     OW24624   3.456   5.700   7.066
 4198SOL    HW124625   3.438   5.767   6.994
 4198SOL    HW224626   3.453   5.746   7.155
 4199SOL     OW24627   1.984   6.229   6.149
 4199SOL    HW124628   1.939   6.141   6.166
 4199SOL    HW224629   1.983   6.283   6.233
 4200SOL     OW24630   3.704   7.353   5.945
 4200SOL    HW124631   3.758   7.324   6.025
 4200SOL    HW224632   3.734   7.443   5.916
 4201SOL     OW24633   3.551   6.508   6.198
 4201SOL    HW124634   3.646   6.479   6.206
 4201SOL    HW224635   3.543   6.573   6.123
 4202SOL     OW24636   3.503   6.694   6.018
 4202SOL    HW124637   3.589   6.696   5.966
 4202SOL    HW224638   3.517   6.741   6.106
 4203SOL     OW24639   2.475   6.951   6.312
 4203SOL    HW124640   2.426   6.864   6.321
 4203SOL    HW224641   2.452   6.994   6.225
 4204SOL     OW24642   2.671   5.590   6.088
 4204SOL    HW124643   2.711   5.681   6.079
 4204SOL    HW224644   2.571   5.598   6.094
 4205SOL     OW24645   2.059   6.562   6.850
 4205SOL    HW124646   2.148   6.517   6.836
 4205SOL    HW224647   1.986   6.497   6.831
 4206SOL     OW24648   3.328   7.003   6.539
 4206SOL    HW124649   3.269   7.009   6.619
 4206SOL    HW224650   3.313   6.915   6.493
 4207SOL     OW24651   2.460   6.315   5.856
 4207SOL    HW124652   2.484   6.384   5.788
 4207SOL    HW224653   2.382   6.348   5.910
 4208SOL     OW24654   3.143   5.931   6.530
 4208SOL    HW124655   3.057   5.881   6.517
 4208SOL    HW224656   3.205   5.877   6.586
 4209SOL     OW24657   2.669   6.191   7.051
 4209SOL    HW124658   2.622   6.188   7.140
 4209SOL    HW224659   2.618   6.136   6.985
 4210SOL     OW24660   2.853   5.996   6.828
 4210SOL    HW124661   2.776   6.030   6.882
 4210SOL    HW224662   2.819   5.945   6.749
 4211SOL     OW24663   2.903   6.287   6.015
 4211SOL    HW124664   2.929   6.283   6.111
 4211SOL    HW224665   2.818   6.236   6.001
 4212SOL     OW24666   1.938   6.397   6.375
 4212SOL    HW124667   2.037   6.385   6.384
 4212SOL    HW224668   1.914   6.492   6.396
 4213SOL     OW24669   1.992   7.407   7.157
 4213SOL    HW124670   1.982   7.392   7.256
 4213SOL    HW224671   1.906   7.443   7.121
 4214SOL     OW24672   3.224   6.730   6.131
 4214SOL    HW124673   3.307   6.701   6.083
 4214SOL    HW224674   3.175   6.797   6.075
 4215SOL     OW24675   2.412   5.782   6.471
 4215SOL    HW124676   2.407   5.777   6.571
 4215SOL    HW224677   2.414   5.878   6.442
 4216SOL     OW24678   2.870   7.042   6.063
 4216SOL    HW124679   2.824   7.114   6.011
 4216SOL    HW224680   2.866   7.062   6.161
 4217SOL     OW24681   2.213   7.387   6.439
 4217SOL    HW124682   2.263   7.301   6.445
 4217SOL    HW224683   2.278   7.464   6.436
 4218SOL     OW24684   3.657   6.652   6.459
 4218SOL    HW124685   3.595   6.637   6.383
 4218SOL    HW224686   3.605   6.663   6.544
 4219SOL     OW24687   2.183   6.529   5.828
 4219SOL    HW124688   2.265   6.568   5.786
 4219SOL    HW224689   2.156   6.447   5.779
 4220SOL     OW24690   3.320   6.321   6.314
 4220SOL    HW124691   3.315   6.256   6.389
 4220SOL    HW224692   3.400   6.380   6.327
 4221SOL     OW24693   2.973   7.362   5.823
 4221SOL    HW124694   2.913   7.300   5.873
 4221SOL    HW224695   3.004   7.318   5.738
 4222SOL     OW24696   2.064   5.871   7.084
 4222SOL    HW124697   1.984   5.931   7.071
 4222SOL    HW224698   2.054   5.822   7.170
 4223SOL     OW24699   3.494   6.963   5.667
 4223SOL    HW124700   3.462   7.057   5.657
 4223SOL    HW224701   3.418   6.900   5.655
 4224SOL     OW24702   2.326   7.329   5.909
 4224SOL    HW124703   2.359   7.368   5.995
 4224SOL    HW224704   2.402   7.322   5.844
 4225SOL     OW24705   3.262   5.693   6.012
 4225SOL    HW124706   3.238   5.656   5.922
 4225SOL    HW224707   3.361   5.709   6.016
 4226SOL     OW24708   2.111   7.371   6.827
 4226SOL    HW124709   2.168   7.306   6.877
 4226SOL    HW224710   2.095   7.338   6.734
 4227SOL     OW24711   2.802   7.284   6.490
 4227SOL    HW124712   2.882   7.227   6.511
 4227SOL    HW224713   2.753   7.244   6.413
 4228SOL     OW24714   2.244   6.286   6.066
 4228SOL    HW124715   2.289   6.196   6.063
 4228SOL    HW224716   2.150   6.275   6.099
 4229SOL     OW24717   2.750   7.100   6.781
 4229SOL    HW124718   2.727   7.075   6.687
 4229SOL    HW224719   2.811   7.031   6.820
 4230SOL     OW24720   2.665   6.988   6.510
 4230SOL    HW124721   2.755   7.002   6.468
 4230SOL    HW224722   2.594   6.990   6.439
 4231SOL     OW24723   2.784   6.089   6.485
 4231SOL    HW124724   2.759   6.080   6.389
 4231SOL    HW224725   2.832   6.007   6.516
 4232SOL     OW24726   2.401   5.650   6.098
 4232SOL    HW124727   2.320   5.651   6.156
 4232SOL    HW224728   2.404   5.733   6.043
 4233SOL     OW24729   2.159   5.621   5.757
 4233SOL    HW124730   2.208   5.705   5.736
 4233SOL    HW224731   2.221   5.556   5.802
 4234SOL     OW24732   2.797   5.822   6.066
 4234SOL    HW124733   2.749   5.863   5.988
 4234SOL    HW224734   2.896   5.820   6.047
 4235SOL     OW24735   3.089   7.156   6.379
 4235SOL    HW124736   3.110   7.230   6.314
 4235SOL    HW224737   3.157   7.156   6.452
 4236SOL     OW24738   2.321   6.738   6.327
 4236SOL    HW124739   2.250   6.711   6.392
 4236SOL    HW224740   2.295   6.710   6.234
 4237SOL     OW24741   3.133   7.383   6.177
 4237SOL    HW124742   3.177   7.447   6.113
 4237SOL    HW224743   3.083   7.435   6.247
 4238SOL     OW24744   2.894   6.135   5.602
 4238SOL    HW124745   2.853   6.217   5.563
 4238SOL    HW224746   2.958   6.161   5.675
 4239SOL     OW24747   1.940   6.142   6.972
 4239SOL    HW124748   2.032   6.141   6.931
 4239SOL    HW224749   1.934   6.216   7.039
 4240SOL     OW24750   2.423   5.808   6.733
 4240SOL    HW124751   2.461   5.724   6.770
 4240SOL    HW224752   2.335   5.827   6.777
 4241SOL     OW24753   2.728   6.040   6.228
 4241SOL    HW124754   2.696   6.112   6.166
 4241SOL    HW224755   2.752   5.959   6.175
 4242SOL     OW24756   2.879   5.625   6.339
 4242SOL    HW124757   2.807   5.630   6.270
 4242SOL    HW224758   2.855   5.556   6.408
 4243SOL     OW24759   3.291   6.759   6.453
 4243SOL    HW124760   3.236   6.675   6.446
 4243SOL    HW224761   3.317   6.788   6.361
 4244SOL     OW24762   3.328   6.176   6.578
 4244SOL    HW124763   3.298   6.081   6.585
 4244SOL    HW224764   3.401   6.192   6.644
 4245SOL     OW24765   3.719   6.419   5.963
 4245SOL    HW124766   3.761   6.355   6.027
 4245SOL    HW224767   3.681   6.368   5.885
 4246SOL     OW24768   2.350   6.971   5.760
 4246SOL    HW124769   2.263   6.956   5.807
 4246SOL    HW224770   2.333   6.997   5.665
 4247SOL     OW24771   3.526   6.866   6.243
 4247SOL    HW124772   3.625   6.874   6.257
 4247SOL    HW224773   3.481   6.950   6.274
 4248SOL     OW24774   3.252   6.161   5.664
 4248SOL    HW124775   3.198   6.140   5.745
 4248SOL    HW224776   3.343   6.120   5.673
 4249SOL     OW24777   2.389   5.842   5.914
 4249SOL    HW124778   2.416   5.783   5.839
 4249SOL    HW224779   2.389   5.937   5.883
 4250SOL     OW24780   2.926   6.933   6.926
 4250SOL    HW124781   2.846   6.910   6.981
 4250SOL    HW224782   3.009   6.907   6.975
 4251SOL     OW24783   2.973   6.781   6.686
 4251SOL    HW124784   2.933   6.825   6.767
 4251SOL    HW224785   2.932   6.818   6.603
 4252SOL     OW24786   3.500   6.685   6.665
 4252SOL    HW124787   3.505   6.766   6.724
 4252SOL    HW224788   3.414   6.687   6.614
 4253SOL     OW24789   2.777   5.675   6.988
 4253SOL    HW124790   2.802   5.655   6.893
 4253SOL    HW224791   2.849   5.731   7.030
 4254SOL     OW24792   2.567   6.636   5.954
 4254SOL    HW124793   2.553   6.643   6.053
 4254SOL    HW224794   2.651   6.585   5.936
 4255SOL     OW24795   2.272   6.399   6.837
 4255SOL    HW124796   2.358   6.411   6.887
 4255SOL    HW224797   2.230   6.312   6.864
 4256SOL     OW24798   3.136   5.972   6.848
 4256SOL    HW124799   3.157   6.046   6.912
 4256SOL    HW224800   3.047   5.989   6.805
 4257SOL     OW24801   1.926   7.150   6.917
 4257SOL    HW124802   1.880   7.232   6.883
 4257SOL    HW224803   2.024   7.169   6.926
 4258SOL     OW24804   2.229   6.686   6.087
 4258SOL    HW124805   2.222   6.769   6.031
 4258SOL    HW224806   2.233   6.606   6.027
 4259SOL     OW24807   2.428   6.123   6.451
 4259SOL    HW124808   2.440   6.189   6.377
 4259SOL    HW224809   2.474   6.157   6.534
 4260SOL     OW24810   3.114   6.934   5.974
 4260SOL    HW124811   3.164   7.011   6.014
 4260SOL    HW224812   3.019   6.936   6.006
 4261SOL     OW24813   3.134   7.031   6.728
 4261SOL    HW124814   3.181   7.044   6.815
 4261SOL    HW224815   3.068   6.957   6.737
 4262SOL     OW24816   3.444   6.225   6.058
 4262SOL    HW124817   3.413   6.286   6.131
 4262SOL    HW224818   3.494   6.277   5.989
 4263SOL     OW24819   2.216   7.096   6.915
 4263SOL    HW124820   2.195   7.052   6.828
 4263SOL    HW224821   2.313   7.122   6.918
 4264SOL     OW24822   2.264   6.337   7.184
 4264SOL    HW124823   2.332   6.392   7.137
 4264SOL    HW224824   2.304   6.249   7.211
 4265SOL     OW24825   3.449   6.365   7.256
 4265SOL    HW124826   3.357   6.403   7.251
 4265SOL    HW224827   3.509   6.412   7.191
 4266SOL     OW24828   2.435   6.456   6.615
 4266SOL    HW124829   2.479   6.545   6.606
 4266SOL    HW224830   2.372   6.456   6.692
 4267SOL     OW24831   3.222   6.448   6.631
 4267SOL    HW124832   3.147   6.448   6.565
 4267SOL    HW224833   3.259   6.356   6.640
 4268SOL     OW24834   3.071   6.111   5.861
 4268SOL    HW124835   3.084   6.027   5.915
 4268SOL    HW224836   3.042   6.185   5.921
 4269SOL     OW24837   2.169   5.799   6.817
 4269SOL    HW124838   2.146   5.836   6.907
 4269SOL    HW224839   2.139   5.704   6.811
 4270SOL     OW24840   1.899   6.896   6.868
 4270SOL    HW124841   1.952   6.847   6.936
 4270SOL    HW224842   1.921   6.994   6.873
 4271SOL     OW24843   2.594   6.220   6.650
 4271SOL    HW124844   2.653   6.194   6.574
 4271SOL    HW224845   2.566   6.316   6.639
 4272SOL     OW24846   2.169   5.649   6.204
 4272SOL    HW124847   2.158   5.743   6.237
 4272SOL    HW224848   2.164   5.586   6.281
 4273SOL     OW24849   3.484   5.953   5.960
 4273SOL    HW124850   3.486   5.877   6.024
 4273SOL    HW224851   3.436   6.030   6.000
 4274SOL     OW24852   2.885   6.352   6.552
 4274SOL    HW124853   2.900   6.373   6.648
 4274SOL    HW224854   2.855   6.257   6.543
 4275SOL     OW24855   2.842   7.159   7.286
 4275SOL    HW124856   2.822   7.203   7.198
 4275SOL    HW224857   2.881   7.068   7.270
 4276SOL     OW24858   3.402   5.860   5.711
 4276SOL    HW124859   3.341   5.785   5.734
 4276SOL    HW224860   3.424   5.912   5.794
 4277SOL     OW24861   3.165   6.424   5.628
 4277SOL    HW124862   3.199   6.331   5.643
 4277SOL    HW224863   3.183   6.451   5.533
 4278SOL     OW24864   2.930   6.919   6.435
 4278SOL    HW124865   2.937   6.835   6.380
 4278SOL    HW224866   2.992   6.988   6.399
 4279SOL     OW24867   2.181   6.396   6.535
 4279SOL    HW124868   2.274   6.432   6.540
 4279SOL    HW224869   2.175   6.311   6.587
 4280SOL     OW24870   2.201   6.095   6.592
 4280SOL    HW124871   2.149   6.012   6.575
 4280SOL    HW224872   2.278   6.100   6.528
 4281SOL     OW24873   3.000   5.966   7.264
 4281SOL    HW124874   2.955   6.029   7.328
 4281SOL    HW224875   3.093   5.997   7.247
 4282SOL     OW24876   3.022   5.793   7.063
 4282SOL    HW124877   3.022   5.857   7.140
 4282SOL    HW224878   3.050   5.841   6.980
 4283SOL     OW24879   1.870   6.912   5.786
 4283SOL    HW124880   1.777   6.933   5.755
 4283SOL    HW224881   1.880   6.813   5.799
 4284SOL     OW24882   1.950   7.387   6.513
 4284SOL    HW124883   1.908   7.301   6.486
 4284SOL    HW224884   2.044   7.390   6.479
 4285SOL     OW24885   2.366   7.154   6.496
 4285SOL    HW124886   2.432   7.228   6.505
 4285SOL    HW224887   2.410   7.075   6.454
 4286SOL     OW24888   2.864   6.382   6.824
 4286SOL    HW124889   2.905   6.350   6.910
 4286SOL    HW224890   2.768   6.355   6.821
 4287SOL     OW24891   1.902   6.130   6.700
 4287SOL    HW124892   1.987   6.097   6.659
 4287SOL    HW224893   1.915   6.145   6.798
 4288SOL     OW24894   2.677   6.158   5.911
 4288SOL    HW124895   2.684   6.069   5.865
 4288SOL    HW224896   2.583   6.192   5.903
 4289SOL     OW24897   3.519   6.190   6.792
 4289SOL    HW124898   3.481   6.121   6.854
 4289SOL    HW224899   3.601   6.154   6.748
 4290SOL     OW24900   2.533   6.050   6.855
 4290SOL    HW124901   2.499   5.961   6.825
 4290SOL    HW224902   2.559   6.104   6.775
 4291SOL     OW24903   2.792   7.264   7.051
 4291SOL    HW124904   2.768   7.246   6.956
 4291SOL    HW224905   2.822   7.358   7.061
 4292SOL     OW24906   2.335   6.086   5.777
 4292SOL    HW124907   2.396   6.166   5.781
 4292SOL    HW224908   2.240   6.117   5.784
 4293SOL     OW24909   2.021   6.723   7.052
 4293SOL    HW124910   2.043   6.662   7.128
 4293SOL    HW224911   2.031   6.674   6.966
 4294SOL     OW24912   3.209   6.645   6.820
 4294SOL    HW124913   3.233   6.582   6.746
 4294SOL    HW224914   3.119   6.685   6.802
 4295SOL     OW24915   3.164   6.441   5.895
 4295SOL    HW124916   3.078   6.410   5.937
 4295SOL    HW224917   3.160   6.427   5.796
 4296SOL     OW24918   3.621   7.333   6.740
 4296SOL    HW124919   3.682   7.363   6.667
 4296SOL    HW224920   3.583   7.244   6.718
 4297SOL     OW24921   3.114   7.317   6.714
 4297SOL    HW124922   3.198   7.322   6.660
 4297SOL    HW224923   3.091   7.221   6.732
 4298SOL     OW24924   1.945   6.844   6.608
 4298SOL    HW124925   1.940   6.843   6.708
 4298SOL    HW224926   1.862   6.803   6.570
 4299SOL     OW24927   3.588   5.721   6.109
 4299SOL    HW124928   3.661   5.704   6.042
 4299SOL    HW224929   3.557   5.634   6.147
 4300SOL     OW24930   3.142   6.513   6.258
 4300SOL    HW124931   3.202   6.432   6.260
 4300SOL    HW224932   3.182   6.582   6.198
 4301SOL     OW24933   2.534   7.202   5.740
 4301SOL    HW124934   2.543   7.212   5.641
 4301SOL    HW224935   2.494   7.113   5.761
 4302SOL     OW24936   3.512   7.306   6.980
 4302SOL    HW124937   3.565   7.316   6.896
 4302SOL    HW224938   3.485   7.396   7.014
 4303SOL     OW24939   3.703   5.761   6.549
 4303SOL    HW124940   3.742   5.676   6.513
 4303SOL    HW224941   3.605   5.763   6.530
 4304SOL     OW24942   2.125   5.912   6.306
 4304SOL    HW124943   2.046   5.963   6.272
 4304SOL    HW224944   2.116   5.897   6.404
 4305SOL     OW24945   2.684   6.588   6.958
 4305SOL    HW124946   2.724   6.587   6.866
 4305SOL    HW224947   2.694   6.680   6.998
 4306SOL     OW24948   2.778   6.496   5.877
 4306SOL    HW124949   2.841   6.534   5.809
 4306SOL    HW224950   2.818   6.413   5.916
 4307SOL     OW24951   3.366   7.193   5.630
 4307SOL    HW124952   3.274   7.230   5.637
 4307SOL    HW224953   3.404   7.213   5.540
 4308SOL     OW24954   2.234   6.874   7.076
 4308SOL    HW124955   2.221   6.967   7.042
 4308SOL    HW224956   2.150   6.822   7.063
 4309SOL     OW24957   3.476   6.878   6.875
 4309SOL    HW124958   3.536   6.881   6.955
 4309SOL    HW224959   3.401   6.942   6.888
 4310SOL     OW24960   2.901   6.684   6.282
 4310SOL    HW124961   2.831   6.637   6.336
 4310SOL    HW224962   2.960   6.616   6.239
 4311SOL     OW24963   2.876   5.822   6.557
 4311SOL    HW124964   2.868   5.786   6.464
 4311SOL    HW224965   2.874   5.746   6.622
 4312SOL     OW24966   2.452   7.073   6.077
 4312SOL    HW124967   2.494   7.015   6.007
 4312SOL    HW224968   2.408   7.152   6.033
 4313SOL     OW24969   3.571   5.971   6.967
 4313SOL    HW124970   3.644   6.040   6.971
 4313SOL    HW224971   3.599   5.896   6.908
 4314SOL     OW24972   2.117   6.934   5.876
 4314SOL    HW124973   2.021   6.935   5.849
 4314SOL    HW224974   2.129   6.987   5.960
 4315SOL     OW24975   3.302   6.442   6.984
 4315SOL    HW124976   3.245   6.494   6.921
 4315SOL    HW224977   3.398   6.454   6.960
 4316SOL     OW24978   1.934   5.752   5.904
 4316SOL    HW124979   1.917   5.835   5.850
 4316SOL    HW224980   2.024   5.715   5.882
 4317SOL     OW24981   3.045   6.921   5.705
 4317SOL    HW124982   2.946   6.910   5.707
 4317SOL    HW224983   3.079   6.936   5.798
 4318SOL     OW24984   2.475   6.428   7.017
 4318SOL    HW124985   2.531   6.509   7.000
 4318SOL    HW224986   2.534   6.348   7.020
 4319SOL     OW24987   3.355   7.353   6.545
 4319SOL    HW124988   3.388   7.417   6.476
 4319SOL    HW224989   3.421   7.347   6.620
 4320SOL     OW24990   2.252   7.327   7.146
 4320SOL    HW124991   2.161   7.368   7.144
 4320SOL    HW224992   2.245   7.233   7.178
 4321SOL     OW24993   3.536   6.469   6.840
 4321SOL    HW124994   3.509   6.380   6.803
 4321SOL    HW224995   3.537   6.537   6.767
 4322SOL     OW24996   3.087   5.911   6.035
 4322SOL    HW124997   3.152   5.837   6.024
 4322SOL    HW224998   3.107   5.961   6.119
 4323SOL     OW24999   2.456   6.331   6.238
 4323SOL    HW125000   2.506   6.416   6.219
 4323SOL    HW225001   2.368   6.333   6.190
 4324SOL     OW25002   3.639   5.928   7.228
 4324SOL    HW125003   3.622   5.959   7.134
 4324SOL    HW225004   3.555   5.891   7.266
 4325SOL     OW25005   3.592   6.520   7.103
 4325SOL    HW125006   3.630   6.611   7.118
 4325SOL    HW225007   3.584   6.503   7.004
 4326SOL     OW25008   2.721   6.960   5.602
 4326SOL    HW125009   2.675   6.975   5.690
 4326SOL    HW225010   2.765   7.045   5.572
 4327SOL     OW25011   2.523   7.376   6.539
 4327SOL    HW125012   2.477   7.464   6.526
 4327SOL    HW225013   2.622   7.388   6.532
 4328SOL     OW25014   2.721   6.542   6.447
 4328SOL    HW125015   2.775   6.473   6.495
 4328SOL    HW225016   2.689   6.611   6.513
 4329SOL     OW25017   3.723   7.155   6.437
 4329SOL    HW125018   3.652   7.143   6.367
 4329SOL    HW225019   3.724   7.076   6.497
 4330SOL     OW25020   1.941   6.826   6.239
 4330SOL    HW125021   1.940   6.779   6.327
 4330SOL    HW225022   2.023   6.798   6.188
 4331SOL     OW25023   3.686   5.778   6.813
 4331SOL    HW125024   3.682   5.688   6.857
 4331SOL    HW225025   3.689   5.767   6.714
 4332SOL     OW25026   2.290   6.010   6.106
 4332SOL    HW125027   2.320   5.938   6.044
 4332SOL    HW225028   2.251   5.970   6.189
 4333SOL     OW25029   3.567   7.073   6.690
 4333SOL    HW125030   3.474   7.048   6.663
 4333SOL    HW225031   3.593   7.023   6.772
 4334SOL     OW25032   2.179   6.133   6.866
 4334SOL    HW125033   2.217   6.074   6.938
 4334SOL    HW225034   2.219   6.107   6.778
 4335SOL     OW25035   2.674   7.172   6.273
 4335SOL    HW125036   2.706   7.182   6.179
 4335SOL    HW225037   2.595   7.110   6.275
 4336SOL     OW25038   3.286   5.800   6.698
 4336SOL    HW125039   3.338   5.735   6.753
 4336SOL    HW225040   3.237   5.863   6.759
 4337SOL     OW25041   2.863   5.620   6.740
 4337SOL    HW125042   2.800   5.548   6.709
 4337SOL    HW225043   2.956   5.584   6.740
 4338SOL     OW25044   2.632   6.916   5.887
 4338SOL    HW125045   2.586   6.829   5.904
 4338SOL    HW225046   2.723   6.913   5.928
 4339SOL     OW25047   2.480   7.153   6.870
 4339SOL    HW125048   2.475   7.235   6.927
 4339SOL    HW225049   2.569   7.150   6.825
 4340SOL     OW25050   3.214   5.638   5.754
 4340SOL    HW125051   3.249   5.597   5.670
 4340SOL    HW225052   3.124   5.600   5.774
 4341SOL     OW25053   3.162   6.039   6.277
 4341SOL    HW125054   3.103   6.119   6.281
 4341SOL    HW225055   3.177   6.004   6.370
 4342SOL     OW25056   3.455   5.807   6.468
 4342SOL    HW125057   3.371   5.806   6.522
 4342SOL    HW225058   3.457   5.890   6.412
 4343SOL     OW25059   1.901   6.663   5.886
 4343SOL    HW125060   2.000   6.652   5.877
 4343SOL    HW225061   1.861   6.577   5.918
 4344SOL     OW25062   2.737   7.232   5.923
 4344SOL    HW125063   2.660   7.197   5.869
 4344SOL    HW225064   2.705   7.303   5.985
 4345SOL     OW25065   2.092   8.076   0.113
 4345SOL    HW125066   1.999   8.074   0.150
 4345SOL    HW225067   2.093   8.037   0.021
 4346SOL     OW25068   2.087   7.723   0.996
 4346SOL    HW125069   2.122   7.706   1.088
 4346SOL    HW225070   1.999   7.678   0.984
 4347SOL     OW25071   1.881   7.816   0.647
 4347SOL    HW125072   1.799   7.859   0.686
 4347SOL    HW225073   1.853   7.743   0.584
 4348SOL     OW25074   2.997   8.151   0.717
 4348SOL    HW125075   3.054   8.229   0.692
 4348SOL    HW225076   2.937   8.177   0.793
 4349SOL     OW25077   3.617   8.055   0.231
 4349SOL    HW125078   3.605   8.042   0.132
 4349SOL    HW225079   3.587   7.974   0.280
 4350SOL     OW25080   2.630   8.592   1.023
 4350SOL    HW125081   2.552   8.609   1.083
 4350SOL    HW225082   2.664   8.679   0.987
 4351SOL     OW25083   2.547   8.460   0.665
 4351SOL    HW125084   2.616   8.444   0.735
 4351SOL    HW225085   2.474   8.517   0.703
 4352SOL     OW25086   2.300   7.840   1.499
 4352SOL    HW125087   2.382   7.784   1.508
 4352SOL    HW225088   2.219   7.782   1.503
 4353SOL     OW25089   3.465   7.895   0.737
 4353SOL    HW125090   3.391   7.941   0.687
 4353SOL    HW225091   3.516   7.963   0.790
 4354SOL     OW25092   2.102   8.539   0.886
 4354SOL    HW125093   2.116   8.455   0.938
 4354SOL    HW225094   2.047   8.603   0.941
 4355SOL     OW25095   3.456   7.562   1.480
 4355SOL    HW125096   3.438   7.629   1.408
 4355SOL    HW225097   3.453   7.608   1.569
 4356SOL     OW25098   1.984   8.091   0.563
 4356SOL    HW125099   1.939   8.003   0.580
 4356SOL    HW225100   1.983   8.145   0.647
 4357SOL     OW25101   2.671   7.452   0.502
 4357SOL    HW125102   2.711   7.543   0.493
 4357SOL    HW225103   2.571   7.460   0.508
 4358SOL     OW25104   2.059   8.424   1.264
 4358SOL    HW125105   2.148   8.379   1.250
 4358SOL    HW225106   1.986   8.359   1.245
 4359SOL     OW25107   3.387   8.447   0.190
 4359SOL    HW125108   3.324   8.371   0.203
 4359SOL    HW225109   3.435   8.465   0.276
 4360SOL     OW25110   2.460   8.177   0.270
 4360SOL    HW125111   2.484   8.246   0.202
 4360SOL    HW225112   2.382   8.210   0.324
 4361SOL     OW25113   3.143   7.793   0.944
 4361SOL    HW125114   3.057   7.743   0.931
 4361SOL    HW225115   3.205   7.739   1.000
 4362SOL     OW25116   3.256   7.917   1.674
 4362SOL    HW125117   3.236   7.960   1.762
 4362SOL    HW225118   3.334   7.855   1.683
 4363SOL     OW25119   2.835   8.338   1.572
 4363SOL    HW125120   2.881   8.254   1.543
 4363SOL    HW225121   2.779   8.372   1.497
 4364SOL     OW25122   2.853   7.858   1.242
 4364SOL    HW125123   2.776   7.892   1.296
 4364SOL    HW225124   2.819   7.807   1.163
 4365SOL     OW25125   2.903   8.149   0.429
 4365SOL    HW125126   2.929   8.145   0.525
 4365SOL    HW225127   2.818   8.098   0.415
 4366SOL     OW25128   1.938   8.259   0.789
 4366SOL    HW125129   2.037   8.247   0.798
 4366SOL    HW225130   1.914   8.354   0.810
 4367SOL     OW25131   2.727   7.796   0.195
 4367SOL    HW125132   2.786   7.859   0.146
 4367SOL    HW225133   2.746   7.702   0.166
 4368SOL     OW25134   2.412   7.644   0.885
 4368SOL    HW125135   2.407   7.639   0.985
 4368SOL    HW225136   2.414   7.740   0.856
 4369SOL     OW25137   3.320   8.183   0.728
 4369SOL    HW125138   3.315   8.118   0.803
 4369SOL    HW225139   3.400   8.242   0.741
 4370SOL     OW25140   3.262   7.555   0.426
 4370SOL    HW125141   3.238   7.518   0.336
 4370SOL    HW225142   3.361   7.571   0.430
 4371SOL     OW25143   2.244   8.148   0.480
 4371SOL    HW125144   2.289   8.058   0.477
 4371SOL    HW225145   2.150   8.137   0.513
 4372SOL     OW25146   2.476   7.570   0.117
 4372SOL    HW125147   2.574   7.548   0.124
 4372SOL    HW225148   2.445   7.553   0.024
 4373SOL     OW25149   3.213   8.038   1.433
 4373SOL    HW125150   3.241   7.995   1.518
 4373SOL    HW225151   3.238   8.134   1.434
 4374SOL     OW25152   2.784   7.951   0.899
 4374SOL    HW125153   2.759   7.942   0.803
 4374SOL    HW225154   2.832   7.869   0.930
 4375SOL     OW25155   2.401   7.512   0.512
 4375SOL    HW125156   2.320   7.513   0.570
 4375SOL    HW225157   2.404   7.595   0.457
 4376SOL     OW25158   2.159   7.483   0.171
 4376SOL    HW125159   2.208   7.567   0.150
 4376SOL    HW225160   2.221   7.418   0.216
 4377SOL     OW25161   2.797   7.684   0.480
 4377SOL    HW125162   2.749   7.725   0.402
 4377SOL    HW225163   2.896   7.682   0.461
 4378SOL     OW25164   2.894   7.997   0.016
 4378SOL    HW125165   2.853   8.079  -0.023
 4378SOL    HW225166   2.958   8.023   0.089
 4379SOL     OW25167   2.423   7.670   1.147
 4379SOL    HW125168   2.461   7.586   1.184
 4379SOL    HW225169   2.335   7.689   1.191
 4380SOL     OW25170   2.728   7.902   0.642
 4380SOL    HW125171   2.696   7.974   0.580
 4380SOL    HW225172   2.752   7.821   0.589
 4381SOL     OW25173   2.879   7.487   0.753
 4381SOL    HW125174   2.807   7.492   0.684
 4381SOL    HW225175   2.855   7.418   0.822
 4382SOL     OW25176   3.328   8.038   0.992
 4382SOL    HW125177   3.298   7.943   0.999
 4382SOL    HW225178   3.401   8.054   1.058
 4383SOL     OW25179   3.719   8.281   0.377
 4383SOL    HW125180   3.761   8.217   0.441
 4383SOL    HW225181   3.681   8.230   0.299
 4384SOL     OW25182   3.252   8.023   0.078
 4384SOL    HW125183   3.198   8.002   0.159
 4384SOL    HW225184   3.343   7.982   0.087
 4385SOL     OW25185   2.389   7.704   0.328
 4385SOL    HW125186   2.416   7.645   0.253
 4385SOL    HW225187   2.389   7.799   0.297
 4386SOL     OW25188   3.500   8.547   1.079
 4386SOL    HW125189   3.505   8.628   1.138
 4386SOL    HW225190   3.414   8.549   1.028
 4387SOL     OW25191   3.136   7.834   1.262
 4387SOL    HW125192   3.157   7.908   1.326
 4387SOL    HW225193   3.047   7.851   1.219
 4388SOL     OW25194   2.428   7.985   0.865
 4388SOL    HW125195   2.440   8.051   0.791
 4388SOL    HW225196   2.474   8.019   0.948
 4389SOL     OW25197   3.444   8.087   0.472
 4389SOL    HW125198   3.413   8.148   0.545
 4389SOL    HW225199   3.494   8.139   0.403
 4390SOL     OW25200   3.449   8.227   1.670
 4390SOL    HW125201   3.357   8.265   1.665
 4390SOL    HW225202   3.509   8.274   1.605
 4391SOL     OW25203   2.366   7.498   1.740
 4391SOL    HW125204   2.324   7.441   1.670
 4391SOL    HW225205   2.300   7.567   1.772
 4392SOL     OW25206   2.435   8.318   1.029
 4392SOL    HW125207   2.479   8.407   1.020
 4392SOL    HW225208   2.372   8.318   1.106
 4393SOL     OW25209   3.222   8.310   1.045
 4393SOL    HW125210   3.147   8.310   0.979
 4393SOL    HW225211   3.259   8.218   1.054
 4394SOL     OW25212   3.071   7.973   0.275
 4394SOL    HW125213   3.084   7.889   0.329
 4394SOL    HW225214   3.042   8.047   0.335
 4395SOL     OW25215   2.169   7.661   1.231
 4395SOL    HW125216   2.146   7.698   1.321
 4395SOL    HW225217   2.139   7.566   1.225
 4396SOL     OW25218   2.594   8.082   1.064
 4396SOL    HW125219   2.653   8.056   0.988
 4396SOL    HW225220   2.566   8.178   1.053
 4397SOL     OW25221   3.590   8.383   1.854
 4397SOL    HW125222   3.544   8.376   1.765
 4397SOL    HW225223   3.528   8.427   1.920
 4398SOL     OW25224   2.169   7.511   0.618
 4398SOL    HW125225   2.158   7.605   0.651
 4398SOL    HW225226   2.164   7.448   0.695
 4399SOL     OW25227   3.484   7.815   0.374
 4399SOL    HW125228   3.486   7.739   0.438
 4399SOL    HW225229   3.436   7.892   0.414
 4400SOL     OW25230   2.885   8.214   0.966
 4400SOL    HW125231   2.900   8.235   1.062
 4400SOL    HW225232   2.855   8.119   0.957
 4401SOL     OW25233   3.402   7.722   0.125
 4401SOL    HW125234   3.341   7.647   0.148
 4401SOL    HW225235   3.424   7.774   0.208
 4402SOL     OW25236   3.165   8.286   0.042
 4402SOL    HW125237   3.199   8.193   0.057
 4402SOL    HW225238   3.183   8.313  -0.053
 4403SOL     OW25239   2.181   8.258   0.949
 4403SOL    HW125240   2.274   8.294   0.954
 4403SOL    HW225241   2.175   8.173   1.001
 4404SOL     OW25242   2.201   7.957   1.006
 4404SOL    HW125243   2.149   7.874   0.989
 4404SOL    HW225244   2.278   7.962   0.942
 4405SOL     OW25245   3.000   7.828   1.678
 4405SOL    HW125246   2.955   7.891   1.742
 4405SOL    HW225247   3.093   7.859   1.661
 4406SOL     OW25248   3.022   7.655   1.477
 4406SOL    HW125249   3.022   7.719   1.554
 4406SOL    HW225250   3.050   7.703   1.394
 4407SOL     OW25251   2.864   8.244   1.238
 4407SOL    HW125252   2.905   8.212   1.324
 4407SOL    HW225253   2.768   8.217   1.235
 4408SOL     OW25254   1.902   7.992   1.114
 4408SOL    HW125255   1.987   7.959   1.073
 4408SOL    HW225256   1.915   8.007   1.212
 4409SOL     OW25257   2.677   8.020   0.325
 4409SOL    HW125258   2.684   7.931   0.279
 4409SOL    HW225259   2.583   8.054   0.317
 4410SOL     OW25260   3.519   8.052   1.206
 4410SOL    HW125261   3.481   7.983   1.268
 4410SOL    HW225262   3.601   8.016   1.162
 4411SOL     OW25263   2.335   7.948   0.191
 4411SOL    HW125264   2.396   8.028   0.195
 4411SOL    HW225265   2.240   7.979   0.198
 4412SOL     OW25266   3.209   8.507   1.234
 4412SOL    HW125267   3.233   8.444   1.160
 4412SOL    HW225268   3.119   8.547   1.216
 4413SOL     OW25269   3.164   8.303   0.309
 4413SOL    HW125270   3.078   8.272   0.351
 4413SOL    HW225271   3.160   8.289   0.210
 4414SOL     OW25272   2.765   7.534   0.133
 4414SOL    HW125273   2.816   7.535   0.047
 4414SOL    HW225274   2.821   7.492   0.204
 4415SOL     OW25275   3.588   7.583   0.523
 4415SOL    HW125276   3.661   7.566   0.456
 4415SOL    HW225277   3.557   7.496   0.561
 4416SOL     OW25278   3.142   8.375   0.672
 4416SOL    HW125279   3.202   8.294   0.674
 4416SOL    HW225280   3.182   8.444   0.612
 4417SOL     OW25281   3.703   7.623   0.963
 4417SOL    HW125282   3.742   7.538   0.927
 4417SOL    HW225283   3.605   7.625   0.944
 4418SOL     OW25284   2.125   7.774   0.720
 4418SOL    HW125285   2.046   7.825   0.686
 4418SOL    HW225286   2.116   7.759   0.818
 4419SOL     OW25287   2.778   8.358   0.291
 4419SOL    HW125288   2.841   8.396   0.223
 4419SOL    HW225289   2.818   8.275   0.330
 4420SOL     OW25290   2.876   7.684   0.971
 4420SOL    HW125291   2.868   7.648   0.878
 4420SOL    HW225292   2.874   7.608   1.036
 4421SOL     OW25293   3.571   7.833   1.381
 4421SOL    HW125294   3.644   7.902   1.385
 4421SOL    HW225295   3.599   7.758   1.322
 4422SOL     OW25296   1.967   8.461   1.726
 4422SOL    HW125297   1.890   8.428   1.780
 4422SOL    HW225298   2.052   8.431   1.768
 4423SOL     OW25299   2.534   7.651   1.489
 4423SOL    HW125300   2.624   7.635   1.449
 4423SOL    HW225301   2.542   7.656   1.588
 4424SOL     OW25302   3.302   8.304   1.398
 4424SOL    HW125303   3.245   8.356   1.335
 4424SOL    HW225304   3.398   8.316   1.374
 4425SOL     OW25305   1.934   7.614   0.318
 4425SOL    HW125306   1.917   7.697   0.264
 4425SOL    HW225307   2.024   7.577   0.296
 4426SOL     OW25308   3.536   8.331   1.254
 4426SOL    HW125309   3.509   8.242   1.217
 4426SOL    HW225310   3.537   8.399   1.181
 4427SOL     OW25311   3.087   7.773   0.449
 4427SOL    HW125312   3.152   7.699   0.438
 4427SOL    HW225313   3.107   7.823   0.533
 4428SOL     OW25314   2.456   8.193   0.652
 4428SOL    HW125315   2.506   8.278   0.633
 4428SOL    HW225316   2.368   8.195   0.604
 4429SOL     OW25317   3.592   8.382   1.517
 4429SOL    HW125318   3.630   8.473   1.532
 4429SOL    HW225319   3.584   8.365   1.418
 4430SOL     OW25320   2.945   8.432   0.087
 4430SOL    HW125321   2.922   8.485   0.005
 4430SOL    HW225322   3.026   8.376   0.068
 4431SOL     OW25323   3.686   7.640   1.227
 4431SOL    HW125324   3.682   7.550   1.271
 4431SOL    HW225325   3.689   7.629   1.128
 4432SOL     OW25326   2.290   7.872   0.520
 4432SOL    HW125327   2.320   7.800   0.458
 4432SOL    HW225328   2.251   7.832   0.603
 4433SOL     OW25329   2.179   7.995   1.280
 4433SOL    HW125330   2.217   7.936   1.352
 4433SOL    HW225331   2.219   7.969   1.192
 4434SOL     OW25332   3.286   7.662   1.112
 4434SOL    HW125333   3.338   7.597   1.167
 4434SOL    HW225334   3.237   7.725   1.173
 4435SOL     OW25335   2.863   7.482   1.154
 4435SOL    HW125336   2.800   7.410   1.123
 4435SOL    HW225337   2.956   7.446   1.154
 4436SOL     OW25338   3.214   7.500   0.168
 4436SOL    HW125339   3.249   7.459   0.084
 4436SOL    HW225340   3.124   7.462   0.188
 4437SOL     OW25341   3.162   7.901   0.691
 4437SOL    HW125342   3.103   7.981   0.695
 4437SOL    HW225343   3.177   7.866   0.784
 4438SOL     OW25344   3.455   7.669   0.882
 4438SOL    HW125345   3.371   7.668   0.936
 4438SOL    HW225346   3.457   7.752   0.826
 4439SOL     OW25347   2.630   8.592   2.885
 4439SOL    HW125348   2.552   8.609   2.945
 4439SOL    HW225349   2.664   8.679   2.849
 4440SOL     OW25350   2.300   7.840   3.361
 4440SOL    HW125351   2.382   7.784   3.370
 4440SOL    HW225352   2.219   7.782   3.365
 4441SOL     OW25353   2.102   8.539   2.748
 4441SOL    HW125354   2.116   8.455   2.800
 4441SOL    HW225355   2.047   8.603   2.803
 4442SOL     OW25356   3.456   7.562   3.342
 4442SOL    HW125357   3.438   7.629   3.270
 4442SOL    HW225358   3.453   7.608   3.431
 4443SOL     OW25359   1.975   8.185   3.459
 4443SOL    HW125360   2.063   8.172   3.504
 4443SOL    HW225361   1.962   8.282   3.437
 4444SOL     OW25362   2.179   7.699   3.663
 4444SOL    HW125363   2.250   7.770   3.669
 4444SOL    HW225364   2.091   7.738   3.691
 4445SOL     OW25365   3.143   7.793   2.806
 4445SOL    HW125366   3.057   7.743   2.793
 4445SOL    HW225367   3.205   7.739   2.862
 4446SOL     OW25368   2.853   7.858   3.104
 4446SOL    HW125369   2.776   7.892   3.158
 4446SOL    HW225370   2.819   7.807   3.025
 4447SOL     OW25371   3.581   8.033   3.693
 4447SOL    HW125372   3.555   8.122   3.657
 4447SOL    HW225373   3.579   7.965   3.620
 4448SOL     OW25374   3.262   7.555   2.288
 4448SOL    HW125375   3.238   7.518   2.198
 4448SOL    HW225376   3.361   7.571   2.292
 4449SOL     OW25377   3.409   7.670   3.591
 4449SOL    HW125378   3.404   7.707   3.683
 4449SOL    HW225379   3.337   7.601   3.579
 4450SOL     OW25380   3.213   8.038   3.295
 4450SOL    HW125381   3.241   7.995   3.380
 4450SOL    HW225382   3.238   8.134   3.296
 4451SOL     OW25383   2.894   7.997   1.878
 4451SOL    HW125384   2.853   8.079   1.839
 4451SOL    HW225385   2.958   8.023   1.951
 4452SOL     OW25386   3.328   8.038   2.854
 4452SOL    HW125387   3.298   7.943   2.861
 4452SOL    HW225388   3.401   8.054   2.920
 4453SOL     OW25389   3.252   8.023   1.940
 4453SOL    HW125390   3.198   8.002   2.021
 4453SOL    HW225391   3.343   7.982   1.949
 4454SOL     OW25392   3.500   8.547   2.941
 4454SOL    HW125393   3.505   8.628   3.000
 4454SOL    HW225394   3.414   8.549   2.890
 4455SOL     OW25395   2.264   8.199   3.460
 4455SOL    HW125396   2.332   8.254   3.413
 4455SOL    HW225397   2.304   8.111   3.487
 4456SOL     OW25398   3.590   8.383   3.716
 4456SOL    HW125399   3.544   8.376   3.627
 4456SOL    HW225400   3.528   8.427   3.782
 4457SOL     OW25401   2.885   8.214   2.828
 4457SOL    HW125402   2.900   8.235   2.924
 4457SOL    HW225403   2.855   8.119   2.819
 4458SOL     OW25404   3.165   8.286   1.904
 4458SOL    HW125405   3.199   8.193   1.919
 4458SOL    HW225406   3.183   8.313   1.809
 4459SOL     OW25407   2.181   8.258   2.811
 4459SOL    HW125408   2.274   8.294   2.816
 4459SOL    HW225409   2.175   8.173   2.863
 4460SOL     OW25410   3.000   7.828   3.540
 4460SOL    HW125411   2.955   7.891   3.604
 4460SOL    HW225412   3.093   7.859   3.523
 4461SOL     OW25413   2.864   8.244   3.100
 4461SOL    HW125414   2.905   8.212   3.186
 4461SOL    HW225415   2.768   8.217   3.097
 4462SOL     OW25416   2.051   7.968   3.584
 4462SOL    HW125417   2.110   7.928   3.514
 4462SOL    HW225418   1.993   8.039   3.543
 4463SOL     OW25419   3.164   8.303   2.171
 4463SOL    HW125420   3.078   8.272   2.213
 4463SOL    HW225421   3.160   8.289   2.072
 4464SOL     OW25422   3.588   7.583   2.385
 4464SOL    HW125423   3.661   7.566   2.318
 4464SOL    HW225424   3.557   7.496   2.423
 4465SOL     OW25425   3.142   8.375   2.534
 4465SOL    HW125426   3.202   8.294   2.536
 4465SOL    HW225427   3.182   8.444   2.474
 4466SOL     OW25428   3.703   7.623   2.825
 4466SOL    HW125429   3.742   7.538   2.789
 4466SOL    HW225430   3.605   7.625   2.806
 4467SOL     OW25431   2.125   7.774   2.582
 4467SOL    HW125432   2.046   7.825   2.548
 4467SOL    HW225433   2.116   7.759   2.680
 4468SOL     OW25434   3.571   7.833   3.243
 4468SOL    HW125435   3.644   7.902   3.247
 4468SOL    HW225436   3.599   7.758   3.184
 4469SOL     OW25437   2.534   7.651   3.351
 4469SOL    HW125438   2.624   7.635   3.311
 4469SOL    HW225439   2.542   7.656   3.450
 4470SOL     OW25440   3.302   8.304   3.260
 4470SOL    HW125441   3.245   8.356   3.197
 4470SOL    HW225442   3.398   8.316   3.236
 4471SOL     OW25443   2.475   8.290   3.293
 4471SOL    HW125444   2.531   8.371   3.276
 4471SOL    HW225445   2.534   8.210   3.296
 4472SOL     OW25446   3.536   8.331   3.116
 4472SOL    HW125447   3.509   8.242   3.079
 4472SOL    HW225448   3.537   8.399   3.043
 4473SOL     OW25449   3.639   7.790   3.504
 4473SOL    HW125450   3.622   7.821   3.410
 4473SOL    HW225451   3.555   7.753   3.542
 4474SOL     OW25452   2.945   8.432   1.949
 4474SOL    HW125453   2.922   8.485   1.867
 4474SOL    HW225454   3.026   8.376   1.930
 4475SOL     OW25455   2.179   7.995   3.142
 4475SOL    HW125456   2.217   7.936   3.214
 4475SOL    HW225457   2.219   7.969   3.054
 4476SOL     OW25458   3.214   7.500   2.030
 4476SOL    HW125459   3.249   7.459   1.946
 4476SOL    HW225460   3.124   7.462   2.050
 4477SOL     OW25461   1.881   7.816   4.371
 4477SOL    HW125462   1.799   7.859   4.410
 4477SOL    HW225463   1.853   7.743   4.308
 4478SOL     OW25464   2.712   8.246   5.547
 4478SOL    HW125465   2.708   8.322   5.612
 4478SOL    HW225466   2.734   8.282   5.456
 4479SOL     OW25467   2.547   8.460   4.389
 4479SOL    HW125468   2.616   8.444   4.459
 4479SOL    HW225469   2.474   8.517   4.427
 4480SOL     OW25470   2.300   7.840   5.223
 4480SOL    HW125471   2.382   7.784   5.232
 4480SOL    HW225472   2.219   7.782   5.227
 4481SOL     OW25473   3.465   7.895   4.461
 4481SOL    HW125474   3.391   7.941   4.411
 4481SOL    HW225475   3.516   7.963   4.514
 4482SOL     OW25476   1.984   8.091   4.287
 4482SOL    HW125477   1.939   8.003   4.304
 4482SOL    HW225478   1.983   8.145   4.371
 4483SOL     OW25479   2.179   7.699   5.525
 4483SOL    HW125480   2.250   7.770   5.531
 4483SOL    HW225481   2.091   7.738   5.553
 4484SOL     OW25482   3.143   7.793   4.668
 4484SOL    HW125483   3.057   7.743   4.655
 4484SOL    HW225484   3.205   7.739   4.724
 4485SOL     OW25485   3.256   7.917   5.398
 4485SOL    HW125486   3.236   7.960   5.486
 4485SOL    HW225487   3.334   7.855   5.407
 4486SOL     OW25488   2.727   7.796   3.919
 4486SOL    HW125489   2.786   7.859   3.870
 4486SOL    HW225490   2.746   7.702   3.890
 4487SOL     OW25491   3.581   8.033   5.555
 4487SOL    HW125492   3.555   8.122   5.519
 4487SOL    HW225493   3.579   7.965   5.482
 4488SOL     OW25494   2.064   7.733   5.222
 4488SOL    HW125495   1.984   7.793   5.209
 4488SOL    HW225496   2.054   7.684   5.308
 4489SOL     OW25497   3.262   7.555   4.150
 4489SOL    HW125498   3.238   7.518   4.060
 4489SOL    HW225499   3.361   7.571   4.154
 4490SOL     OW25500   2.784   7.951   4.623
 4490SOL    HW125501   2.759   7.942   4.527
 4490SOL    HW225502   2.832   7.869   4.654
 4491SOL     OW25503   2.159   7.483   3.895
 4491SOL    HW125504   2.208   7.567   3.874
 4491SOL    HW225505   2.221   7.418   3.940
 4492SOL     OW25506   2.894   7.997   3.740
 4492SOL    HW125507   2.853   8.079   3.701
 4492SOL    HW225508   2.958   8.023   3.813
 4493SOL     OW25509   2.423   7.670   4.871
 4493SOL    HW125510   2.461   7.586   4.908
 4493SOL    HW225511   2.335   7.689   4.915
 4494SOL     OW25512   2.728   7.902   4.366
 4494SOL    HW125513   2.696   7.974   4.304
 4494SOL    HW225514   2.752   7.821   4.313
 4495SOL     OW25515   3.136   7.834   4.986
 4495SOL    HW125516   3.157   7.908   5.050
 4495SOL    HW225517   3.047   7.851   4.943
 4496SOL     OW25518   3.449   8.227   5.394
 4496SOL    HW125519   3.357   8.265   5.389
 4496SOL    HW225520   3.509   8.274   5.329
 4497SOL     OW25521   2.875   7.553   5.494
 4497SOL    HW125522   2.881   7.638   5.442
 4497SOL    HW225523   2.907   7.477   5.437
 4498SOL     OW25524   3.590   8.383   5.578
 4498SOL    HW125525   3.544   8.376   5.489
 4498SOL    HW225526   3.528   8.427   5.644
 4499SOL     OW25527   2.212   8.346   5.528
 4499SOL    HW125528   2.288   8.390   5.576
 4499SOL    HW225529   2.247   8.299   5.446
 4500SOL     OW25530   3.000   7.828   5.402
 4500SOL    HW125531   2.955   7.891   5.466
 4500SOL    HW225532   3.093   7.859   5.385
 4501SOL     OW25533   3.022   7.655   5.201
 4501SOL    HW125534   3.022   7.719   5.278
 4501SOL    HW225535   3.050   7.703   5.118
 4502SOL     OW25536   2.677   8.020   4.049
 4502SOL    HW125537   2.684   7.931   4.003
 4502SOL    HW225538   2.583   8.054   4.041
 4503SOL     OW25539   2.533   7.912   4.993
 4503SOL    HW125540   2.499   7.823   4.963
 4503SOL    HW225541   2.559   7.966   4.913
 4504SOL     OW25542   3.588   7.583   4.247
 4504SOL    HW125543   3.661   7.566   4.180
 4504SOL    HW225544   3.557   7.496   4.285
 4505SOL     OW25545   2.125   7.774   4.444
 4505SOL    HW125546   2.046   7.825   4.410
 4505SOL    HW225547   2.116   7.759   4.542
 4506SOL     OW25548   2.778   8.358   4.015
 4506SOL    HW125549   2.841   8.396   3.947
 4506SOL    HW225550   2.818   8.275   4.054
 4507SOL     OW25551   3.571   7.833   5.105
 4507SOL    HW125552   3.644   7.902   5.109
 4507SOL    HW225553   3.599   7.758   5.046
 4508SOL     OW25554   1.967   8.461   5.450
 4508SOL    HW125555   1.890   8.428   5.504
 4508SOL    HW225556   2.052   8.431   5.492
 4509SOL     OW25557   2.578   8.013   5.432
 4509SOL    HW125558   2.597   8.078   5.506
 4509SOL    HW225559   2.638   7.933   5.441
 4510SOL     OW25560   3.639   7.790   5.366
 4510SOL    HW125561   3.622   7.821   5.272
 4510SOL    HW225562   3.555   7.753   5.404
 4511SOL     OW25563   2.945   8.432   3.811
 4511SOL    HW125564   2.922   8.485   3.729
 4511SOL    HW225565   3.026   8.376   3.792
 4512SOL     OW25566   3.686   7.640   4.951
 4512SOL    HW125567   3.682   7.550   4.995
 4512SOL    HW225568   3.689   7.629   4.852
 4513SOL     OW25569   2.290   7.872   4.244
 4513SOL    HW125570   2.320   7.800   4.182
 4513SOL    HW225571   2.251   7.832   4.327
 4514SOL     OW25572   3.214   7.500   3.892
 4514SOL    HW125573   3.249   7.459   3.808
 4514SOL    HW225574   3.124   7.462   3.912
 4515SOL     OW25575   3.162   7.901   4.415
 4515SOL    HW125576   3.103   7.981   4.419
 4515SOL    HW225577   3.177   7.866   4.508
 4516SOL     OW25578   2.087   7.723   6.582
 4516SOL    HW125579   2.122   7.706   6.674
 4516SOL    HW225580   1.999   7.678   6.570
 4517SOL     OW25581   1.881   7.816   6.233
 4517SOL    HW125582   1.799   7.859   6.272
 4517SOL    HW225583   1.853   7.743   6.170
 4518SOL     OW25584   2.997   8.151   6.303
 4518SOL    HW125585   3.054   8.229   6.278
 4518SOL    HW225586   2.937   8.177   6.379
 4519SOL     OW25587   3.617   8.055   5.817
 4519SOL    HW125588   3.605   8.042   5.718
 4519SOL    HW225589   3.587   7.974   5.866
 4520SOL     OW25590   2.630   8.592   6.609
 4520SOL    HW125591   2.552   8.609   6.669
 4520SOL    HW225592   2.664   8.679   6.573
 4521SOL     OW25593   2.547   8.460   6.251
 4521SOL    HW125594   2.616   8.444   6.321
 4521SOL    HW225595   2.474   8.517   6.289
 4522SOL     OW25596   2.300   7.840   7.085
 4522SOL    HW125597   2.382   7.784   7.094
 4522SOL    HW225598   2.219   7.782   7.089
 4523SOL     OW25599   3.465   7.895   6.323
 4523SOL    HW125600   3.391   7.941   6.273
 4523SOL    HW225601   3.516   7.963   6.376
 4524SOL     OW25602   2.102   8.539   6.472
 4524SOL    HW125603   2.116   8.455   6.524
 4524SOL    HW225604   2.047   8.603   6.527
 4525SOL     OW25605   3.456   7.562   7.066
 4525SOL    HW125606   3.438   7.629   6.994
 4525SOL    HW225607   3.453   7.608   7.155
 4526SOL     OW25608   1.984   8.091   6.149
 4526SOL    HW125609   1.939   8.003   6.166
 4526SOL    HW225610   1.983   8.145   6.233
 4527SOL     OW25611   2.671   7.452   6.088
 4527SOL    HW125612   2.711   7.543   6.079
 4527SOL    HW225613   2.571   7.460   6.094
 4528SOL     OW25614   2.059   8.424   6.850
 4528SOL    HW125615   2.148   8.379   6.836
 4528SOL    HW225616   1.986   8.359   6.831
 4529SOL     OW25617   3.387   8.447   5.776
 4529SOL    HW125618   3.324   8.371   5.789
 4529SOL    HW225619   3.435   8.465   5.862
 4530SOL     OW25620   2.460   8.177   5.856
 4530SOL    HW125621   2.484   8.246   5.788
 4530SOL    HW225622   2.382   8.210   5.910
 4531SOL     OW25623   3.143   7.793   6.530
 4531SOL    HW125624   3.057   7.743   6.517
 4531SOL    HW225625   3.205   7.739   6.586
 4532SOL     OW25626   2.669   8.053   7.051
 4532SOL    HW125627   2.622   8.050   7.140
 4532SOL    HW225628   2.618   7.998   6.985
 4533SOL     OW25629   2.853   7.858   6.828
 4533SOL    HW125630   2.776   7.892   6.882
 4533SOL    HW225631   2.819   7.807   6.749
 4534SOL     OW25632   2.903   8.149   6.015
 4534SOL    HW125633   2.929   8.145   6.111
 4534SOL    HW225634   2.818   8.098   6.001
 4535SOL     OW25635   1.938   8.259   6.375
 4535SOL    HW125636   2.037   8.247   6.384
 4535SOL    HW225637   1.914   8.354   6.396
 4536SOL     OW25638   2.727   7.796   5.781
 4536SOL    HW125639   2.786   7.859   5.732
 4536SOL    HW225640   2.746   7.702   5.752
 4537SOL     OW25641   2.412   7.644   6.471
 4537SOL    HW125642   2.407   7.639   6.571
 4537SOL    HW225643   2.414   7.740   6.442
 4538SOL     OW25644   3.320   8.183   6.314
 4538SOL    HW125645   3.315   8.118   6.389
 4538SOL    HW225646   3.400   8.242   6.327
 4539SOL     OW25647   2.064   7.733   7.084
 4539SOL    HW125648   1.984   7.793   7.071
 4539SOL    HW225649   2.054   7.684   7.170
 4540SOL     OW25650   3.262   7.555   6.012
 4540SOL    HW125651   3.238   7.518   5.922
 4540SOL    HW225652   3.361   7.571   6.016
 4541SOL     OW25653   2.244   8.148   6.066
 4541SOL    HW125654   2.289   8.058   6.063
 4541SOL    HW225655   2.150   8.137   6.099
 4542SOL     OW25656   2.476   7.570   5.703
 4542SOL    HW125657   2.574   7.548   5.710
 4542SOL    HW225658   2.445   7.553   5.610
 4543SOL     OW25659   2.784   7.951   6.485
 4543SOL    HW125660   2.759   7.942   6.389
 4543SOL    HW225661   2.832   7.869   6.516
 4544SOL     OW25662   2.401   7.512   6.098
 4544SOL    HW125663   2.320   7.513   6.156
 4544SOL    HW225664   2.404   7.595   6.043
 4545SOL     OW25665   2.159   7.483   5.757
 4545SOL    HW125666   2.208   7.567   5.736
 4545SOL    HW225667   2.221   7.418   5.802
 4546SOL     OW25668   2.797   7.684   6.066
 4546SOL    HW125669   2.749   7.725   5.988
 4546SOL    HW225670   2.896   7.682   6.047
 4547SOL     OW25671   2.894   7.997   5.602
 4547SOL    HW125672   2.853   8.079   5.563
 4547SOL    HW225673   2.958   8.023   5.675
 4548SOL     OW25674   1.940   8.004   6.972
 4548SOL    HW125675   2.032   8.003   6.931
 4548SOL    HW225676   1.934   8.078   7.039
 4549SOL     OW25677   2.423   7.670   6.733
 4549SOL    HW125678   2.461   7.586   6.770
 4549SOL    HW225679   2.335   7.689   6.777
 4550SOL     OW25680   2.728   7.902   6.228
 4550SOL    HW125681   2.696   7.974   6.166
 4550SOL    HW225682   2.752   7.821   6.175
 4551SOL     OW25683   2.879   7.487   6.339
 4551SOL    HW125684   2.807   7.492   6.270
 4551SOL    HW225685   2.855   7.418   6.408
 4552SOL     OW25686   3.328   8.038   6.578
 4552SOL    HW125687   3.298   7.943   6.585
 4552SOL    HW225688   3.401   8.054   6.644
 4553SOL     OW25689   3.719   8.281   5.963
 4553SOL    HW125690   3.761   8.217   6.027
 4553SOL    HW225691   3.681   8.230   5.885
 4554SOL     OW25692   3.252   8.023   5.664
 4554SOL    HW125693   3.198   8.002   5.745
 4554SOL    HW225694   3.343   7.982   5.673
 4555SOL     OW25695   2.389   7.704   5.914
 4555SOL    HW125696   2.416   7.645   5.839
 4555SOL    HW225697   2.389   7.799   5.883
 4556SOL     OW25698   3.500   8.547   6.665
 4556SOL    HW125699   3.505   8.628   6.724
 4556SOL    HW225700   3.414   8.549   6.614
 4557SOL     OW25701   2.777   7.537   6.988
 4557SOL    HW125702   2.802   7.517   6.893
 4557SOL    HW225703   2.849   7.593   7.030
 4558SOL     OW25704   2.272   8.261   6.837
 4558SOL    HW125705   2.358   8.273   6.887
 4558SOL    HW225706   2.230   8.174   6.864
 4559SOL     OW25707   3.136   7.834   6.848
 4559SOL    HW125708   3.157   7.908   6.912
 4559SOL    HW225709   3.047   7.851   6.805
 4560SOL     OW25710   2.428   7.985   6.451
 4560SOL    HW125711   2.440   8.051   6.377
 4560SOL    HW225712   2.474   8.019   6.534
 4561SOL     OW25713   3.444   8.087   6.058
 4561SOL    HW125714   3.413   8.148   6.131
 4561SOL    HW225715   3.494   8.139   5.989
 4562SOL     OW25716   2.264   8.199   7.184
 4562SOL    HW125717   2.332   8.254   7.137
 4562SOL    HW225718   2.304   8.111   7.211
 4563SOL     OW25719   3.449   8.227   7.256
 4563SOL    HW125720   3.357   8.265   7.251
 4563SOL    HW225721   3.509   8.274   7.191
 4564SOL     OW25722   2.435   8.318   6.615
 4564SOL    HW125723   2.479   8.407   6.606
 4564SOL    HW225724   2.372   8.318   6.692
 4565SOL     OW25725   3.222   8.310   6.631
 4565SOL    HW125726   3.147   8.310   6.565
 4565SOL    HW225727   3.259   8.218   6.640
 4566SOL     OW25728   3.071   7.973   5.861
 4566SOL    HW125729   3.084   7.889   5.915
 4566SOL    HW225730   3.042   8.047   5.921
 4567SOL     OW25731   2.169   7.661   6.817
 4567SOL    HW125732   2.146   7.698   6.907
 4567SOL    HW225733   2.139   7.566   6.811
 4568SOL     OW25734   2.594   8.082   6.650
 4568SOL    HW125735   2.653   8.056   6.574
 4568SOL    HW225736   2.566   8.178   6.639
 4569SOL     OW25737   2.169   7.511   6.204
 4569SOL    HW125738   2.158   7.605   6.237
 4569SOL    HW225739   2.164   7.448   6.281
 4570SOL     OW25740   3.484   7.815   5.960
 4570SOL    HW125741   3.486   7.739   6.024
 4570SOL    HW225742   3.436   7.892   6.000
 4571SOL     OW25743   2.885   8.214   6.552
 4571SOL    HW125744   2.900   8.235   6.648
 4571SOL    HW225745   2.855   8.119   6.543
 4572SOL     OW25746   3.402   7.722   5.711
 4572SOL    HW125747   3.341   7.647   5.734
 4572SOL    HW225748   3.424   7.774   5.794
 4573SOL     OW25749   3.165   8.286   5.628
 4573SOL    HW125750   3.199   8.193   5.643
 4573SOL    HW225751   3.183   8.313   5.533
 4574SOL     OW25752   2.181   8.258   6.535
 4574SOL    HW125753   2.274   8.294   6.540
 4574SOL    HW225754   2.175   8.173   6.587
 4575SOL     OW25755   2.201   7.957   6.592
 4575SOL    HW125756   2.149   7.874   6.575
 4575SOL    HW225757   2.278   7.962   6.528
 4576SOL     OW25758   3.000   7.828   7.264
 4576SOL    HW125759   2.955   7.891   7.328
 4576SOL    HW225760   3.093   7.859   7.247
 4577SOL     OW25761   3.022   7.655   7.063
 4577SOL    HW125762   3.022   7.719   7.140
 4577SOL    HW225763   3.050   7.703   6.980
 4578SOL     OW25764   2.864   8.244   6.824
 4578SOL    HW125765   2.905   8.212   6.910
 4578SOL    HW225766   2.768   8.217   6.821
 4579SOL     OW25767   1.902   7.992   6.700
 4579SOL    HW125768   1.987   7.959   6.659
 4579SOL    HW225769   1.915   8.007   6.798
 4580SOL     OW25770   2.677   8.020   5.911
 4580SOL    HW125771   2.684   7.931   5.865
 4580SOL    HW225772   2.583   8.054   5.903
 4581SOL     OW25773   3.519   8.052   6.792
 4581SOL    HW125774   3.481   7.983   6.854
 4581SOL    HW225775   3.601   8.016   6.748
 4582SOL     OW25776   2.533   7.912   6.855
 4582SOL    HW125777   2.499   7.823   6.825
 4582SOL    HW225778   2.559   7.966   6.775
 4583SOL     OW25779   2.335   7.948   5.777
 4583SOL    HW125780   2.396   8.028   5.781
 4583SOL    HW225781   2.240   7.979   5.784
 4584SOL     OW25782   2.021   8.585   7.052
 4584SOL    HW125783   2.043   8.524   7.128
 4584SOL    HW225784   2.031   8.536   6.966
 4585SOL     OW25785   3.209   8.507   6.820
 4585SOL    HW125786   3.233   8.444   6.746
 4585SOL    HW225787   3.119   8.547   6.802
 4586SOL     OW25788   3.164   8.303   5.895
 4586SOL    HW125789   3.078   8.272   5.937
 4586SOL    HW225790   3.160   8.289   5.796
 4587SOL     OW25791   3.588   7.583   6.109
 4587SOL    HW125792   3.661   7.566   6.042
 4587SOL    HW225793   3.557   7.496   6.147
 4588SOL     OW25794   3.142   8.375   6.258
 4588SOL    HW125795   3.202   8.294   6.260
 4588SOL    HW225796   3.182   8.444   6.198
 4589SOL     OW25797   3.703   7.623   6.549
 4589SOL    HW125798   3.742   7.538   6.513
 4589SOL    HW225799   3.605   7.625   6.530
 4590SOL     OW25800   2.125   7.774   6.306
 4590SOL    HW125801   2.046   7.825   6.272
 4590SOL    HW225802   2.116   7.759   6.404
 4591SOL     OW25803   2.778   8.358   5.877
 4591SOL    HW125804   2.841   8.396   5.809
 4591SOL    HW225805   2.818   8.275   5.916
 4592SOL     OW25806   2.876   7.684   6.557
 4592SOL    HW125807   2.868   7.648   6.464
 4592SOL    HW225808   2.874   7.608   6.622
 4593SOL     OW25809   3.571   7.833   6.967
 4593SOL    HW125810   3.644   7.902   6.971
 4593SOL    HW225811   3.599   7.758   6.908
 4594SOL     OW25812   1.937   7.793   5.619
 4594SOL    HW125813   1.845   7.765   5.590
 4594SOL    HW225814   1.968   7.870   5.563
 4595SOL     OW25815   3.302   8.304   6.984
 4595SOL    HW125816   3.245   8.356   6.921
 4595SOL    HW225817   3.398   8.316   6.960
 4596SOL     OW25818   1.934   7.614   5.904
 4596SOL    HW125819   1.917   7.697   5.850
 4596SOL    HW225820   2.024   7.577   5.882
 4597SOL     OW25821   2.475   8.290   7.017
 4597SOL    HW125822   2.531   8.371   7.000
 4597SOL    HW225823   2.534   8.210   7.020
 4598SOL     OW25824   3.536   8.331   6.840
 4598SOL    HW125825   3.509   8.242   6.803
 4598SOL    HW225826   3.537   8.399   6.767
 4599SOL     OW25827   3.087   7.773   6.035
 4599SOL    HW125828   3.152   7.699   6.024
 4599SOL    HW225829   3.107   7.823   6.119
 4600SOL     OW25830   2.456   8.193   6.238
 4600SOL    HW125831   2.506   8.278   6.219
 4600SOL    HW225832   2.368   8.195   6.190
 4601SOL     OW25833   3.639   7.790   7.228
 4601SOL    HW125834   3.622   7.821   7.134
 4601SOL    HW225835   3.555   7.753   7.266
 4602SOL     OW25836   3.592   8.382   7.103
 4602SOL    HW125837   3.630   8.473   7.118
 4602SOL    HW225838   3.584   8.365   7.004
 4603SOL     OW25839   2.945   8.432   5.673
 4603SOL    HW125840   2.922   8.485   5.591
 4603SOL    HW225841   3.026   8.376   5.654
 4604SOL     OW25842   3.686   7.640   6.813
 4604SOL    HW125843   3.682   7.550   6.857
 4604SOL    HW225844   3.689   7.629   6.714
 4605SOL     OW25845   2.290   7.872   6.106
 4605SOL    HW125846   2.320   7.800   6.044
 4605SOL    HW225847   2.251   7.832   6.189
 4606SOL     OW25848   2.179   7.995   6.866
 4606SOL    HW125849   2.217   7.936   6.938
 4606SOL    HW225850   2.219   7.969   6.778
 4607SOL     OW25851   3.286   7.662   6.698
 4607SOL    HW125852   3.338   7.597   6.753
 4607SOL    HW225853   3.237   7.725   6.759
 4608SOL     OW25854   2.863   7.482   6.740
 4608SOL    HW125855   2.800   7.410   6.709
 4608SOL    HW225856   2.956   7.446   6.740
 4609SOL     OW25857   3.214   7.500   5.754
 4609SOL    HW125858   3.249   7.459   5.670
 4609SOL    HW225859   3.124   7.462   5.774
 4610SOL     OW25860   3.162   7.901   6.277
 4610SOL    HW125861   3.103   7.981   6.281
 4610SOL    HW225862   3.177   7.866   6.370
 4611SOL     OW25863   3.455   7.669   6.468
 4611SOL    HW125864   3.371   7.668   6.522
 4611SOL    HW225865   3.457   7.752   6.412
 4612SOL     OW25866   3.954   0.628   0.113
 4612SOL    HW125867   3.861   0.626   0.150
 4612SOL    HW225868   3.955   0.589   0.021
 4613SOL     OW25869   3.949   0.275   0.996
 4613SOL    HW125870   3.984   0.258   1.088
 4613SOL    HW225871   3.861   0.230   0.984
 4614SOL     OW25872   3.743   0.368   0.647
 4614SOL    HW125873   3.661   0.411   0.686
 4614SOL    HW225874   3.715   0.295   0.584
 4615SOL     OW25875   4.293   1.275   1.165
 4615SOL    HW125876   4.200   1.268   1.128
 4615SOL    HW225877   4.304   1.364   1.209
 4616SOL     OW25878   5.279   1.511   0.703
 4616SOL    HW125879   5.222   1.495   0.784
 4616SOL    HW225880   5.220   1.521   0.623
 4617SOL     OW25881   4.859   0.703   0.717
 4617SOL    HW125882   4.916   0.781   0.692
 4617SOL    HW225883   4.799   0.729   0.793
 4618SOL     OW25884   5.479   0.607   0.231
 4618SOL    HW125885   5.467   0.594   0.132
 4618SOL    HW225886   5.449   0.526   0.280
 4619SOL     OW25887   4.492   1.144   1.023
 4619SOL    HW125888   4.414   1.161   1.083
 4619SOL    HW225889   4.526   1.231   0.987
 4620SOL     OW25890   4.574   0.798   1.823
 4620SOL    HW125891   4.570   0.874   1.888
 4620SOL    HW225892   4.596   0.834   1.732
 4621SOL     OW25893   4.409   1.012   0.665
 4621SOL    HW125894   4.478   0.996   0.735
 4621SOL    HW225895   4.336   1.069   0.703
 4622SOL     OW25896   4.410   1.161   1.803
 4622SOL    HW125897   4.470   1.240   1.817
 4622SOL    HW225898   4.324   1.192   1.762
 4623SOL     OW25899   4.059   1.435   1.061
 4623SOL    HW125900   3.981   1.404   1.008
 4623SOL    HW225901   4.117   1.493   1.004
 4624SOL     OW25902   5.184   1.505   1.339
 4624SOL    HW125903   5.208   1.599   1.365
 4624SOL    HW225904   5.168   1.451   1.421
 4625SOL     OW25905   4.162   0.392   1.499
 4625SOL    HW125906   4.244   0.336   1.508
 4625SOL    HW225907   4.081   0.334   1.503
 4626SOL     OW25908   5.327   0.447   0.737
 4626SOL    HW125909   5.253   0.493   0.687
 4626SOL    HW225910   5.378   0.515   0.790
 4627SOL     OW25911   3.955   1.713   0.483
 4627SOL    HW125912   3.989   1.790   0.537
 4627SOL    HW225913   3.999   1.713   0.393
 4628SOL     OW25914   4.851   1.341   1.690
 4628SOL    HW125915   4.898   1.341   1.778
 4628SOL    HW225916   4.803   1.254   1.679
 4629SOL     OW25917   3.954   1.434   0.538
 4629SOL    HW125918   3.928   1.530   0.538
 4629SOL    HW225919   3.883   1.380   0.583
 4630SOL     OW25920   3.964   1.091   0.886
 4630SOL    HW125921   3.978   1.007   0.938
 4630SOL    HW225922   3.909   1.155   0.941
 4631SOL     OW25923   4.344   1.786   1.439
 4631SOL    HW125924   4.252   1.769   1.474
 4631SOL    HW225925   4.372   1.878   1.465
 4632SOL     OW25926   4.330   0.964   0.123
 4632SOL    HW125927   4.337   1.048   0.069
 4632SOL    HW225928   4.376   0.977   0.211
 4633SOL     OW25929   5.318   0.114   1.480
 4633SOL    HW125930   5.300   0.181   1.408
 4633SOL    HW225931   5.315   0.160   1.569
 4634SOL     OW25932   3.846   0.643   0.563
 4634SOL    HW125933   3.801   0.555   0.580
 4634SOL    HW225934   3.845   0.697   0.647
 4635SOL     OW25935   5.566   1.767   0.359
 4635SOL    HW125936   5.620   1.738   0.439
 4635SOL    HW225937   5.596   1.857   0.330
 4636SOL     OW25938   3.751   1.596   0.117
 4636SOL    HW125939   3.732   1.500   0.138
 4636SOL    HW225940   3.718   1.654   0.192
 4637SOL     OW25941   5.413   0.922   0.612
 4637SOL    HW125942   5.508   0.893   0.620
 4637SOL    HW225943   5.405   0.987   0.537
 4638SOL     OW25944   5.365   1.108   0.432
 4638SOL    HW125945   5.451   1.110   0.380
 4638SOL    HW225946   5.379   1.155   0.520
 4639SOL     OW25947   3.837   0.737   1.597
 4639SOL    HW125948   3.925   0.724   1.642
 4639SOL    HW225949   3.824   0.834   1.575
 4640SOL     OW25950   4.337   1.365   0.726
 4640SOL    HW125951   4.288   1.278   0.735
 4640SOL    HW225952   4.314   1.408   0.639
 4641SOL     OW25953   5.017   1.228   1.423
 4641SOL    HW125954   5.054   1.155   1.365
 4641SOL    HW225955   5.069   1.233   1.508
 4642SOL     OW25956   4.533   0.004   0.502
 4642SOL    HW125957   4.573   0.095   0.493
 4642SOL    HW225958   4.433   0.012   0.508
 4643SOL     OW25959   3.921   0.976   1.264
 4643SOL    HW125960   4.010   0.931   1.250
 4643SOL    HW225961   3.848   0.911   1.245
 4644SOL     OW25962   5.249   0.999   0.190
 4644SOL    HW125963   5.186   0.923   0.203
 4644SOL    HW225964   5.297   1.017   0.276
 4645SOL     OW25965   4.041   0.251   1.801
 4645SOL    HW125966   4.112   0.322   1.807
 4645SOL    HW225967   3.953   0.290   1.829
 4646SOL     OW25968   5.190   1.417   0.953
 4646SOL    HW125969   5.131   1.423   1.033
 4646SOL    HW225970   5.175   1.329   0.907
 4647SOL     OW25971   5.391   1.714   0.572
 4647SOL    HW125972   5.350   1.691   0.484
 4647SOL    HW225973   5.373   1.640   0.637
 4648SOL     OW25974   4.322   0.729   0.270
 4648SOL    HW125975   4.346   0.798   0.202
 4648SOL    HW225976   4.244   0.762   0.324
 4649SOL     OW25977   5.005   0.345   0.944
 4649SOL    HW125978   4.919   0.295   0.931
 4649SOL    HW225979   5.067   0.291   1.000
 4650SOL     OW25980   5.300   1.662   0.307
 4650SOL    HW125981   5.389   1.708   0.310
 4650SOL    HW225982   5.279   1.638   0.212
 4651SOL     OW25983   4.531   0.605   1.465
 4651SOL    HW125984   4.484   0.602   1.554
 4651SOL    HW225985   4.480   0.550   1.399
 4652SOL     OW25986   5.118   0.469   1.674
 4652SOL    HW125987   5.098   0.512   1.762
 4652SOL    HW225988   5.196   0.407   1.683
 4653SOL     OW25989   4.697   0.890   1.572
 4653SOL    HW125990   4.743   0.806   1.543
 4653SOL    HW225991   4.641   0.924   1.497
 4654SOL     OW25992   4.715   0.410   1.242
 4654SOL    HW125993   4.638   0.444   1.296
 4654SOL    HW225994   4.681   0.359   1.163
 4655SOL     OW25995   4.765   0.701   0.429
 4655SOL    HW125996   4.791   0.697   0.525
 4655SOL    HW225997   4.680   0.650   0.415
 4656SOL     OW25998   3.800   0.811   0.789
 4656SOL    HW125999   3.899   0.799   0.798
 4656SOL    HW226000   3.776   0.906   0.810
 4657SOL     OW26001   3.854   1.821   1.571
 4657SOL    HW126002   3.844   1.806   1.670
 4657SOL    HW226003   3.768   1.857   1.535
 4658SOL     OW26004   4.589   0.348   0.195
 4658SOL    HW126005   4.648   0.411   0.146
 4658SOL    HW226006   4.608   0.254   0.166
 4659SOL     OW26007   5.443   0.585   1.831
 4659SOL    HW126008   5.417   0.674   1.795
 4659SOL    HW226009   5.441   0.517   1.758
 4660SOL     OW26010   5.086   1.144   0.545
 4660SOL    HW126011   5.169   1.115   0.497
 4660SOL    HW226012   5.037   1.211   0.489
 4661SOL     OW26013   4.274   0.196   0.885
 4661SOL    HW126014   4.269   0.191   0.985
 4661SOL    HW226015   4.276   0.292   0.856
 4662SOL     OW26016   4.732   1.456   0.477
 4662SOL    HW126017   4.686   1.528   0.425
 4662SOL    HW226018   4.728   1.476   0.575
 4663SOL     OW26019   4.075   1.801   0.853
 4663SOL    HW126020   4.125   1.715   0.859
 4663SOL    HW226021   4.140   1.878   0.850
 4664SOL     OW26022   5.519   1.066   0.873
 4664SOL    HW126023   5.457   1.051   0.797
 4664SOL    HW226024   5.467   1.077   0.958
 4665SOL     OW26025   4.951   1.550   1.506
 4665SOL    HW126026   4.957   1.473   1.570
 4665SOL    HW226027   4.899   1.524   1.426
 4666SOL     OW26028   4.045   0.943   0.242
 4666SOL    HW126029   4.127   0.982   0.200
 4666SOL    HW226030   4.018   0.861   0.193
 4667SOL     OW26031   5.182   0.735   0.728
 4667SOL    HW126032   5.177   0.670   0.803
 4667SOL    HW226033   5.262   0.794   0.741
 4668SOL     OW26034   4.185   1.266   1.727
 4668SOL    HW126035   4.135   1.267   1.641
 4668SOL    HW226036   4.122   1.248   1.803
 4669SOL     OW26037   4.835   1.776   0.237
 4669SOL    HW126038   4.775   1.714   0.287
 4669SOL    HW226039   4.866   1.732   0.152
 4670SOL     OW26040   3.926   0.285   1.498
 4670SOL    HW126041   3.846   0.345   1.485
 4670SOL    HW226042   3.916   0.236   1.584
 4671SOL     OW26043   5.356   1.377   0.081
 4671SOL    HW126044   5.324   1.471   0.071
 4671SOL    HW226045   5.280   1.314   0.069
 4672SOL     OW26046   4.188   1.743   0.323
 4672SOL    HW126047   4.221   1.782   0.409
 4672SOL    HW226048   4.264   1.736   0.258
 4673SOL     OW26049   5.124   0.107   0.426
 4673SOL    HW126050   5.100   0.070   0.336
 4673SOL    HW226051   5.223   0.123   0.430
 4674SOL     OW26052   3.973   1.785   1.241
 4674SOL    HW126053   4.030   1.720   1.291
 4674SOL    HW226054   3.957   1.752   1.148
 4675SOL     OW26055   4.664   1.698   0.904
 4675SOL    HW126056   4.744   1.641   0.925
 4675SOL    HW226057   4.615   1.658   0.827
 4676SOL     OW26058   4.106   0.700   0.480
 4676SOL    HW126059   4.151   0.610   0.477
 4676SOL    HW226060   4.012   0.689   0.513
 4677SOL     OW26061   4.338   0.122   0.117
 4677SOL    HW126062   4.436   0.100   0.124
 4677SOL    HW226063   4.307   0.105   0.024
 4678SOL     OW26064   4.505   0.264   1.749
 4678SOL    HW126065   4.572   0.203   1.792
 4678SOL    HW226066   4.432   0.283   1.814
 4679SOL     OW26067   4.612   1.514   1.195
 4679SOL    HW126068   4.589   1.489   1.101
 4679SOL    HW226069   4.673   1.445   1.234
 4680SOL     OW26070   5.075   0.590   1.433
 4680SOL    HW126071   5.103   0.547   1.518
 4680SOL    HW226072   5.100   0.686   1.434
 4681SOL     OW26073   4.527   1.402   0.924
 4681SOL    HW126074   4.617   1.416   0.882
 4681SOL    HW226075   4.456   1.404   0.853
 4682SOL     OW26076   4.646   0.503   0.899
 4682SOL    HW126077   4.621   0.494   0.803
 4682SOL    HW226078   4.694   0.421   0.930
 4683SOL     OW26079   4.263   0.064   0.512
 4683SOL    HW126080   4.182   0.065   0.570
 4683SOL    HW226081   4.266   0.147   0.457
 4684SOL     OW26082   5.158   1.188   0.041
 4684SOL    HW126083   5.190   1.112   0.098
 4684SOL    HW226084   5.066   1.215   0.071
 4685SOL     OW26085   4.021   0.035   0.171
 4685SOL    HW126086   4.070   0.119   0.150
 4685SOL    HW226087   4.083  -0.030   0.216
 4686SOL     OW26088   4.659   0.236   0.480
 4686SOL    HW126089   4.611   0.277   0.402
 4686SOL    HW226090   4.758   0.234   0.461
 4687SOL     OW26091   4.800   0.683   1.464
 4687SOL    HW126092   4.720   0.622   1.467
 4687SOL    HW226093   4.881   0.630   1.440
 4688SOL     OW26094   4.951   1.570   0.793
 4688SOL    HW126095   4.972   1.644   0.728
 4688SOL    HW226096   5.019   1.570   0.866
 4689SOL     OW26097   4.183   1.152   0.741
 4689SOL    HW126098   4.112   1.125   0.806
 4689SOL    HW226099   4.157   1.124   0.648
 4690SOL     OW26100   4.995   1.797   0.591
 4690SOL    HW126101   5.039   1.861   0.527
 4690SOL    HW226102   4.945   1.849   0.661
 4691SOL     OW26103   4.756   0.549   0.016
 4691SOL    HW126104   4.715   0.631  -0.023
 4691SOL    HW226105   4.820   0.575   0.089
 4692SOL     OW26106   3.802   0.556   1.386
 4692SOL    HW126107   3.894   0.555   1.345
 4692SOL    HW226108   3.796   0.630   1.453
 4693SOL     OW26109   4.285   0.222   1.147
 4693SOL    HW126110   4.323   0.138   1.184
 4693SOL    HW226111   4.197   0.241   1.191
 4694SOL     OW26112   4.590   0.454   0.642
 4694SOL    HW126113   4.558   0.526   0.580
 4694SOL    HW226114   4.614   0.373   0.589
 4695SOL     OW26115   4.741   0.039   0.753
 4695SOL    HW126116   4.669   0.044   0.684
 4695SOL    HW226117   4.717  -0.030   0.822
 4696SOL     OW26118   5.153   1.173   0.867
 4696SOL    HW126119   5.098   1.089   0.860
 4696SOL    HW226120   5.179   1.202   0.775
 4697SOL     OW26121   5.190   0.590   0.992
 4697SOL    HW126122   5.160   0.495   0.999
 4697SOL    HW226123   5.263   0.606   1.058
 4698SOL     OW26124   5.581   0.833   0.377
 4698SOL    HW126125   5.623   0.769   0.441
 4698SOL    HW226126   5.543   0.782   0.299
 4699SOL     OW26127   4.212   1.385   0.174
 4699SOL    HW126128   4.125   1.370   0.221
 4699SOL    HW226129   4.195   1.411   0.079
 4700SOL     OW26130   5.388   1.280   0.657
 4700SOL    HW126131   5.487   1.288   0.671
 4700SOL    HW226132   5.343   1.364   0.688
 4701SOL     OW26133   5.114   0.575   0.078
 4701SOL    HW126134   5.060   0.554   0.159
 4701SOL    HW226135   5.205   0.534   0.087
 4702SOL     OW26136   4.251   0.256   0.328
 4702SOL    HW126137   4.278   0.197   0.253
 4702SOL    HW226138   4.251   0.351   0.297
 4703SOL     OW26139   5.478   1.223   1.588
 4703SOL    HW126140   5.569   1.184   1.575
 4703SOL    HW226141   5.486   1.319   1.612
 4704SOL     OW26142   4.788   1.347   1.340
 4704SOL    HW126143   4.708   1.324   1.395
 4704SOL    HW226144   4.871   1.321   1.389
 4705SOL     OW26145   4.835   1.195   1.100
 4705SOL    HW126146   4.795   1.239   1.181
 4705SOL    HW226147   4.794   1.232   1.017
 4706SOL     OW26148   5.362   1.099   1.079
 4706SOL    HW126149   5.367   1.180   1.138
 4706SOL    HW226150   5.276   1.101   1.028
 4707SOL     OW26151   4.639   0.089   1.402
 4707SOL    HW126152   4.664   0.069   1.307
 4707SOL    HW226153   4.711   0.145   1.444
 4708SOL     OW26154   4.429   1.050   0.368
 4708SOL    HW126155   4.415   1.057   0.467
 4708SOL    HW226156   4.513   0.999   0.350
 4709SOL     OW26157   4.134   0.813   1.251
 4709SOL    HW126158   4.220   0.825   1.301
 4709SOL    HW226159   4.092   0.726   1.278
 4710SOL     OW26160   4.998   0.386   1.262
 4710SOL    HW126161   5.019   0.460   1.326
 4710SOL    HW226162   4.909   0.403   1.219
 4711SOL     OW26163   3.788   1.564   1.331
 4711SOL    HW126164   3.742   1.646   1.297
 4711SOL    HW226165   3.886   1.583   1.340
 4712SOL     OW26166   4.091   1.100   0.501
 4712SOL    HW126167   4.084   1.183   0.445
 4712SOL    HW226168   4.095   1.020   0.441
 4713SOL     OW26169   4.290   0.537   0.865
 4713SOL    HW126170   4.302   0.603   0.791
 4713SOL    HW226171   4.336   0.571   0.948
 4714SOL     OW26172   4.976   1.348   0.388
 4714SOL    HW126173   5.026   1.425   0.428
 4714SOL    HW226174   4.881   1.350   0.420
 4715SOL     OW26175   4.996   1.445   1.142
 4715SOL    HW126176   5.043   1.458   1.229
 4715SOL    HW226177   4.930   1.371   1.151
 4716SOL     OW26178   5.306   0.639   0.472
 4716SOL    HW126179   5.275   0.700   0.545
 4716SOL    HW226180   5.356   0.691   0.403
 4717SOL     OW26181   4.078   1.510   1.329
 4717SOL    HW126182   4.057   1.466   1.242
 4717SOL    HW226183   4.175   1.536   1.332
 4718SOL     OW26184   4.126   0.751   1.598
 4718SOL    HW126185   4.194   0.806   1.551
 4718SOL    HW226186   4.166   0.663   1.625
 4719SOL     OW26187   5.311   0.779   1.670
 4719SOL    HW126188   5.219   0.817   1.665
 4719SOL    HW226189   5.371   0.826   1.605
 4720SOL     OW26190   4.228   0.050   1.740
 4720SOL    HW126191   4.186  -0.007   1.670
 4720SOL    HW226192   4.162   0.119   1.772
 4721SOL     OW26193   4.297   0.870   1.029
 4721SOL    HW126194   4.341   0.959   1.020
 4721SOL    HW226195   4.234   0.870   1.106
 4722SOL     OW26196   5.084   0.862   1.045
 4722SOL    HW126197   5.009   0.862   0.979
 4722SOL    HW226198   5.121   0.770   1.054
 4723SOL     OW26199   4.933   0.525   0.275
 4723SOL    HW126200   4.946   0.441   0.329
 4723SOL    HW226201   4.904   0.599   0.335
 4724SOL     OW26202   4.031   0.213   1.231
 4724SOL    HW126203   4.008   0.250   1.321
 4724SOL    HW226204   4.001   0.118   1.225
 4725SOL     OW26205   3.761   1.310   1.282
 4725SOL    HW126206   3.814   1.261   1.350
 4725SOL    HW226207   3.783   1.408   1.287
 4726SOL     OW26208   4.456   0.634   1.064
 4726SOL    HW126209   4.515   0.608   0.988
 4726SOL    HW226210   4.428   0.730   1.053
 4727SOL     OW26211   5.452   0.935   1.854
 4727SOL    HW126212   5.406   0.928   1.765
 4727SOL    HW226213   5.390   0.979   1.920
 4728SOL     OW26214   4.031   0.063   0.618
 4728SOL    HW126215   4.020   0.157   0.651
 4728SOL    HW226216   4.026   0.000   0.695
 4729SOL     OW26217   5.346   0.367   0.374
 4729SOL    HW126218   5.348   0.291   0.438
 4729SOL    HW226219   5.298   0.444   0.414
 4730SOL     OW26220   4.747   0.766   0.966
 4730SOL    HW126221   4.762   0.787   1.062
 4730SOL    HW226222   4.717   0.671   0.957
 4731SOL     OW26223   4.704   1.573   1.700
 4731SOL    HW126224   4.684   1.617   1.612
 4731SOL    HW226225   4.743   1.482   1.684
 4732SOL     OW26226   4.074   0.898   1.804
 4732SOL    HW126227   4.150   0.942   1.852
 4732SOL    HW226228   4.109   0.851   1.722
 4733SOL     OW26229   5.264   0.274   0.125
 4733SOL    HW126230   5.203   0.199   0.148
 4733SOL    HW226231   5.286   0.326   0.208
 4734SOL     OW26232   5.027   0.838   0.042
 4734SOL    HW126233   5.061   0.745   0.057
 4734SOL    HW226234   5.045   0.865  -0.053
 4735SOL     OW26235   4.792   1.333   0.849
 4735SOL    HW126236   4.799   1.249   0.794
 4735SOL    HW226237   4.854   1.402   0.813
 4736SOL     OW26238   4.043   0.810   0.949
 4736SOL    HW126239   4.136   0.846   0.954
 4736SOL    HW226240   4.037   0.725   1.001
 4737SOL     OW26241   4.063   0.509   1.006
 4737SOL    HW126242   4.011   0.426   0.989
 4737SOL    HW226243   4.140   0.514   0.942
 4738SOL     OW26244   3.732   1.326   0.200
 4738SOL    HW126245   3.639   1.347   0.169
 4738SOL    HW226246   3.742   1.227   0.213
 4739SOL     OW26247   3.812   1.801   0.927
 4739SOL    HW126248   3.770   1.715   0.900
 4739SOL    HW226249   3.906   1.804   0.893
 4740SOL     OW26250   4.228   1.568   0.910
 4740SOL    HW126251   4.294   1.642   0.919
 4740SOL    HW226252   4.272   1.489   0.868
 4741SOL     OW26253   4.726   0.796   1.238
 4741SOL    HW126254   4.767   0.764   1.324
 4741SOL    HW226255   4.630   0.769   1.235
 4742SOL     OW26256   3.764   0.544   1.114
 4742SOL    HW126257   3.849   0.511   1.073
 4742SOL    HW226258   3.777   0.559   1.212
 4743SOL     OW26259   3.913   0.520   1.722
 4743SOL    HW126260   3.972   0.480   1.652
 4743SOL    HW226261   3.855   0.591   1.681
 4744SOL     OW26262   4.539   0.572   0.325
 4744SOL    HW126263   4.546   0.483   0.279
 4744SOL    HW226264   4.445   0.606   0.317
 4745SOL     OW26265   5.381   0.604   1.206
 4745SOL    HW126266   5.343   0.535   1.268
 4745SOL    HW226267   5.463   0.568   1.162
 4746SOL     OW26268   3.976   1.564   1.744
 4746SOL    HW126269   3.946   1.621   1.820
 4746SOL    HW226270   3.969   1.467   1.770
 4747SOL     OW26271   4.395   0.464   1.269
 4747SOL    HW126272   4.361   0.375   1.239
 4747SOL    HW226273   4.421   0.518   1.189
 4748SOL     OW26274   4.197   0.500   0.191
 4748SOL    HW126275   4.258   0.580   0.195
 4748SOL    HW226276   4.102   0.531   0.198
 4749SOL     OW26277   3.883   1.137   1.466
 4749SOL    HW126278   3.905   1.076   1.542
 4749SOL    HW226279   3.893   1.088   1.380
 4750SOL     OW26280   5.071   1.059   1.234
 4750SOL    HW126281   5.095   0.996   1.160
 4750SOL    HW226282   4.981   1.099   1.216
 4751SOL     OW26283   5.026   0.855   0.309
 4751SOL    HW126284   4.940   0.824   0.351
 4751SOL    HW226285   5.022   0.841   0.210
 4752SOL     OW26286   5.483   1.747   1.154
 4752SOL    HW126287   5.544   1.777   1.081
 4752SOL    HW226288   5.445   1.658   1.132
 4753SOL     OW26289   4.976   1.731   1.128
 4753SOL    HW126290   5.060   1.736   1.074
 4753SOL    HW226291   4.953   1.635   1.146
 4754SOL     OW26292   3.807   1.258   1.022
 4754SOL    HW126293   3.802   1.257   1.122
 4754SOL    HW226294   3.724   1.217   0.984
 4755SOL     OW26295   4.412   1.662   1.716
 4755SOL    HW126296   4.356   1.743   1.725
 4755SOL    HW226297   4.464   1.666   1.630
 4756SOL     OW26298   4.627   0.086   0.133
 4756SOL    HW126299   4.678   0.087   0.047
 4756SOL    HW226300   4.683   0.044   0.204
 4757SOL     OW26301   5.450   0.135   0.523
 4757SOL    HW126302   5.523   0.118   0.456
 4757SOL    HW226303   5.419   0.048   0.561
 4758SOL     OW26304   5.112   1.573   0.477
 4758SOL    HW126305   5.179   1.585   0.403
 4758SOL    HW226306   5.072   1.662   0.500
 4759SOL     OW26307   5.004   0.927   0.672
 4759SOL    HW126308   5.064   0.846   0.674
 4759SOL    HW226309   5.044   0.996   0.612
 4760SOL     OW26310   4.554   1.273   1.422
 4760SOL    HW126311   4.549   1.306   1.517
 4760SOL    HW226312   4.468   1.292   1.376
 4761SOL     OW26313   4.396   1.616   0.154
 4761SOL    HW126314   4.405   1.626   0.055
 4761SOL    HW226315   4.356   1.527   0.175
 4762SOL     OW26316   5.374   1.720   1.394
 4762SOL    HW126317   5.427   1.730   1.310
 4762SOL    HW226318   5.347   1.810   1.428
 4763SOL     OW26319   5.565   0.175   0.963
 4763SOL    HW126320   5.604   0.090   0.927
 4763SOL    HW226321   5.467   0.177   0.944
 4764SOL     OW26322   3.987   0.326   0.720
 4764SOL    HW126323   3.908   0.377   0.686
 4764SOL    HW226324   3.978   0.311   0.818
 4765SOL     OW26325   4.918   1.612   0.031
 4765SOL    HW126326   4.924   1.519   0.068
 4765SOL    HW226327   4.859   1.612  -0.049
 4766SOL     OW26328   4.546   1.002   1.372
 4766SOL    HW126329   4.586   1.001   1.280
 4766SOL    HW226330   4.556   1.094   1.412
 4767SOL     OW26331   4.640   0.910   0.291
 4767SOL    HW126332   4.703   0.948   0.223
 4767SOL    HW226333   4.680   0.827   0.330
 4768SOL     OW26334   5.228   1.607   0.044
 4768SOL    HW126335   5.136   1.644   0.051
 4768SOL    HW226336   5.266   1.627  -0.046
 4769SOL     OW26337   4.096   1.288   1.490
 4769SOL    HW126338   4.083   1.381   1.456
 4769SOL    HW226339   4.012   1.236   1.477
 4770SOL     OW26340   5.338   1.292   1.289
 4770SOL    HW126341   5.398   1.295   1.369
 4770SOL    HW226342   5.263   1.356   1.302
 4771SOL     OW26343   4.763   1.098   0.696
 4771SOL    HW126344   4.693   1.051   0.750
 4771SOL    HW226345   4.822   1.030   0.653
 4772SOL     OW26346   4.738   0.236   0.971
 4772SOL    HW126347   4.730   0.200   0.878
 4772SOL    HW226348   4.736   0.160   1.036
 4773SOL     OW26349   4.314   1.487   0.491
 4773SOL    HW126350   4.356   1.429   0.421
 4773SOL    HW226351   4.270   1.566   0.447
 4774SOL     OW26352   5.433   0.385   1.381
 4774SOL    HW126353   5.506   0.454   1.385
 4774SOL    HW226354   5.461   0.310   1.322
 4775SOL     OW26355   3.979   1.348   0.290
 4775SOL    HW126356   3.883   1.349   0.263
 4775SOL    HW226357   3.991   1.401   0.374
 4776SOL     OW26358   4.396   0.203   1.489
 4776SOL    HW126359   4.486   0.187   1.449
 4776SOL    HW226360   4.404   0.208   1.588
 4777SOL     OW26361   5.164   0.856   1.398
 4777SOL    HW126362   5.107   0.908   1.335
 4777SOL    HW226363   5.260   0.868   1.374
 4778SOL     OW26364   3.796   0.166   0.318
 4778SOL    HW126365   3.779   0.249   0.264
 4778SOL    HW226366   3.886   0.129   0.296
 4779SOL     OW26367   4.907   1.335   0.119
 4779SOL    HW126368   4.808   1.324   0.121
 4779SOL    HW226369   4.941   1.350   0.212
 4780SOL     OW26370   4.337   0.842   1.431
 4780SOL    HW126371   4.393   0.923   1.414
 4780SOL    HW226372   4.396   0.762   1.434
 4781SOL     OW26373   5.217   1.767   0.959
 4781SOL    HW126374   5.250   1.831   0.890
 4781SOL    HW226375   5.283   1.761   1.034
 4782SOL     OW26376   4.440   0.565   1.708
 4782SOL    HW126377   4.459   0.630   1.782
 4782SOL    HW226378   4.500   0.485   1.717
 4783SOL     OW26379   5.174   1.220   1.633
 4783SOL    HW126380   5.165   1.210   1.732
 4783SOL    HW226381   5.270   1.213   1.607
 4784SOL     OW26382   4.114   1.741   1.560
 4784SOL    HW126383   4.023   1.782   1.558
 4784SOL    HW226384   4.107   1.647   1.592
 4785SOL     OW26385   5.398   0.883   1.254
 4785SOL    HW126386   5.371   0.794   1.217
 4785SOL    HW226387   5.399   0.951   1.181
 4786SOL     OW26388   4.949   0.325   0.449
 4786SOL    HW126389   5.014   0.251   0.438
 4786SOL    HW226390   4.969   0.375   0.533
 4787SOL     OW26391   4.318   0.745   0.652
 4787SOL    HW126392   4.368   0.830   0.633
 4787SOL    HW226393   4.230   0.747   0.604
 4788SOL     OW26394   5.501   0.342   1.642
 4788SOL    HW126395   5.484   0.373   1.548
 4788SOL    HW226396   5.417   0.305   1.680
 4789SOL     OW26397   5.454   0.934   1.517
 4789SOL    HW126398   5.492   1.025   1.532
 4789SOL    HW226399   5.446   0.917   1.418
 4790SOL     OW26400   4.583   1.374   0.016
 4790SOL    HW126401   4.537   1.389   0.104
 4790SOL    HW226402   4.627   1.459  -0.014
 4791SOL     OW26403   4.385   1.790   0.953
 4791SOL    HW126404   4.339   1.878   0.940
 4791SOL    HW226405   4.484   1.802   0.946
 4792SOL     OW26406   4.583   0.956   0.861
 4792SOL    HW126407   4.637   0.887   0.909
 4792SOL    HW226408   4.551   1.025   0.927
 4793SOL     OW26409   4.807   0.984   0.087
 4793SOL    HW126410   4.784   1.037   0.005
 4793SOL    HW226411   4.888   0.928   0.068
 4794SOL     OW26412   5.585   1.569   0.851
 4794SOL    HW126413   5.514   1.557   0.781
 4794SOL    HW226414   5.586   1.490   0.911
 4795SOL     OW26415   3.803   1.240   0.653
 4795SOL    HW126416   3.802   1.193   0.741
 4795SOL    HW226417   3.885   1.212   0.602
 4796SOL     OW26418   4.396   1.391   1.624
 4796SOL    HW126419   4.318   1.341   1.662
 4796SOL    HW226420   4.393   1.486   1.655
 4797SOL     OW26421   5.548   0.192   1.227
 4797SOL    HW126422   5.544   0.102   1.271
 4797SOL    HW226423   5.551   0.181   1.128
 4798SOL     OW26424   4.152   0.424   0.520
 4798SOL    HW126425   4.182   0.352   0.458
 4798SOL    HW226426   4.113   0.384   0.603
 4799SOL     OW26427   5.429   1.487   1.104
 4799SOL    HW126428   5.336   1.462   1.077
 4799SOL    HW226429   5.455   1.437   1.186
 4800SOL     OW26430   4.041   0.547   1.280
 4800SOL    HW126431   4.079   0.488   1.352
 4800SOL    HW226432   4.081   0.521   1.192
 4801SOL     OW26433   4.536   1.586   0.687
 4801SOL    HW126434   4.568   1.596   0.593
 4801SOL    HW226435   4.457   1.524   0.689
 4802SOL     OW26436   5.148   0.214   1.112
 4802SOL    HW126437   5.200   0.149   1.167
 4802SOL    HW226438   5.099   0.277   1.173
 4803SOL     OW26439   4.725   0.034   1.154
 4803SOL    HW126440   4.662  -0.038   1.123
 4803SOL    HW226441   4.818  -0.002   1.154
 4804SOL     OW26442   4.494   1.330   0.301
 4804SOL    HW126443   4.448   1.243   0.318
 4804SOL    HW226444   4.585   1.327   0.342
 4805SOL     OW26445   4.342   1.567   1.284
 4805SOL    HW126446   4.337   1.649   1.341
 4805SOL    HW226447   4.431   1.564   1.239
 4806SOL     OW26448   5.076   0.052   0.168
 4806SOL    HW126449   5.111   0.011   0.084
 4806SOL    HW226450   4.986   0.014   0.188
 4807SOL     OW26451   5.024   0.453   0.691
 4807SOL    HW126452   4.965   0.533   0.695
 4807SOL    HW226453   5.039   0.418   0.784
 4808SOL     OW26454   5.317   0.221   0.882
 4808SOL    HW126455   5.233   0.220   0.936
 4808SOL    HW226456   5.319   0.304   0.826
 4809SOL     OW26457   3.763   1.077   0.300
 4809SOL    HW126458   3.862   1.066   0.291
 4809SOL    HW226459   3.723   0.991   0.332
 4810SOL     OW26460   4.599   1.646   0.337
 4810SOL    HW126461   4.522   1.611   0.283
 4810SOL    HW226462   4.567   1.717   0.399
 4811SOL     OW26463   4.574   0.798   3.685
 4811SOL    HW126464   4.570   0.874   3.750
 4811SOL    HW226465   4.596   0.834   3.594
 4812SOL     OW26466   4.409   1.012   2.527
 4812SOL    HW126467   4.478   0.996   2.597
 4812SOL    HW226468   4.336   1.069   2.565
 4813SOL     OW26469   4.410   1.161   3.665
 4813SOL    HW126470   4.470   1.240   3.679
 4813SOL    HW226471   4.324   1.192   3.624
 4814SOL     OW26472   3.955   1.713   2.345
 4814SOL    HW126473   3.989   1.790   2.399
 4814SOL    HW226474   3.999   1.713   2.255
 4815SOL     OW26475   4.330   0.964   1.985
 4815SOL    HW126476   4.337   1.048   1.931
 4815SOL    HW226477   4.376   0.977   2.073
 4816SOL     OW26478   3.837   0.737   3.459
 4816SOL    HW126479   3.925   0.724   3.504
 4816SOL    HW226480   3.824   0.834   3.437
 4817SOL     OW26481   5.017   1.228   3.285
 4817SOL    HW126482   5.054   1.155   3.227
 4817SOL    HW226483   5.069   1.233   3.370
 4818SOL     OW26484   3.921   0.976   3.126
 4818SOL    HW126485   4.010   0.931   3.112
 4818SOL    HW226486   3.848   0.911   3.107
 4819SOL     OW26487   4.911   1.792   3.478
 4819SOL    HW126488   4.935   1.852   3.402
 4819SOL    HW226489   4.918   1.697   3.448
 4820SOL     OW26490   4.322   0.729   2.132
 4820SOL    HW126491   4.346   0.798   2.064
 4820SOL    HW226492   4.244   0.762   2.186
 4821SOL     OW26493   5.005   0.345   2.806
 4821SOL    HW126494   4.919   0.295   2.793
 4821SOL    HW226495   5.067   0.291   2.862
 4822SOL     OW26496   5.118   0.469   3.536
 4822SOL    HW126497   5.098   0.512   3.624
 4822SOL    HW226498   5.196   0.407   3.545
 4823SOL     OW26499   4.589   0.348   2.057
 4823SOL    HW126500   4.648   0.411   2.008
 4823SOL    HW226501   4.608   0.254   2.028
 4824SOL     OW26502   4.045   0.943   2.104
 4824SOL    HW126503   4.127   0.982   2.062
 4824SOL    HW226504   4.018   0.861   2.055
 4825SOL     OW26505   5.356   1.377   1.943
 4825SOL    HW126506   5.324   1.471   1.933
 4825SOL    HW226507   5.280   1.314   1.931
 4826SOL     OW26508   4.188   1.743   2.185
 4826SOL    HW126509   4.221   1.782   2.271
 4826SOL    HW226510   4.264   1.736   2.120
 4827SOL     OW26511   4.664   1.698   2.766
 4827SOL    HW126512   4.744   1.641   2.787
 4827SOL    HW226513   4.615   1.658   2.689
 4828SOL     OW26514   4.338   0.122   1.979
 4828SOL    HW126515   4.436   0.100   1.986
 4828SOL    HW226516   4.307   0.105   1.886
 4829SOL     OW26517   4.505   0.264   3.611
 4829SOL    HW126518   4.572   0.203   3.654
 4829SOL    HW226519   4.432   0.283   3.676
 4830SOL     OW26520   5.075   0.590   3.295
 4830SOL    HW126521   5.103   0.547   3.380
 4830SOL    HW226522   5.100   0.686   3.296
 4831SOL     OW26523   4.646   0.503   2.761
 4831SOL    HW126524   4.621   0.494   2.665
 4831SOL    HW226525   4.694   0.421   2.792
 4832SOL     OW26526   5.158   1.188   1.903
 4832SOL    HW126527   5.190   1.112   1.960
 4832SOL    HW226528   5.066   1.215   1.933
 4833SOL     OW26529   4.800   0.683   3.326
 4833SOL    HW126530   4.720   0.622   3.329
 4833SOL    HW226531   4.881   0.630   3.302
 4834SOL     OW26532   4.951   1.570   2.655
 4834SOL    HW126533   4.972   1.644   2.590
 4834SOL    HW226534   5.019   1.570   2.728
 4835SOL     OW26535   4.756   0.549   1.878
 4835SOL    HW126536   4.715   0.631   1.839
 4835SOL    HW226537   4.820   0.575   1.951
 4836SOL     OW26538   4.590   0.454   2.504
 4836SOL    HW126539   4.558   0.526   2.442
 4836SOL    HW226540   4.614   0.373   2.451
 4837SOL     OW26541   4.741   0.039   2.615
 4837SOL    HW126542   4.669   0.044   2.546
 4837SOL    HW226543   4.717  -0.030   2.684
 4838SOL     OW26544   5.581   0.833   2.239
 4838SOL    HW126545   5.623   0.769   2.303
 4838SOL    HW226546   5.543   0.782   2.161
 4839SOL     OW26547   4.212   1.385   2.036
 4839SOL    HW126548   4.125   1.370   2.083
 4839SOL    HW226549   4.195   1.411   1.941
 4840SOL     OW26550   4.251   0.256   2.190
 4840SOL    HW126551   4.278   0.197   2.115
 4840SOL    HW226552   4.251   0.351   2.159
 4841SOL     OW26553   5.478   1.223   3.450
 4841SOL    HW126554   5.569   1.184   3.437
 4841SOL    HW226555   5.486   1.319   3.474
 4842SOL     OW26556   4.429   1.050   2.230
 4842SOL    HW126557   4.415   1.057   2.329
 4842SOL    HW226558   4.513   0.999   2.212
 4843SOL     OW26559   4.998   0.386   3.124
 4843SOL    HW126560   5.019   0.460   3.188
 4843SOL    HW226561   4.909   0.403   3.081
 4844SOL     OW26562   4.091   1.100   2.363
 4844SOL    HW126563   4.084   1.183   2.307
 4844SOL    HW226564   4.095   1.020   2.303
 4845SOL     OW26565   4.996   1.445   3.004
 4845SOL    HW126566   5.043   1.458   3.091
 4845SOL    HW226567   4.930   1.371   3.013
 4846SOL     OW26568   5.084   0.862   2.907
 4846SOL    HW126569   5.009   0.862   2.841
 4846SOL    HW226570   5.121   0.770   2.916
 4847SOL     OW26571   4.933   0.525   2.137
 4847SOL    HW126572   4.946   0.441   2.191
 4847SOL    HW226573   4.904   0.599   2.197
 4848SOL     OW26574   4.456   0.634   2.926
 4848SOL    HW126575   4.515   0.608   2.850
 4848SOL    HW226576   4.428   0.730   2.915
 4849SOL     OW26577   4.043   0.810   2.811
 4849SOL    HW126578   4.136   0.846   2.816
 4849SOL    HW226579   4.037   0.725   2.863
 4850SOL     OW26580   3.913   0.520   3.584
 4850SOL    HW126581   3.972   0.480   3.514
 4850SOL    HW226582   3.855   0.591   3.543
 4851SOL     OW26583   4.539   0.572   2.187
 4851SOL    HW126584   4.546   0.483   2.141
 4851SOL    HW226585   4.445   0.606   2.179
 4852SOL     OW26586   4.654   1.678   3.327
 4852SOL    HW126587   4.630   1.660   3.232
 4852SOL    HW226588   4.684   1.772   3.337
 4853SOL     OW26589   4.197   0.500   2.053
 4853SOL    HW126590   4.258   0.580   2.057
 4853SOL    HW226591   4.102   0.531   2.060
 4854SOL     OW26592   5.483   1.747   3.016
 4854SOL    HW126593   5.544   1.777   2.943
 4854SOL    HW226594   5.445   1.658   2.994
 4855SOL     OW26595   4.396   1.616   2.016
 4855SOL    HW126596   4.405   1.626   1.917
 4855SOL    HW226597   4.356   1.527   2.037
 4856SOL     OW26598   5.374   1.720   3.256
 4856SOL    HW126599   5.427   1.730   3.172
 4856SOL    HW226600   5.347   1.810   3.290
 4857SOL     OW26601   4.918   1.612   1.893
 4857SOL    HW126602   4.924   1.519   1.930
 4857SOL    HW226603   4.859   1.612   1.813
 4858SOL     OW26604   4.640   0.910   2.153
 4858SOL    HW126605   4.703   0.948   2.085
 4858SOL    HW226606   4.680   0.827   2.192
 4859SOL     OW26607   4.314   1.487   2.353
 4859SOL    HW126608   4.356   1.429   2.283
 4859SOL    HW226609   4.270   1.566   2.309
 4860SOL     OW26610   3.799   0.345   1.895
 4860SOL    HW126611   3.707   0.317   1.866
 4860SOL    HW226612   3.830   0.422   1.839
 4861SOL     OW26613   5.398   0.883   3.116
 4861SOL    HW126614   5.371   0.794   3.079
 4861SOL    HW226615   5.399   0.951   3.043
 4862SOL     OW26616   4.583   1.374   1.878
 4862SOL    HW126617   4.537   1.389   1.966
 4862SOL    HW226618   4.627   1.459   1.848
 4863SOL     OW26619   4.385   1.790   2.815
 4863SOL    HW126620   4.339   1.878   2.802
 4863SOL    HW226621   4.484   1.802   2.808
 4864SOL     OW26622   4.583   0.956   2.723
 4864SOL    HW126623   4.637   0.887   2.771
 4864SOL    HW226624   4.551   1.025   2.789
 4865SOL     OW26625   3.945   1.314   3.706
 4865SOL    HW126626   3.880   1.241   3.685
 4865SOL    HW226627   3.949   1.328   3.804
 4866SOL     OW26628   4.152   0.424   2.382
 4866SOL    HW126629   4.182   0.352   2.320
 4866SOL    HW226630   4.113   0.384   2.465
 4867SOL     OW26631   4.536   1.586   2.549
 4867SOL    HW126632   4.568   1.596   2.455
 4867SOL    HW226633   4.457   1.524   2.551
 4868SOL     OW26634   5.148   0.214   2.974
 4868SOL    HW126635   5.200   0.149   3.029
 4868SOL    HW226636   5.099   0.277   3.035
 4869SOL     OW26637   4.725   0.034   3.016
 4869SOL    HW126638   4.662  -0.038   2.985
 4869SOL    HW226639   4.818  -0.002   3.016
 4870SOL     OW26640   4.494   1.330   2.163
 4870SOL    HW126641   4.448   1.243   2.180
 4870SOL    HW226642   4.585   1.327   2.204
 4871SOL     OW26643   3.763   1.077   2.162
 4871SOL    HW126644   3.862   1.066   2.153
 4871SOL    HW226645   3.723   0.991   2.194
 4872SOL     OW26646   4.599   1.646   2.199
 4872SOL    HW126647   4.522   1.611   2.145
 4872SOL    HW226648   4.567   1.717   2.261
 4873SOL     OW26649   3.954   0.628   3.837
 4873SOL    HW126650   3.861   0.626   3.874
 4873SOL    HW226651   3.955   0.589   3.745
 4874SOL     OW26652   4.293   1.275   4.889
 4874SOL    HW126653   4.200   1.268   4.852
 4874SOL    HW226654   4.304   1.364   4.933
 4875SOL     OW26655   5.279   1.511   4.427
 4875SOL    HW126656   5.222   1.495   4.508
 4875SOL    HW226657   5.220   1.521   4.347
 4876SOL     OW26658   5.479   0.607   3.955
 4876SOL    HW126659   5.467   0.594   3.856
 4876SOL    HW226660   5.449   0.526   4.004
 4877SOL     OW26661   5.184   1.505   5.063
 4877SOL    HW126662   5.208   1.599   5.089
 4877SOL    HW226663   5.168   1.451   5.145
 4878SOL     OW26664   4.162   0.392   5.223
 4878SOL    HW126665   4.244   0.336   5.232
 4878SOL    HW226666   4.081   0.334   5.227
 4879SOL     OW26667   5.566   1.767   4.083
 4879SOL    HW126668   5.620   1.738   4.163
 4879SOL    HW226669   5.596   1.857   4.054
 4880SOL     OW26670   5.413   0.922   4.336
 4880SOL    HW126671   5.508   0.893   4.344
 4880SOL    HW226672   5.405   0.987   4.261
 4881SOL     OW26673   5.365   1.108   4.156
 4881SOL    HW126674   5.451   1.110   4.104
 4881SOL    HW226675   5.379   1.155   4.244
 4882SOL     OW26676   3.837   0.737   5.321
 4882SOL    HW126677   3.925   0.724   5.366
 4882SOL    HW226678   3.824   0.834   5.299
 4883SOL     OW26679   4.337   1.365   4.450
 4883SOL    HW126680   4.288   1.278   4.459
 4883SOL    HW226681   4.314   1.408   4.363
 4884SOL     OW26682   4.533   0.004   4.226
 4884SOL    HW126683   4.573   0.095   4.217
 4884SOL    HW226684   4.433   0.012   4.232
 4885SOL     OW26685   3.921   0.976   4.988
 4885SOL    HW126686   4.010   0.931   4.974
 4885SOL    HW226687   3.848   0.911   4.969
 4886SOL     OW26688   5.249   0.999   3.914
 4886SOL    HW126689   5.186   0.923   3.927
 4886SOL    HW226690   5.297   1.017   4.000
 4887SOL     OW26691   4.911   1.792   5.340
 4887SOL    HW126692   4.935   1.852   5.264
 4887SOL    HW226693   4.918   1.697   5.310
 4888SOL     OW26694   4.041   0.251   5.525
 4888SOL    HW126695   4.112   0.322   5.531
 4888SOL    HW226696   3.953   0.290   5.553
 4889SOL     OW26697   3.800   0.811   4.513
 4889SOL    HW126698   3.899   0.799   4.522
 4889SOL    HW226699   3.776   0.906   4.534
 4890SOL     OW26700   4.732   1.456   4.201
 4890SOL    HW126701   4.686   1.528   4.149
 4890SOL    HW226702   4.728   1.476   4.299
 4891SOL     OW26703   4.075   1.801   4.577
 4891SOL    HW126704   4.125   1.715   4.583
 4891SOL    HW226705   4.140   1.878   4.574
 4892SOL     OW26706   4.951   1.550   5.230
 4892SOL    HW126707   4.957   1.473   5.294
 4892SOL    HW226708   4.899   1.524   5.150
 4893SOL     OW26709   4.045   0.943   3.966
 4893SOL    HW126710   4.127   0.982   3.924
 4893SOL    HW226711   4.018   0.861   3.917
 4894SOL     OW26712   4.185   1.266   5.451
 4894SOL    HW126713   4.135   1.267   5.365
 4894SOL    HW226714   4.122   1.248   5.527
 4895SOL     OW26715   4.664   1.698   4.628
 4895SOL    HW126716   4.744   1.641   4.649
 4895SOL    HW226717   4.615   1.658   4.551
 4896SOL     OW26718   4.106   0.700   4.204
 4896SOL    HW126719   4.151   0.610   4.201
 4896SOL    HW226720   4.012   0.689   4.237
 4897SOL     OW26721   5.271   0.222   5.453
 4897SOL    HW126722   5.266   0.259   5.545
 4897SOL    HW226723   5.199   0.153   5.441
 4898SOL     OW26724   4.505   0.264   5.473
 4898SOL    HW126725   4.572   0.203   5.516
 4898SOL    HW226726   4.432   0.283   5.538
 4899SOL     OW26727   4.646   0.503   4.623
 4899SOL    HW126728   4.621   0.494   4.527
 4899SOL    HW226729   4.694   0.421   4.654
 4900SOL     OW26730   4.263   0.064   4.236
 4900SOL    HW126731   4.182   0.065   4.294
 4900SOL    HW226732   4.266   0.147   4.181
 4901SOL     OW26733   4.995   1.797   4.315
 4901SOL    HW126734   5.039   1.861   4.251
 4901SOL    HW226735   4.945   1.849   4.385
 4902SOL     OW26736   3.802   0.556   5.110
 4902SOL    HW126737   3.894   0.555   5.069
 4902SOL    HW226738   3.796   0.630   5.177
 4903SOL     OW26739   4.285   0.222   4.871
 4903SOL    HW126740   4.323   0.138   4.908
 4903SOL    HW226741   4.197   0.241   4.915
 4904SOL     OW26742   4.590   0.454   4.366
 4904SOL    HW126743   4.558   0.526   4.304
 4904SOL    HW226744   4.614   0.373   4.313
 4905SOL     OW26745   4.741   0.039   4.477
 4905SOL    HW126746   4.669   0.044   4.408
 4905SOL    HW226747   4.717  -0.030   4.546
 4906SOL     OW26748   5.388   1.280   4.381
 4906SOL    HW126749   5.487   1.288   4.395
 4906SOL    HW226750   5.343   1.364   4.412
 4907SOL     OW26751   4.251   0.256   4.052
 4907SOL    HW126752   4.278   0.197   3.977
 4907SOL    HW226753   4.251   0.351   4.021
 4908SOL     OW26754   4.788   1.347   5.064
 4908SOL    HW126755   4.708   1.324   5.119
 4908SOL    HW226756   4.871   1.321   5.113
 4909SOL     OW26757   4.429   1.050   4.092
 4909SOL    HW126758   4.415   1.057   4.191
 4909SOL    HW226759   4.513   0.999   4.074
 4910SOL     OW26760   4.998   0.386   4.986
 4910SOL    HW126761   5.019   0.460   5.050
 4910SOL    HW226762   4.909   0.403   4.943
 4911SOL     OW26763   4.091   1.100   4.225
 4911SOL    HW126764   4.084   1.183   4.169
 4911SOL    HW226765   4.095   1.020   4.165
 4912SOL     OW26766   4.976   1.348   4.112
 4912SOL    HW126767   5.026   1.425   4.152
 4912SOL    HW226768   4.881   1.350   4.144
 4913SOL     OW26769   4.996   1.445   4.866
 4913SOL    HW126770   5.043   1.458   4.953
 4913SOL    HW226771   4.930   1.371   4.875
 4914SOL     OW26772   4.126   0.751   5.322
 4914SOL    HW126773   4.194   0.806   5.275
 4914SOL    HW226774   4.166   0.663   5.349
 4915SOL     OW26775   4.228   0.050   5.464
 4915SOL    HW126776   4.186  -0.007   5.394
 4915SOL    HW226777   4.162   0.119   5.496
 4916SOL     OW26778   4.031   0.213   4.955
 4916SOL    HW126779   4.008   0.250   5.045
 4916SOL    HW226780   4.001   0.118   4.949
 4917SOL     OW26781   4.456   0.634   4.788
 4917SOL    HW126782   4.515   0.608   4.712
 4917SOL    HW226783   4.428   0.730   4.777
 4918SOL     OW26784   4.031   0.063   4.342
 4918SOL    HW126785   4.020   0.157   4.375
 4918SOL    HW226786   4.026   0.000   4.419
 4919SOL     OW26787   4.747   0.766   4.690
 4919SOL    HW126788   4.762   0.787   4.786
 4919SOL    HW226789   4.717   0.671   4.681
 4920SOL     OW26790   4.704   1.573   5.424
 4920SOL    HW126791   4.684   1.617   5.336
 4920SOL    HW226792   4.743   1.482   5.408
 4921SOL     OW26793   4.074   0.898   5.528
 4921SOL    HW126794   4.150   0.942   5.576
 4921SOL    HW226795   4.109   0.851   5.446
 4922SOL     OW26796   5.027   0.838   3.766
 4922SOL    HW126797   5.061   0.745   3.781
 4922SOL    HW226798   5.045   0.865   3.671
 4923SOL     OW26799   4.792   1.333   4.573
 4923SOL    HW126800   4.799   1.249   4.518
 4923SOL    HW226801   4.854   1.402   4.537
 4924SOL     OW26802   4.043   0.810   4.673
 4924SOL    HW126803   4.136   0.846   4.678
 4924SOL    HW226804   4.037   0.725   4.725
 4925SOL     OW26805   4.862   0.380   5.402
 4925SOL    HW126806   4.817   0.443   5.466
 4925SOL    HW226807   4.955   0.411   5.385
 4926SOL     OW26808   4.726   0.796   4.962
 4926SOL    HW126809   4.767   0.764   5.048
 4926SOL    HW226810   4.630   0.769   4.959
 4927SOL     OW26811   3.913   0.520   5.446
 4927SOL    HW126812   3.972   0.480   5.376
 4927SOL    HW226813   3.855   0.591   5.405
 4928SOL     OW26814   3.976   1.564   5.468
 4928SOL    HW126815   3.946   1.621   5.544
 4928SOL    HW226816   3.969   1.467   5.494
 4929SOL     OW26817   4.654   1.678   5.189
 4929SOL    HW126818   4.630   1.660   5.094
 4929SOL    HW226819   4.684   1.772   5.199
 4930SOL     OW26820   3.883   1.137   5.190
 4930SOL    HW126821   3.905   1.076   5.266
 4930SOL    HW226822   3.893   1.088   5.104
 4931SOL     OW26823   5.026   0.855   4.033
 4931SOL    HW126824   4.940   0.824   4.075
 4931SOL    HW226825   5.022   0.841   3.934
 4932SOL     OW26826   3.854   1.794   5.575
 4932SOL    HW126827   3.813   1.720   5.628
 4932SOL    HW226828   3.918   1.845   5.633
 4933SOL     OW26829   5.004   0.927   4.396
 4933SOL    HW126830   5.064   0.846   4.398
 4933SOL    HW226831   5.044   0.996   4.336
 4934SOL     OW26832   4.396   1.616   3.878
 4934SOL    HW126833   4.405   1.626   3.779
 4934SOL    HW226834   4.356   1.527   3.899
 4935SOL     OW26835   4.918   1.612   3.755
 4935SOL    HW126836   4.924   1.519   3.792
 4935SOL    HW226837   4.859   1.612   3.675
 4936SOL     OW26838   4.640   0.910   4.015
 4936SOL    HW126839   4.703   0.948   3.947
 4936SOL    HW226840   4.680   0.827   4.054
 4937SOL     OW26841   5.338   1.292   5.013
 4937SOL    HW126842   5.398   1.295   5.093
 4937SOL    HW226843   5.263   1.356   5.026
 4938SOL     OW26844   4.763   1.098   4.420
 4938SOL    HW126845   4.693   1.051   4.474
 4938SOL    HW226846   4.822   1.030   4.377
 4939SOL     OW26847   3.829   1.013   5.450
 4939SOL    HW126848   3.752   0.980   5.504
 4939SOL    HW226849   3.914   0.983   5.492
 4940SOL     OW26850   4.907   1.335   3.843
 4940SOL    HW126851   4.808   1.324   3.845
 4940SOL    HW226852   4.941   1.350   3.936
 4941SOL     OW26853   5.217   1.767   4.683
 4941SOL    HW126854   5.250   1.831   4.614
 4941SOL    HW226855   5.283   1.761   4.758
 4942SOL     OW26856   4.440   0.565   5.432
 4942SOL    HW126857   4.459   0.630   5.506
 4942SOL    HW226858   4.500   0.485   5.441
 4943SOL     OW26859   5.501   0.342   5.366
 4943SOL    HW126860   5.484   0.373   5.272
 4943SOL    HW226861   5.417   0.305   5.404
 4944SOL     OW26862   4.385   1.790   4.677
 4944SOL    HW126863   4.339   1.878   4.664
 4944SOL    HW226864   4.484   1.802   4.670
 4945SOL     OW26865   4.583   0.956   4.585
 4945SOL    HW126866   4.637   0.887   4.633
 4945SOL    HW226867   4.551   1.025   4.651
 4946SOL     OW26868   4.807   0.984   3.811
 4946SOL    HW126869   4.784   1.037   3.729
 4946SOL    HW226870   4.888   0.928   3.792
 4947SOL     OW26871   3.945   1.314   5.568
 4947SOL    HW126872   3.880   1.241   5.547
 4947SOL    HW226873   3.949   1.328   5.666
 4948SOL     OW26874   3.803   1.240   4.377
 4948SOL    HW126875   3.802   1.193   4.465
 4948SOL    HW226876   3.885   1.212   4.326
 4949SOL     OW26877   4.536   1.586   4.411
 4949SOL    HW126878   4.568   1.596   4.317
 4949SOL    HW226879   4.457   1.524   4.413
 4950SOL     OW26880   5.024   0.453   4.415
 4950SOL    HW126881   4.965   0.533   4.419
 4950SOL    HW226882   5.039   0.418   4.508
 4951SOL     OW26883   3.763   1.077   4.024
 4951SOL    HW126884   3.862   1.066   4.015
 4951SOL    HW226885   3.723   0.991   4.056
 4952SOL     OW26886   3.954   0.628   5.699
 4952SOL    HW126887   3.861   0.626   5.736
 4952SOL    HW226888   3.955   0.589   5.607
 4953SOL     OW26889   3.949   0.275   6.582
 4953SOL    HW126890   3.984   0.258   6.674
 4953SOL    HW226891   3.861   0.230   6.570
 4954SOL     OW26892   3.743   0.368   6.233
 4954SOL    HW126893   3.661   0.411   6.272
 4954SOL    HW226894   3.715   0.295   6.170
 4955SOL     OW26895   4.293   1.275   6.751
 4955SOL    HW126896   4.200   1.268   6.714
 4955SOL    HW226897   4.304   1.364   6.795
 4956SOL     OW26898   5.279   1.511   6.289
 4956SOL    HW126899   5.222   1.495   6.370
 4956SOL    HW226900   5.220   1.521   6.209
 4957SOL     OW26901   4.859   0.703   6.303
 4957SOL    HW126902   4.916   0.781   6.278
 4957SOL    HW226903   4.799   0.729   6.379
 4958SOL     OW26904   5.479   0.607   5.817
 4958SOL    HW126905   5.467   0.594   5.718
 4958SOL    HW226906   5.449   0.526   5.866
 4959SOL     OW26907   4.492   1.144   6.609
 4959SOL    HW126908   4.414   1.161   6.669
 4959SOL    HW226909   4.526   1.231   6.573
 4960SOL     OW26910   4.409   1.012   6.251
 4960SOL    HW126911   4.478   0.996   6.321
 4960SOL    HW226912   4.336   1.069   6.289
 4961SOL     OW26913   4.059   1.435   6.647
 4961SOL    HW126914   3.981   1.404   6.594
 4961SOL    HW226915   4.117   1.493   6.590
 4962SOL     OW26916   5.184   1.505   6.925
 4962SOL    HW126917   5.208   1.599   6.951
 4962SOL    HW226918   5.168   1.451   7.007
 4963SOL     OW26919   4.162   0.392   7.085
 4963SOL    HW126920   4.244   0.336   7.094
 4963SOL    HW226921   4.081   0.334   7.089
 4964SOL     OW26922   5.327   0.447   6.323
 4964SOL    HW126923   5.253   0.493   6.273
 4964SOL    HW226924   5.378   0.515   6.376
 4965SOL     OW26925   3.955   1.713   6.069
 4965SOL    HW126926   3.989   1.790   6.123
 4965SOL    HW226927   3.999   1.713   5.979
 4966SOL     OW26928   3.954   1.434   6.124
 4966SOL    HW126929   3.928   1.530   6.124
 4966SOL    HW226930   3.883   1.380   6.169
 4967SOL     OW26931   3.964   1.091   6.472
 4967SOL    HW126932   3.978   1.007   6.524
 4967SOL    HW226933   3.909   1.155   6.527
 4968SOL     OW26934   4.344   1.786   7.025
 4968SOL    HW126935   4.252   1.769   7.060
 4968SOL    HW226936   4.372   1.878   7.051
 4969SOL     OW26937   4.330   0.964   5.709
 4969SOL    HW126938   4.337   1.048   5.655
 4969SOL    HW226939   4.376   0.977   5.797
 4970SOL     OW26940   5.318   0.114   7.066
 4970SOL    HW126941   5.300   0.181   6.994
 4970SOL    HW226942   5.315   0.160   7.155
 4971SOL     OW26943   3.846   0.643   6.149
 4971SOL    HW126944   3.801   0.555   6.166
 4971SOL    HW226945   3.845   0.697   6.233
 4972SOL     OW26946   5.413   0.922   6.198
 4972SOL    HW126947   5.508   0.893   6.206
 4972SOL    HW226948   5.405   0.987   6.123
 4973SOL     OW26949   5.365   1.108   6.018
 4973SOL    HW126950   5.451   1.110   5.966
 4973SOL    HW226951   5.379   1.155   6.106
 4974SOL     OW26952   4.337   1.365   6.312
 4974SOL    HW126953   4.288   1.278   6.321
 4974SOL    HW226954   4.314   1.408   6.225
 4975SOL     OW26955   4.533   0.004   6.088
 4975SOL    HW126956   4.573   0.095   6.079
 4975SOL    HW226957   4.433   0.012   6.094
 4976SOL     OW26958   3.921   0.976   6.850
 4976SOL    HW126959   4.010   0.931   6.836
 4976SOL    HW226960   3.848   0.911   6.831
 4977SOL     OW26961   5.249   0.999   5.776
 4977SOL    HW126962   5.186   0.923   5.789
 4977SOL    HW226963   5.297   1.017   5.862
 4978SOL     OW26964   5.190   1.417   6.539
 4978SOL    HW126965   5.131   1.423   6.619
 4978SOL    HW226966   5.175   1.329   6.493
 4979SOL     OW26967   5.391   1.714   6.158
 4979SOL    HW126968   5.350   1.691   6.070
 4979SOL    HW226969   5.373   1.640   6.223
 4980SOL     OW26970   4.322   0.729   5.856
 4980SOL    HW126971   4.346   0.798   5.788
 4980SOL    HW226972   4.244   0.762   5.910
 4981SOL     OW26973   5.005   0.345   6.530
 4981SOL    HW126974   4.919   0.295   6.517
 4981SOL    HW226975   5.067   0.291   6.586
 4982SOL     OW26976   5.300   1.662   5.893
 4982SOL    HW126977   5.389   1.708   5.896
 4982SOL    HW226978   5.279   1.638   5.798
 4983SOL     OW26979   4.531   0.605   7.051
 4983SOL    HW126980   4.484   0.602   7.140
 4983SOL    HW226981   4.480   0.550   6.985
 4984SOL     OW26982   4.715   0.410   6.828
 4984SOL    HW126983   4.638   0.444   6.882
 4984SOL    HW226984   4.681   0.359   6.749
 4985SOL     OW26985   4.765   0.701   6.015
 4985SOL    HW126986   4.791   0.697   6.111
 4985SOL    HW226987   4.680   0.650   6.001
 4986SOL     OW26988   3.800   0.811   6.375
 4986SOL    HW126989   3.899   0.799   6.384
 4986SOL    HW226990   3.776   0.906   6.396
 4987SOL     OW26991   3.854   1.821   7.157
 4987SOL    HW126992   3.844   1.806   7.256
 4987SOL    HW226993   3.768   1.857   7.121
 4988SOL     OW26994   4.589   0.348   5.781
 4988SOL    HW126995   4.648   0.411   5.732
 4988SOL    HW226996   4.608   0.254   5.752
 4989SOL     OW26997   5.086   1.144   6.131
 4989SOL    HW126998   5.169   1.115   6.083
 4989SOL    HW226999   5.037   1.211   6.075
 4990SOL     OW27000   4.274   0.196   6.471
 4990SOL    HW127001   4.269   0.191   6.571
 4990SOL    HW227002   4.276   0.292   6.442
 4991SOL     OW27003   4.732   1.456   6.063
 4991SOL    HW127004   4.686   1.528   6.011
 4991SOL    HW227005   4.728   1.476   6.161
 4992SOL     OW27006   4.075   1.801   6.439
 4992SOL    HW127007   4.125   1.715   6.445
 4992SOL    HW227008   4.140   1.878   6.436
 4993SOL     OW27009   5.519   1.066   6.459
 4993SOL    HW127010   5.457   1.051   6.383
 4993SOL    HW227011   5.467   1.077   6.544
 4994SOL     OW27012   4.045   0.943   5.828
 4994SOL    HW127013   4.127   0.982   5.786
 4994SOL    HW227014   4.018   0.861   5.779
 4995SOL     OW27015   5.182   0.735   6.314
 4995SOL    HW127016   5.177   0.670   6.389
 4995SOL    HW227017   5.262   0.794   6.327
 4996SOL     OW27018   3.926   0.285   7.084
 4996SOL    HW127019   3.846   0.345   7.071
 4996SOL    HW227020   3.916   0.236   7.170
 4997SOL     OW27021   5.356   1.377   5.667
 4997SOL    HW127022   5.324   1.471   5.657
 4997SOL    HW227023   5.280   1.314   5.655
 4998SOL     OW27024   4.188   1.743   5.909
 4998SOL    HW127025   4.221   1.782   5.995
 4998SOL    HW227026   4.264   1.736   5.844
 4999SOL     OW27027   5.124   0.107   6.012
 4999SOL    HW127028   5.100   0.070   5.922
 4999SOL    HW227029   5.223   0.123   6.016
 5000SOL     OW27030   3.973   1.785   6.827
 5000SOL    HW127031   4.030   1.720   6.877
 5000SOL    HW227032   3.957   1.752   6.734
 5001SOL     OW27033   4.664   1.698   6.490
 5001SOL    HW127034   4.744   1.641   6.511
 5001SOL    HW227035   4.615   1.658   6.413
 5002SOL     OW27036   4.106   0.700   6.066
 5002SOL    HW127037   4.151   0.610   6.063
 5002SOL    HW227038   4.012   0.689   6.099
 5003SOL     OW27039   4.338   0.122   5.703
 5003SOL    HW127040   4.436   0.100   5.710
 5003SOL    HW227041   4.307   0.105   5.610
 5004SOL     OW27042   4.612   1.514   6.781
 5004SOL    HW127043   4.589   1.489   6.687
 5004SOL    HW227044   4.673   1.445   6.820
 5005SOL     OW27045   4.527   1.402   6.510
 5005SOL    HW127046   4.617   1.416   6.468
 5005SOL    HW227047   4.456   1.404   6.439
 5006SOL     OW27048   4.646   0.503   6.485
 5006SOL    HW127049   4.621   0.494   6.389
 5006SOL    HW227050   4.694   0.421   6.516
 5007SOL     OW27051   4.263   0.064   6.098
 5007SOL    HW127052   4.182   0.065   6.156
 5007SOL    HW227053   4.266   0.147   6.043
 5008SOL     OW27054   4.021   0.035   5.757
 5008SOL    HW127055   4.070   0.119   5.736
 5008SOL    HW227056   4.083  -0.030   5.802
 5009SOL     OW27057   4.659   0.236   6.066
 5009SOL    HW127058   4.611   0.277   5.988
 5009SOL    HW227059   4.758   0.234   6.047
 5010SOL     OW27060   4.951   1.570   6.379
 5010SOL    HW127061   4.972   1.644   6.314
 5010SOL    HW227062   5.019   1.570   6.452
 5011SOL     OW27063   4.183   1.152   6.327
 5011SOL    HW127064   4.112   1.125   6.392
 5011SOL    HW227065   4.157   1.124   6.234
 5012SOL     OW27066   4.995   1.797   6.177
 5012SOL    HW127067   5.039   1.861   6.113
 5012SOL    HW227068   4.945   1.849   6.247
 5013SOL     OW27069   4.756   0.549   5.602
 5013SOL    HW127070   4.715   0.631   5.563
 5013SOL    HW227071   4.820   0.575   5.675
 5014SOL     OW27072   3.802   0.556   6.972
 5014SOL    HW127073   3.894   0.555   6.931
 5014SOL    HW227074   3.796   0.630   7.039
 5015SOL     OW27075   4.285   0.222   6.733
 5015SOL    HW127076   4.323   0.138   6.770
 5015SOL    HW227077   4.197   0.241   6.777
 5016SOL     OW27078   4.590   0.454   6.228
 5016SOL    HW127079   4.558   0.526   6.166
 5016SOL    HW227080   4.614   0.373   6.175
 5017SOL     OW27081   4.741   0.039   6.339
 5017SOL    HW127082   4.669   0.044   6.270
 5017SOL    HW227083   4.717  -0.030   6.408
 5018SOL     OW27084   5.153   1.173   6.453
 5018SOL    HW127085   5.098   1.089   6.446
 5018SOL    HW227086   5.179   1.202   6.361
 5019SOL     OW27087   5.190   0.590   6.578
 5019SOL    HW127088   5.160   0.495   6.585
 5019SOL    HW227089   5.263   0.606   6.644
 5020SOL     OW27090   5.581   0.833   5.963
 5020SOL    HW127091   5.623   0.769   6.027
 5020SOL    HW227092   5.543   0.782   5.885
 5021SOL     OW27093   4.212   1.385   5.760
 5021SOL    HW127094   4.125   1.370   5.807
 5021SOL    HW227095   4.195   1.411   5.665
 5022SOL     OW27096   5.388   1.280   6.243
 5022SOL    HW127097   5.487   1.288   6.257
 5022SOL    HW227098   5.343   1.364   6.274
 5023SOL     OW27099   5.114   0.575   5.664
 5023SOL    HW127100   5.060   0.554   5.745
 5023SOL    HW227101   5.205   0.534   5.673
 5024SOL     OW27102   4.251   0.256   5.914
 5024SOL    HW127103   4.278   0.197   5.839
 5024SOL    HW227104   4.251   0.351   5.883
 5025SOL     OW27105   4.788   1.347   6.926
 5025SOL    HW127106   4.708   1.324   6.981
 5025SOL    HW227107   4.871   1.321   6.975
 5026SOL     OW27108   4.835   1.195   6.686
 5026SOL    HW127109   4.795   1.239   6.767
 5026SOL    HW227110   4.794   1.232   6.603
 5027SOL     OW27111   5.362   1.099   6.665
 5027SOL    HW127112   5.367   1.180   6.724
 5027SOL    HW227113   5.276   1.101   6.614
 5028SOL     OW27114   4.639   0.089   6.988
 5028SOL    HW127115   4.664   0.069   6.893
 5028SOL    HW227116   4.711   0.145   7.030
 5029SOL     OW27117   4.134   0.813   6.837
 5029SOL    HW127118   4.220   0.825   6.887
 5029SOL    HW227119   4.092   0.726   6.864
 5030SOL     OW27120   4.998   0.386   6.848
 5030SOL    HW127121   5.019   0.460   6.912
 5030SOL    HW227122   4.909   0.403   6.805
 5031SOL     OW27123   3.788   1.564   6.917
 5031SOL    HW127124   3.742   1.646   6.883
 5031SOL    HW227125   3.886   1.583   6.926
 5032SOL     OW27126   4.091   1.100   6.087
 5032SOL    HW127127   4.084   1.183   6.031
 5032SOL    HW227128   4.095   1.020   6.027
 5033SOL     OW27129   4.290   0.537   6.451
 5033SOL    HW127130   4.302   0.603   6.377
 5033SOL    HW227131   4.336   0.571   6.534
 5034SOL     OW27132   4.976   1.348   5.974
 5034SOL    HW127133   5.026   1.425   6.014
 5034SOL    HW227134   4.881   1.350   6.006
 5035SOL     OW27135   4.996   1.445   6.728
 5035SOL    HW127136   5.043   1.458   6.815
 5035SOL    HW227137   4.930   1.371   6.737
 5036SOL     OW27138   5.306   0.639   6.058
 5036SOL    HW127139   5.275   0.700   6.131
 5036SOL    HW227140   5.356   0.691   5.989
 5037SOL     OW27141   4.078   1.510   6.915
 5037SOL    HW127142   4.057   1.466   6.828
 5037SOL    HW227143   4.175   1.536   6.918
 5038SOL     OW27144   4.126   0.751   7.184
 5038SOL    HW127145   4.194   0.806   7.137
 5038SOL    HW227146   4.166   0.663   7.211
 5039SOL     OW27147   5.311   0.779   7.256
 5039SOL    HW127148   5.219   0.817   7.251
 5039SOL    HW227149   5.371   0.826   7.191
 5040SOL     OW27150   4.297   0.870   6.615
 5040SOL    HW127151   4.341   0.959   6.606
 5040SOL    HW227152   4.234   0.870   6.692
 5041SOL     OW27153   5.084   0.862   6.631
 5041SOL    HW127154   5.009   0.862   6.565
 5041SOL    HW227155   5.121   0.770   6.640
 5042SOL     OW27156   4.933   0.525   5.861
 5042SOL    HW127157   4.946   0.441   5.915
 5042SOL    HW227158   4.904   0.599   5.921
 5043SOL     OW27159   4.031   0.213   6.817
 5043SOL    HW127160   4.008   0.250   6.907
 5043SOL    HW227161   4.001   0.118   6.811
 5044SOL     OW27162   3.761   1.310   6.868
 5044SOL    HW127163   3.814   1.261   6.936
 5044SOL    HW227164   3.783   1.408   6.873
 5045SOL     OW27165   4.456   0.634   6.650
 5045SOL    HW127166   4.515   0.608   6.574
 5045SOL    HW227167   4.428   0.730   6.639
 5046SOL     OW27168   4.031   0.063   6.204
 5046SOL    HW127169   4.020   0.157   6.237
 5046SOL    HW227170   4.026   0.000   6.281
 5047SOL     OW27171   5.346   0.367   5.960
 5047SOL    HW127172   5.348   0.291   6.024
 5047SOL    HW227173   5.298   0.444   6.000
 5048SOL     OW27174   4.747   0.766   6.552
 5048SOL    HW127175   4.762   0.787   6.648
 5048SOL    HW227176   4.717   0.671   6.543
 5049SOL     OW27177   4.704   1.573   7.286
 5049SOL    HW127178   4.684   1.617   7.198
 5049SOL    HW227179   4.743   1.482   7.270
 5050SOL     OW27180   5.264   0.274   5.711
 5050SOL    HW127181   5.203   0.199   5.734
 5050SOL    HW227182   5.286   0.326   5.794
 5051SOL     OW27183   4.792   1.333   6.435
 5051SOL    HW127184   4.799   1.249   6.380
 5051SOL    HW227185   4.854   1.402   6.399
 5052SOL     OW27186   4.043   0.810   6.535
 5052SOL    HW127187   4.136   0.846   6.540
 5052SOL    HW227188   4.037   0.725   6.587
 5053SOL     OW27189   4.063   0.509   6.592
 5053SOL    HW127190   4.011   0.426   6.575
 5053SOL    HW227191   4.140   0.514   6.528
 5054SOL     OW27192   4.862   0.380   7.264
 5054SOL    HW127193   4.817   0.443   7.328
 5054SOL    HW227194   4.955   0.411   7.247
 5055SOL     OW27195   4.884   0.207   7.063
 5055SOL    HW127196   4.884   0.271   7.140
 5055SOL    HW227197   4.912   0.255   6.980
 5056SOL     OW27198   3.812   1.801   6.513
 5056SOL    HW127199   3.770   1.715   6.486
 5056SOL    HW227200   3.906   1.804   6.479
 5057SOL     OW27201   4.228   1.568   6.496
 5057SOL    HW127202   4.294   1.642   6.505
 5057SOL    HW227203   4.272   1.489   6.454
 5058SOL     OW27204   4.726   0.796   6.824
 5058SOL    HW127205   4.767   0.764   6.910
 5058SOL    HW227206   4.630   0.769   6.821
 5059SOL     OW27207   3.764   0.544   6.700
 5059SOL    HW127208   3.849   0.511   6.659
 5059SOL    HW227209   3.777   0.559   6.798
 5060SOL     OW27210   4.539   0.572   5.911
 5060SOL    HW127211   4.546   0.483   5.865
 5060SOL    HW227212   4.445   0.606   5.903
 5061SOL     OW27213   5.381   0.604   6.792
 5061SOL    HW127214   5.343   0.535   6.854
 5061SOL    HW227215   5.463   0.568   6.748
 5062SOL     OW27216   4.395   0.464   6.855
 5062SOL    HW127217   4.361   0.375   6.825
 5062SOL    HW227218   4.421   0.518   6.775
 5063SOL     OW27219   4.654   1.678   7.051
 5063SOL    HW127220   4.630   1.660   6.956
 5063SOL    HW227221   4.684   1.772   7.061
 5064SOL     OW27222   4.197   0.500   5.777
 5064SOL    HW127223   4.258   0.580   5.781
 5064SOL    HW227224   4.102   0.531   5.784
 5065SOL     OW27225   3.883   1.137   7.052
 5065SOL    HW127226   3.905   1.076   7.128
 5065SOL    HW227227   3.893   1.088   6.966
 5066SOL     OW27228   5.071   1.059   6.820
 5066SOL    HW127229   5.095   0.996   6.746
 5066SOL    HW227230   4.981   1.099   6.802
 5067SOL     OW27231   5.026   0.855   5.895
 5067SOL    HW127232   4.940   0.824   5.937
 5067SOL    HW227233   5.022   0.841   5.796
 5068SOL     OW27234   5.483   1.747   6.740
 5068SOL    HW127235   5.544   1.777   6.667
 5068SOL    HW227236   5.445   1.658   6.718
 5069SOL     OW27237   4.976   1.731   6.714
 5069SOL    HW127238   5.060   1.736   6.660
 5069SOL    HW227239   4.953   1.635   6.732
 5070SOL     OW27240   3.807   1.258   6.608
 5070SOL    HW127241   3.802   1.257   6.708
 5070SOL    HW227242   3.724   1.217   6.570
 5071SOL     OW27243   5.450   0.135   6.109
 5071SOL    HW127244   5.523   0.118   6.042
 5071SOL    HW227245   5.419   0.048   6.147
 5072SOL     OW27246   5.004   0.927   6.258
 5072SOL    HW127247   5.064   0.846   6.260
 5072SOL    HW227248   5.044   0.996   6.198
 5073SOL     OW27249   5.374   1.720   6.980
 5073SOL    HW127250   5.427   1.730   6.896
 5073SOL    HW227251   5.347   1.810   7.014
 5074SOL     OW27252   5.565   0.175   6.549
 5074SOL    HW127253   5.604   0.090   6.513
 5074SOL    HW227254   5.467   0.177   6.530
 5075SOL     OW27255   3.987   0.326   6.306
 5075SOL    HW127256   3.908   0.377   6.272
 5075SOL    HW227257   3.978   0.311   6.404
 5076SOL     OW27258   4.918   1.612   5.617
 5076SOL    HW127259   4.924   1.519   5.654
 5076SOL    HW227260   4.859   1.612   5.537
 5077SOL     OW27261   4.546   1.002   6.958
 5077SOL    HW127262   4.586   1.001   6.866
 5077SOL    HW227263   4.556   1.094   6.998
 5078SOL     OW27264   4.096   1.288   7.076
 5078SOL    HW127265   4.083   1.381   7.042
 5078SOL    HW227266   4.012   1.236   7.063
 5079SOL     OW27267   5.338   1.292   6.875
 5079SOL    HW127268   5.398   1.295   6.955
 5079SOL    HW227269   5.263   1.356   6.888
 5080SOL     OW27270   4.763   1.098   6.282
 5080SOL    HW127271   4.693   1.051   6.336
 5080SOL    HW227272   4.822   1.030   6.239
 5081SOL     OW27273   4.738   0.236   6.557
 5081SOL    HW127274   4.730   0.200   6.464
 5081SOL    HW227275   4.736   0.160   6.622
 5082SOL     OW27276   4.314   1.487   6.077
 5082SOL    HW127277   4.356   1.429   6.007
 5082SOL    HW227278   4.270   1.566   6.033
 5083SOL     OW27279   5.433   0.385   6.967
 5083SOL    HW127280   5.506   0.454   6.971
 5083SOL    HW227281   5.461   0.310   6.908
 5084SOL     OW27282   3.979   1.348   5.876
 5084SOL    HW127283   3.883   1.349   5.849
 5084SOL    HW227284   3.991   1.401   5.960
 5085SOL     OW27285   5.164   0.856   6.984
 5085SOL    HW127286   5.107   0.908   6.921
 5085SOL    HW227287   5.260   0.868   6.960
 5086SOL     OW27288   3.796   0.166   5.904
 5086SOL    HW127289   3.779   0.249   5.850
 5086SOL    HW227290   3.886   0.129   5.882
 5087SOL     OW27291   4.907   1.335   5.705
 5087SOL    HW127292   4.808   1.324   5.707
 5087SOL    HW227293   4.941   1.350   5.798
 5088SOL     OW27294   4.337   0.842   7.017
 5088SOL    HW127295   4.393   0.923   7.000
 5088SOL    HW227296   4.396   0.762   7.020
 5089SOL     OW27297   5.217   1.767   6.545
 5089SOL    HW127298   5.250   1.831   6.476
 5089SOL    HW227299   5.283   1.761   6.620
 5090SOL     OW27300   4.114   1.741   7.146
 5090SOL    HW127301   4.023   1.782   7.144
 5090SOL    HW227302   4.107   1.647   7.178
 5091SOL     OW27303   5.398   0.883   6.840
 5091SOL    HW127304   5.371   0.794   6.803
 5091SOL    HW227305   5.399   0.951   6.767
 5092SOL     OW27306   4.949   0.325   6.035
 5092SOL    HW127307   5.014   0.251   6.024
 5092SOL    HW227308   4.969   0.375   6.119
 5093SOL     OW27309   4.318   0.745   6.238
 5093SOL    HW127310   4.368   0.830   6.219
 5093SOL    HW227311   4.230   0.747   6.190
 5094SOL     OW27312   5.501   0.342   7.228
 5094SOL    HW127313   5.484   0.373   7.134
 5094SOL    HW227314   5.417   0.305   7.266
 5095SOL     OW27315   5.454   0.934   7.103
 5095SOL    HW127316   5.492   1.025   7.118
 5095SOL    HW227317   5.446   0.917   7.004
 5096SOL     OW27318   4.385   1.790   6.539
 5096SOL    HW127319   4.339   1.878   6.526
 5096SOL    HW227320   4.484   1.802   6.532
 5097SOL     OW27321   4.583   0.956   6.447
 5097SOL    HW127322   4.637   0.887   6.495
 5097SOL    HW227323   4.551   1.025   6.513
 5098SOL     OW27324   5.585   1.569   6.437
 5098SOL    HW127325   5.514   1.557   6.367
 5098SOL    HW227326   5.586   1.490   6.497
 5099SOL     OW27327   3.803   1.240   6.239
 5099SOL    HW127328   3.802   1.193   6.327
 5099SOL    HW227329   3.885   1.212   6.188
 5100SOL     OW27330   5.548   0.192   6.813
 5100SOL    HW127331   5.544   0.102   6.857
 5100SOL    HW227332   5.551   0.181   6.714
 5101SOL     OW27333   4.152   0.424   6.106
 5101SOL    HW127334   4.182   0.352   6.044
 5101SOL    HW227335   4.113   0.384   6.189
 5102SOL     OW27336   5.429   1.487   6.690
 5102SOL    HW127337   5.336   1.462   6.663
 5102SOL    HW227338   5.455   1.437   6.772
 5103SOL     OW27339   4.041   0.547   6.866
 5103SOL    HW127340   4.079   0.488   6.938
 5103SOL    HW227341   4.081   0.521   6.778
 5104SOL     OW27342   4.536   1.586   6.273
 5104SOL    HW127343   4.568   1.596   6.179
 5104SOL    HW227344   4.457   1.524   6.275
 5105SOL     OW27345   5.148   0.214   6.698
 5105SOL    HW127346   5.200   0.149   6.753
 5105SOL    HW227347   5.099   0.277   6.759
 5106SOL     OW27348   4.725   0.034   6.740
 5106SOL    HW127349   4.662  -0.038   6.709
 5106SOL    HW227350   4.818  -0.002   6.740
 5107SOL     OW27351   4.494   1.330   5.887
 5107SOL    HW127352   4.448   1.243   5.904
 5107SOL    HW227353   4.585   1.327   5.928
 5108SOL     OW27354   4.342   1.567   6.870
 5108SOL    HW127355   4.337   1.649   6.927
 5108SOL    HW227356   4.431   1.564   6.825
 5109SOL     OW27357   5.076   0.052   5.754
 5109SOL    HW127358   5.111   0.011   5.670
 5109SOL    HW227359   4.986   0.014   5.774
 5110SOL     OW27360   5.024   0.453   6.277
 5110SOL    HW127361   4.965   0.533   6.281
 5110SOL    HW227362   5.039   0.418   6.370
 5111SOL     OW27363   5.317   0.221   6.468
 5111SOL    HW127364   5.233   0.220   6.522
 5111SOL    HW227365   5.319   0.304   6.412
 5112SOL     OW27366   3.763   1.077   5.886
 5112SOL    HW127367   3.862   1.066   5.877
 5112SOL    HW227368   3.723   0.991   5.918
 5113SOL     OW27369   3.954   2.490   0.113
 5113SOL    HW127370   3.861   2.488   0.150
 5113SOL    HW227371   3.955   2.451   0.021
 5114SOL     OW27372   3.949   2.137   0.996
 5114SOL    HW127373   3.984   2.120   1.088
 5114SOL    HW227374   3.861   2.092   0.984
 5115SOL     OW27375   3.743   2.230   0.647
 5115SOL    HW127376   3.661   2.273   0.686
 5115SOL    HW227377   3.715   2.157   0.584
 5116SOL     OW27378   4.293   3.137   1.165
 5116SOL    HW127379   4.200   3.130   1.128
 5116SOL    HW227380   4.304   3.226   1.209
 5117SOL     OW27381   5.279   3.373   0.703
 5117SOL    HW127382   5.222   3.357   0.784
 5117SOL    HW227383   5.220   3.383   0.623
 5118SOL     OW27384   4.859   2.565   0.717
 5118SOL    HW127385   4.916   2.643   0.692
 5118SOL    HW227386   4.799   2.591   0.793
 5119SOL     OW27387   5.479   2.469   0.231
 5119SOL    HW127388   5.467   2.456   0.132
 5119SOL    HW227389   5.449   2.388   0.280
 5120SOL     OW27390   4.492   3.006   1.023
 5120SOL    HW127391   4.414   3.023   1.083
 5120SOL    HW227392   4.526   3.093   0.987
 5121SOL     OW27393   4.409   2.874   0.665
 5121SOL    HW127394   4.478   2.858   0.735
 5121SOL    HW227395   4.336   2.931   0.703
 5122SOL     OW27396   4.410   3.023   1.803
 5122SOL    HW127397   4.470   3.102   1.817
 5122SOL    HW227398   4.324   3.054   1.762
 5123SOL     OW27399   4.059   3.297   1.061
 5123SOL    HW127400   3.981   3.266   1.008
 5123SOL    HW227401   4.117   3.355   1.004
 5124SOL     OW27402   5.184   3.367   1.339
 5124SOL    HW127403   5.208   3.461   1.365
 5124SOL    HW227404   5.168   3.313   1.421
 5125SOL     OW27405   4.162   2.254   1.499
 5125SOL    HW127406   4.244   2.198   1.508
 5125SOL    HW227407   4.081   2.196   1.503
 5126SOL     OW27408   5.327   2.309   0.737
 5126SOL    HW127409   5.253   2.355   0.687
 5126SOL    HW227410   5.378   2.377   0.790
 5127SOL     OW27411   3.955   3.575   0.483
 5127SOL    HW127412   3.989   3.652   0.537
 5127SOL    HW227413   3.999   3.575   0.393
 5128SOL     OW27414   3.954   3.296   0.538
 5128SOL    HW127415   3.928   3.392   0.538
 5128SOL    HW227416   3.883   3.242   0.583
 5129SOL     OW27417   3.964   2.953   0.886
 5129SOL    HW127418   3.978   2.869   0.938
 5129SOL    HW227419   3.909   3.017   0.941
 5130SOL     OW27420   4.344   3.648   1.439
 5130SOL    HW127421   4.252   3.631   1.474
 5130SOL    HW227422   4.372   3.740   1.465
 5131SOL     OW27423   4.330   2.826   0.123
 5131SOL    HW127424   4.337   2.910   0.069
 5131SOL    HW227425   4.376   2.839   0.211
 5132SOL     OW27426   5.318   1.976   1.480
 5132SOL    HW127427   5.300   2.043   1.408
 5132SOL    HW227428   5.315   2.022   1.569
 5133SOL     OW27429   3.846   2.505   0.563
 5133SOL    HW127430   3.801   2.417   0.580
 5133SOL    HW227431   3.845   2.559   0.647
 5134SOL     OW27432   5.566   3.629   0.359
 5134SOL    HW127433   5.620   3.600   0.439
 5134SOL    HW227434   5.596   3.719   0.330
 5135SOL     OW27435   3.751   3.458   0.117
 5135SOL    HW127436   3.732   3.362   0.138
 5135SOL    HW227437   3.718   3.516   0.192
 5136SOL     OW27438   5.413   2.784   0.612
 5136SOL    HW127439   5.508   2.755   0.620
 5136SOL    HW227440   5.405   2.849   0.537
 5137SOL     OW27441   5.365   2.970   0.432
 5137SOL    HW127442   5.451   2.972   0.380
 5137SOL    HW227443   5.379   3.017   0.520
 5138SOL     OW27444   3.837   2.599   1.597
 5138SOL    HW127445   3.925   2.586   1.642
 5138SOL    HW227446   3.824   2.696   1.575
 5139SOL     OW27447   4.337   3.227   0.726
 5139SOL    HW127448   4.288   3.140   0.735
 5139SOL    HW227449   4.314   3.270   0.639
 5140SOL     OW27450   5.017   3.090   1.423
 5140SOL    HW127451   5.054   3.017   1.365
 5140SOL    HW227452   5.069   3.095   1.508
 5141SOL     OW27453   4.533   1.866   0.502
 5141SOL    HW127454   4.573   1.957   0.493
 5141SOL    HW227455   4.433   1.874   0.508
 5142SOL     OW27456   3.921   2.838   1.264
 5142SOL    HW127457   4.010   2.793   1.250
 5142SOL    HW227458   3.848   2.773   1.245
 5143SOL     OW27459   5.249   2.861   0.190
 5143SOL    HW127460   5.186   2.785   0.203
 5143SOL    HW227461   5.297   2.879   0.276
 5144SOL     OW27462   4.911   3.654   1.616
 5144SOL    HW127463   4.935   3.714   1.540
 5144SOL    HW227464   4.918   3.559   1.586
 5145SOL     OW27465   4.041   2.113   1.801
 5145SOL    HW127466   4.112   2.184   1.807
 5145SOL    HW227467   3.953   2.152   1.829
 5146SOL     OW27468   5.190   3.279   0.953
 5146SOL    HW127469   5.131   3.285   1.033
 5146SOL    HW227470   5.175   3.191   0.907
 5147SOL     OW27471   5.391   3.576   0.572
 5147SOL    HW127472   5.350   3.553   0.484
 5147SOL    HW227473   5.373   3.502   0.637
 5148SOL     OW27474   4.322   2.591   0.270
 5148SOL    HW127475   4.346   2.660   0.202
 5148SOL    HW227476   4.244   2.624   0.324
 5149SOL     OW27477   5.005   2.207   0.944
 5149SOL    HW127478   4.919   2.157   0.931
 5149SOL    HW227479   5.067   2.153   1.000
 5150SOL     OW27480   5.300   3.524   0.307
 5150SOL    HW127481   5.389   3.570   0.310
 5150SOL    HW227482   5.279   3.500   0.212
 5151SOL     OW27483   4.531   2.467   1.465
 5151SOL    HW127484   4.484   2.464   1.554
 5151SOL    HW227485   4.480   2.412   1.399
 5152SOL     OW27486   4.697   2.752   1.572
 5152SOL    HW127487   4.743   2.668   1.543
 5152SOL    HW227488   4.641   2.786   1.497
 5153SOL     OW27489   4.715   2.272   1.242
 5153SOL    HW127490   4.638   2.306   1.296
 5153SOL    HW227491   4.681   2.221   1.163
 5154SOL     OW27492   4.765   2.563   0.429
 5154SOL    HW127493   4.791   2.559   0.525
 5154SOL    HW227494   4.680   2.512   0.415
 5155SOL     OW27495   3.800   2.673   0.789
 5155SOL    HW127496   3.899   2.661   0.798
 5155SOL    HW227497   3.776   2.768   0.810
 5156SOL     OW27498   4.589   2.210   0.195
 5156SOL    HW127499   4.648   2.273   0.146
 5156SOL    HW227500   4.608   2.116   0.166
 5157SOL     OW27501   5.086   3.006   0.545
 5157SOL    HW127502   5.169   2.977   0.497
 5157SOL    HW227503   5.037   3.073   0.489
 5158SOL     OW27504   4.274   2.058   0.885
 5158SOL    HW127505   4.269   2.053   0.985
 5158SOL    HW227506   4.276   2.154   0.856
 5159SOL     OW27507   4.732   3.318   0.477
 5159SOL    HW127508   4.686   3.390   0.425
 5159SOL    HW227509   4.728   3.338   0.575
 5160SOL     OW27510   4.075   3.663   0.853
 5160SOL    HW127511   4.125   3.577   0.859
 5160SOL    HW227512   4.140   3.740   0.850
 5161SOL     OW27513   5.519   2.928   0.873
 5161SOL    HW127514   5.457   2.913   0.797
 5161SOL    HW227515   5.467   2.939   0.958
 5162SOL     OW27516   4.951   3.412   1.506
 5162SOL    HW127517   4.957   3.335   1.570
 5162SOL    HW227518   4.899   3.386   1.426
 5163SOL     OW27519   4.045   2.805   0.242
 5163SOL    HW127520   4.127   2.844   0.200
 5163SOL    HW227521   4.018   2.723   0.193
 5164SOL     OW27522   5.182   2.597   0.728
 5164SOL    HW127523   5.177   2.532   0.803
 5164SOL    HW227524   5.262   2.656   0.741
 5165SOL     OW27525   4.185   3.128   1.727
 5165SOL    HW127526   4.135   3.129   1.641
 5165SOL    HW227527   4.122   3.110   1.803
 5166SOL     OW27528   4.835   3.638   0.237
 5166SOL    HW127529   4.775   3.576   0.287
 5166SOL    HW227530   4.866   3.594   0.152
 5167SOL     OW27531   3.926   2.147   1.498
 5167SOL    HW127532   3.846   2.207   1.485
 5167SOL    HW227533   3.916   2.098   1.584
 5168SOL     OW27534   5.356   3.239   0.081
 5168SOL    HW127535   5.324   3.333   0.071
 5168SOL    HW227536   5.280   3.176   0.069
 5169SOL     OW27537   4.188   3.605   0.323
 5169SOL    HW127538   4.221   3.644   0.409
 5169SOL    HW227539   4.264   3.598   0.258
 5170SOL     OW27540   5.124   1.969   0.426
 5170SOL    HW127541   5.100   1.932   0.336
 5170SOL    HW227542   5.223   1.985   0.430
 5171SOL     OW27543   3.973   3.647   1.241
 5171SOL    HW127544   4.030   3.582   1.291
 5171SOL    HW227545   3.957   3.614   1.148
 5172SOL     OW27546   4.664   3.560   0.904
 5172SOL    HW127547   4.744   3.503   0.925
 5172SOL    HW227548   4.615   3.520   0.827
 5173SOL     OW27549   4.106   2.562   0.480
 5173SOL    HW127550   4.151   2.472   0.477
 5173SOL    HW227551   4.012   2.551   0.513
 5174SOL     OW27552   4.338   1.984   0.117
 5174SOL    HW127553   4.436   1.962   0.124
 5174SOL    HW227554   4.307   1.967   0.024
 5175SOL     OW27555   4.505   2.126   1.749
 5175SOL    HW127556   4.572   2.065   1.792
 5175SOL    HW227557   4.432   2.145   1.814
 5176SOL     OW27558   5.075   2.452   1.433
 5176SOL    HW127559   5.103   2.409   1.518
 5176SOL    HW227560   5.100   2.548   1.434
 5177SOL     OW27561   4.527   3.264   0.924
 5177SOL    HW127562   4.617   3.278   0.882
 5177SOL    HW227563   4.456   3.266   0.853
 5178SOL     OW27564   4.646   2.365   0.899
 5178SOL    HW127565   4.621   2.356   0.803
 5178SOL    HW227566   4.694   2.283   0.930
 5179SOL     OW27567   4.263   1.926   0.512
 5179SOL    HW127568   4.182   1.927   0.570
 5179SOL    HW227569   4.266   2.009   0.457
 5180SOL     OW27570   5.158   3.050   0.041
 5180SOL    HW127571   5.190   2.974   0.098
 5180SOL    HW227572   5.066   3.077   0.071
 5181SOL     OW27573   4.021   1.897   0.171
 5181SOL    HW127574   4.070   1.981   0.150
 5181SOL    HW227575   4.083   1.832   0.216
 5182SOL     OW27576   4.659   2.098   0.480
 5182SOL    HW127577   4.611   2.139   0.402
 5182SOL    HW227578   4.758   2.096   0.461
 5183SOL     OW27579   4.800   2.545   1.464
 5183SOL    HW127580   4.720   2.484   1.467
 5183SOL    HW227581   4.881   2.492   1.440
 5184SOL     OW27582   4.951   3.432   0.793
 5184SOL    HW127583   4.972   3.506   0.728
 5184SOL    HW227584   5.019   3.432   0.866
 5185SOL     OW27585   4.183   3.014   0.741
 5185SOL    HW127586   4.112   2.987   0.806
 5185SOL    HW227587   4.157   2.986   0.648
 5186SOL     OW27588   4.995   3.659   0.591
 5186SOL    HW127589   5.039   3.723   0.527
 5186SOL    HW227590   4.945   3.711   0.661
 5187SOL     OW27591   4.756   2.411   0.016
 5187SOL    HW127592   4.715   2.493  -0.023
 5187SOL    HW227593   4.820   2.437   0.089
 5188SOL     OW27594   3.802   2.418   1.386
 5188SOL    HW127595   3.894   2.417   1.345
 5188SOL    HW227596   3.796   2.492   1.453
 5189SOL     OW27597   4.285   2.084   1.147
 5189SOL    HW127598   4.323   2.000   1.184
 5189SOL    HW227599   4.197   2.103   1.191
 5190SOL     OW27600   4.590   2.316   0.642
 5190SOL    HW127601   4.558   2.388   0.580
 5190SOL    HW227602   4.614   2.235   0.589
 5191SOL     OW27603   4.741   1.901   0.753
 5191SOL    HW127604   4.669   1.906   0.684
 5191SOL    HW227605   4.717   1.832   0.822
 5192SOL     OW27606   5.153   3.035   0.867
 5192SOL    HW127607   5.098   2.951   0.860
 5192SOL    HW227608   5.179   3.064   0.775
 5193SOL     OW27609   5.190   2.452   0.992
 5193SOL    HW127610   5.160   2.357   0.999
 5193SOL    HW227611   5.263   2.468   1.058
 5194SOL     OW27612   5.581   2.695   0.377
 5194SOL    HW127613   5.623   2.631   0.441
 5194SOL    HW227614   5.543   2.644   0.299
 5195SOL     OW27615   4.212   3.247   0.174
 5195SOL    HW127616   4.125   3.232   0.221
 5195SOL    HW227617   4.195   3.273   0.079
 5196SOL     OW27618   5.388   3.142   0.657
 5196SOL    HW127619   5.487   3.150   0.671
 5196SOL    HW227620   5.343   3.226   0.688
 5197SOL     OW27621   5.114   2.437   0.078
 5197SOL    HW127622   5.060   2.416   0.159
 5197SOL    HW227623   5.205   2.396   0.087
 5198SOL     OW27624   4.251   2.118   0.328
 5198SOL    HW127625   4.278   2.059   0.253
 5198SOL    HW227626   4.251   2.213   0.297
 5199SOL     OW27627   4.835   3.057   1.100
 5199SOL    HW127628   4.795   3.101   1.181
 5199SOL    HW227629   4.794   3.094   1.017
 5200SOL     OW27630   5.362   2.961   1.079
 5200SOL    HW127631   5.367   3.042   1.138
 5200SOL    HW227632   5.276   2.963   1.028
 5201SOL     OW27633   4.429   2.912   0.368
 5201SOL    HW127634   4.415   2.919   0.467
 5201SOL    HW227635   4.513   2.861   0.350
 5202SOL     OW27636   4.134   2.675   1.251
 5202SOL    HW127637   4.220   2.687   1.301
 5202SOL    HW227638   4.092   2.588   1.278
 5203SOL     OW27639   4.998   2.248   1.262
 5203SOL    HW127640   5.019   2.322   1.326
 5203SOL    HW227641   4.909   2.265   1.219
 5204SOL     OW27642   3.788   3.426   1.331
 5204SOL    HW127643   3.742   3.508   1.297
 5204SOL    HW227644   3.886   3.445   1.340
 5205SOL     OW27645   4.091   2.962   0.501
 5205SOL    HW127646   4.084   3.045   0.445
 5205SOL    HW227647   4.095   2.882   0.441
 5206SOL     OW27648   4.290   2.399   0.865
 5206SOL    HW127649   4.302   2.465   0.791
 5206SOL    HW227650   4.336   2.433   0.948
 5207SOL     OW27651   4.976   3.210   0.388
 5207SOL    HW127652   5.026   3.287   0.428
 5207SOL    HW227653   4.881   3.212   0.420
 5208SOL     OW27654   4.996   3.307   1.142
 5208SOL    HW127655   5.043   3.320   1.229
 5208SOL    HW227656   4.930   3.233   1.151
 5209SOL     OW27657   5.306   2.501   0.472
 5209SOL    HW127658   5.275   2.562   0.545
 5209SOL    HW227659   5.356   2.553   0.403
 5210SOL     OW27660   4.078   3.372   1.329
 5210SOL    HW127661   4.057   3.328   1.242
 5210SOL    HW227662   4.175   3.398   1.332
 5211SOL     OW27663   4.126   2.613   1.598
 5211SOL    HW127664   4.194   2.668   1.551
 5211SOL    HW227665   4.166   2.525   1.625
 5212SOL     OW27666   5.311   2.641   1.670
 5212SOL    HW127667   5.219   2.679   1.665
 5212SOL    HW227668   5.371   2.688   1.605
 5213SOL     OW27669   4.228   1.912   1.740
 5213SOL    HW127670   4.186   1.855   1.670
 5213SOL    HW227671   4.162   1.981   1.772
 5214SOL     OW27672   4.297   2.732   1.029
 5214SOL    HW127673   4.341   2.821   1.020
 5214SOL    HW227674   4.234   2.732   1.106
 5215SOL     OW27675   5.084   2.724   1.045
 5215SOL    HW127676   5.009   2.724   0.979
 5215SOL    HW227677   5.121   2.632   1.054
 5216SOL     OW27678   4.933   2.387   0.275
 5216SOL    HW127679   4.946   2.303   0.329
 5216SOL    HW227680   4.904   2.461   0.335
 5217SOL     OW27681   4.031   2.075   1.231
 5217SOL    HW127682   4.008   2.112   1.321
 5217SOL    HW227683   4.001   1.980   1.225
 5218SOL     OW27684   3.761   3.172   1.282
 5218SOL    HW127685   3.814   3.123   1.350
 5218SOL    HW227686   3.783   3.270   1.287
 5219SOL     OW27687   4.456   2.496   1.064
 5219SOL    HW127688   4.515   2.470   0.988
 5219SOL    HW227689   4.428   2.592   1.053
 5220SOL     OW27690   4.031   1.925   0.618
 5220SOL    HW127691   4.020   2.019   0.651
 5220SOL    HW227692   4.026   1.862   0.695
 5221SOL     OW27693   5.346   2.229   0.374
 5221SOL    HW127694   5.348   2.153   0.438
 5221SOL    HW227695   5.298   2.306   0.414
 5222SOL     OW27696   4.747   2.628   0.966
 5222SOL    HW127697   4.762   2.649   1.062
 5222SOL    HW227698   4.717   2.533   0.957
 5223SOL     OW27699   4.704   3.435   1.700
 5223SOL    HW127700   4.684   3.479   1.612
 5223SOL    HW227701   4.743   3.344   1.684
 5224SOL     OW27702   5.583   3.380   1.605
 5224SOL    HW127703   5.597   3.407   1.510
 5224SOL    HW227704   5.666   3.402   1.658
 5225SOL     OW27705   4.074   2.760   1.804
 5225SOL    HW127706   4.150   2.804   1.852
 5225SOL    HW227707   4.109   2.713   1.722
 5226SOL     OW27708   5.264   2.136   0.125
 5226SOL    HW127709   5.203   2.061   0.148
 5226SOL    HW227710   5.286   2.188   0.208
 5227SOL     OW27711   5.027   2.700   0.042
 5227SOL    HW127712   5.061   2.607   0.057
 5227SOL    HW227713   5.045   2.727  -0.053
 5228SOL     OW27714   4.792   3.195   0.849
 5228SOL    HW127715   4.799   3.111   0.794
 5228SOL    HW227716   4.854   3.264   0.813
 5229SOL     OW27717   4.043   2.672   0.949
 5229SOL    HW127718   4.136   2.708   0.954
 5229SOL    HW227719   4.037   2.587   1.001
 5230SOL     OW27720   4.063   2.371   1.006
 5230SOL    HW127721   4.011   2.288   0.989
 5230SOL    HW227722   4.140   2.376   0.942
 5231SOL     OW27723   3.732   3.188   0.200
 5231SOL    HW127724   3.639   3.209   0.169
 5231SOL    HW227725   3.742   3.089   0.213
 5232SOL     OW27726   3.812   3.663   0.927
 5232SOL    HW127727   3.770   3.577   0.900
 5232SOL    HW227728   3.906   3.666   0.893
 5233SOL     OW27729   4.228   3.430   0.910
 5233SOL    HW127730   4.294   3.504   0.919
 5233SOL    HW227731   4.272   3.351   0.868
 5234SOL     OW27732   4.726   2.658   1.238
 5234SOL    HW127733   4.767   2.626   1.324
 5234SOL    HW227734   4.630   2.631   1.235
 5235SOL     OW27735   3.764   2.406   1.114
 5235SOL    HW127736   3.849   2.373   1.073
 5235SOL    HW227737   3.777   2.421   1.212
 5236SOL     OW27738   3.913   2.382   1.722
 5236SOL    HW127739   3.972   2.342   1.652
 5236SOL    HW227740   3.855   2.453   1.681
 5237SOL     OW27741   5.093   2.812   1.660
 5237SOL    HW127742   5.132   2.901   1.680
 5237SOL    HW227743   5.103   2.792   1.563
 5238SOL     OW27744   4.539   2.434   0.325
 5238SOL    HW127745   4.546   2.345   0.279
 5238SOL    HW227746   4.445   2.468   0.317
 5239SOL     OW27747   5.381   2.466   1.206
 5239SOL    HW127748   5.343   2.397   1.268
 5239SOL    HW227749   5.463   2.430   1.162
 5240SOL     OW27750   3.976   3.426   1.744
 5240SOL    HW127751   3.946   3.483   1.820
 5240SOL    HW227752   3.969   3.329   1.770
 5241SOL     OW27753   4.395   2.326   1.269
 5241SOL    HW127754   4.361   2.237   1.239
 5241SOL    HW227755   4.421   2.380   1.189
 5242SOL     OW27756   4.654   3.540   1.465
 5242SOL    HW127757   4.630   3.522   1.370
 5242SOL    HW227758   4.684   3.634   1.475
 5243SOL     OW27759   4.197   2.362   0.191
 5243SOL    HW127760   4.258   2.442   0.195
 5243SOL    HW227761   4.102   2.393   0.198
 5244SOL     OW27762   3.883   2.999   1.466
 5244SOL    HW127763   3.905   2.938   1.542
 5244SOL    HW227764   3.893   2.950   1.380
 5245SOL     OW27765   5.071   2.921   1.234
 5245SOL    HW127766   5.095   2.858   1.160
 5245SOL    HW227767   4.981   2.961   1.216
 5246SOL     OW27768   5.026   2.717   0.309
 5246SOL    HW127769   4.940   2.686   0.351
 5246SOL    HW227770   5.022   2.703   0.210
 5247SOL     OW27771   5.483   3.609   1.154
 5247SOL    HW127772   5.544   3.639   1.081
 5247SOL    HW227773   5.445   3.520   1.132
 5248SOL     OW27774   4.976   3.593   1.128
 5248SOL    HW127775   5.060   3.598   1.074
 5248SOL    HW227776   4.953   3.497   1.146
 5249SOL     OW27777   3.807   3.120   1.022
 5249SOL    HW127778   3.802   3.119   1.122
 5249SOL    HW227779   3.724   3.079   0.984
 5250SOL     OW27780   4.627   1.948   0.133
 5250SOL    HW127781   4.678   1.949   0.047
 5250SOL    HW227782   4.683   1.906   0.204
 5251SOL     OW27783   5.450   1.997   0.523
 5251SOL    HW127784   5.523   1.980   0.456
 5251SOL    HW227785   5.419   1.910   0.561
 5252SOL     OW27786   5.112   3.435   0.477
 5252SOL    HW127787   5.179   3.447   0.403
 5252SOL    HW227788   5.072   3.524   0.500
 5253SOL     OW27789   3.854   3.656   1.851
 5253SOL    HW127790   3.813   3.582   1.904
 5253SOL    HW227791   3.918   3.707   1.909
 5254SOL     OW27792   5.004   2.789   0.672
 5254SOL    HW127793   5.064   2.708   0.674
 5254SOL    HW227794   5.044   2.858   0.612
 5255SOL     OW27795   4.396   3.478   0.154
 5255SOL    HW127796   4.405   3.488   0.055
 5255SOL    HW227797   4.356   3.389   0.175
 5256SOL     OW27798   5.374   3.582   1.394
 5256SOL    HW127799   5.427   3.592   1.310
 5256SOL    HW227800   5.347   3.672   1.428
 5257SOL     OW27801   5.565   2.037   0.963
 5257SOL    HW127802   5.604   1.952   0.927
 5257SOL    HW227803   5.467   2.039   0.944
 5258SOL     OW27804   3.987   2.188   0.720
 5258SOL    HW127805   3.908   2.239   0.686
 5258SOL    HW227806   3.978   2.173   0.818
 5259SOL     OW27807   4.918   3.474   0.031
 5259SOL    HW127808   4.924   3.381   0.068
 5259SOL    HW227809   4.859   3.474  -0.049
 5260SOL     OW27810   4.640   2.772   0.291
 5260SOL    HW127811   4.703   2.810   0.223
 5260SOL    HW227812   4.680   2.689   0.330
 5261SOL     OW27813   5.228   3.469   0.044
 5261SOL    HW127814   5.136   3.506   0.051
 5261SOL    HW227815   5.266   3.489  -0.046
 5262SOL     OW27816   4.096   3.150   1.490
 5262SOL    HW127817   4.083   3.243   1.456
 5262SOL    HW227818   4.012   3.098   1.477
 5263SOL     OW27819   5.338   3.154   1.289
 5263SOL    HW127820   5.398   3.157   1.369
 5263SOL    HW227821   5.263   3.218   1.302
 5264SOL     OW27822   4.763   2.960   0.696
 5264SOL    HW127823   4.693   2.913   0.750
 5264SOL    HW227824   4.822   2.892   0.653
 5265SOL     OW27825   4.738   2.098   0.971
 5265SOL    HW127826   4.730   2.062   0.878
 5265SOL    HW227827   4.736   2.022   1.036
 5266SOL     OW27828   4.314   3.349   0.491
 5266SOL    HW127829   4.356   3.291   0.421
 5266SOL    HW227830   4.270   3.428   0.447
 5267SOL     OW27831   5.433   2.247   1.381
 5267SOL    HW127832   5.506   2.316   1.385
 5267SOL    HW227833   5.461   2.172   1.322
 5268SOL     OW27834   3.979   3.210   0.290
 5268SOL    HW127835   3.883   3.211   0.263
 5268SOL    HW227836   3.991   3.263   0.374
 5269SOL     OW27837   3.829   2.875   1.726
 5269SOL    HW127838   3.752   2.842   1.780
 5269SOL    HW227839   3.914   2.845   1.768
 5270SOL     OW27840   4.396   2.065   1.489
 5270SOL    HW127841   4.486   2.049   1.449
 5270SOL    HW227842   4.404   2.070   1.588
 5271SOL     OW27843   5.164   2.718   1.398
 5271SOL    HW127844   5.107   2.770   1.335
 5271SOL    HW227845   5.260   2.730   1.374
 5272SOL     OW27846   3.796   2.028   0.318
 5272SOL    HW127847   3.779   2.111   0.264
 5272SOL    HW227848   3.886   1.991   0.296
 5273SOL     OW27849   4.907   3.197   0.119
 5273SOL    HW127850   4.808   3.186   0.121
 5273SOL    HW227851   4.941   3.212   0.212
 5274SOL     OW27852   4.337   2.704   1.431
 5274SOL    HW127853   4.393   2.785   1.414
 5274SOL    HW227854   4.396   2.624   1.434
 5275SOL     OW27855   5.217   3.629   0.959
 5275SOL    HW127856   5.250   3.693   0.890
 5275SOL    HW227857   5.283   3.623   1.034
 5276SOL     OW27858   5.174   3.082   1.633
 5276SOL    HW127859   5.165   3.072   1.732
 5276SOL    HW227860   5.270   3.075   1.607
 5277SOL     OW27861   5.398   2.745   1.254
 5277SOL    HW127862   5.371   2.656   1.217
 5277SOL    HW227863   5.399   2.813   1.181
 5278SOL     OW27864   4.949   2.187   0.449
 5278SOL    HW127865   5.014   2.113   0.438
 5278SOL    HW227866   4.969   2.237   0.533
 5279SOL     OW27867   4.318   2.607   0.652
 5279SOL    HW127868   4.368   2.692   0.633
 5279SOL    HW227869   4.230   2.609   0.604
 5280SOL     OW27870   5.501   2.204   1.642
 5280SOL    HW127871   5.484   2.235   1.548
 5280SOL    HW227872   5.417   2.167   1.680
 5281SOL     OW27873   5.454   2.796   1.517
 5281SOL    HW127874   5.492   2.887   1.532
 5281SOL    HW227875   5.446   2.779   1.418
 5282SOL     OW27876   4.583   3.236   0.016
 5282SOL    HW127877   4.537   3.251   0.104
 5282SOL    HW227878   4.627   3.321  -0.014
 5283SOL     OW27879   4.385   3.652   0.953
 5283SOL    HW127880   4.339   3.740   0.940
 5283SOL    HW227881   4.484   3.664   0.946
 5284SOL     OW27882   4.583   2.818   0.861
 5284SOL    HW127883   4.637   2.749   0.909
 5284SOL    HW227884   4.551   2.887   0.927
 5285SOL     OW27885   4.807   2.846   0.087
 5285SOL    HW127886   4.784   2.899   0.005
 5285SOL    HW227887   4.888   2.790   0.068
 5286SOL     OW27888   5.585   3.431   0.851
 5286SOL    HW127889   5.514   3.419   0.781
 5286SOL    HW227890   5.586   3.352   0.911
 5287SOL     OW27891   3.945   3.176   1.844
 5287SOL    HW127892   3.880   3.103   1.823
 5287SOL    HW227893   3.949   3.190   1.942
 5288SOL     OW27894   3.803   3.102   0.653
 5288SOL    HW127895   3.802   3.055   0.741
 5288SOL    HW227896   3.885   3.074   0.602
 5289SOL     OW27897   4.396   3.253   1.624
 5289SOL    HW127898   4.318   3.203   1.662
 5289SOL    HW227899   4.393   3.348   1.655
 5290SOL     OW27900   5.548   2.054   1.227
 5290SOL    HW127901   5.544   1.964   1.271
 5290SOL    HW227902   5.551   2.043   1.128
 5291SOL     OW27903   4.152   2.286   0.520
 5291SOL    HW127904   4.182   2.214   0.458
 5291SOL    HW227905   4.113   2.246   0.603
 5292SOL     OW27906   5.429   3.349   1.104
 5292SOL    HW127907   5.336   3.324   1.077
 5292SOL    HW227908   5.455   3.299   1.186
 5293SOL     OW27909   4.041   2.409   1.280
 5293SOL    HW127910   4.079   2.350   1.352
 5293SOL    HW227911   4.081   2.383   1.192
 5294SOL     OW27912   4.536   3.448   0.687
 5294SOL    HW127913   4.568   3.458   0.593
 5294SOL    HW227914   4.457   3.386   0.689
 5295SOL     OW27915   5.148   2.076   1.112
 5295SOL    HW127916   5.200   2.011   1.167
 5295SOL    HW227917   5.099   2.139   1.173
 5296SOL     OW27918   4.725   1.896   1.154
 5296SOL    HW127919   4.662   1.824   1.123
 5296SOL    HW227920   4.818   1.860   1.154
 5297SOL     OW27921   4.494   3.192   0.301
 5297SOL    HW127922   4.448   3.105   0.318
 5297SOL    HW227923   4.585   3.189   0.342
 5298SOL     OW27924   4.342   3.429   1.284
 5298SOL    HW127925   4.337   3.511   1.341
 5298SOL    HW227926   4.431   3.426   1.239
 5299SOL     OW27927   5.076   1.914   0.168
 5299SOL    HW127928   5.111   1.873   0.084
 5299SOL    HW227929   4.986   1.876   0.188
 5300SOL     OW27930   5.024   2.315   0.691
 5300SOL    HW127931   4.965   2.395   0.695
 5300SOL    HW227932   5.039   2.280   0.784
 5301SOL     OW27933   5.317   2.083   0.882
 5301SOL    HW127934   5.233   2.082   0.936
 5301SOL    HW227935   5.319   2.166   0.826
 5302SOL     OW27936   3.763   2.939   0.300
 5302SOL    HW127937   3.862   2.928   0.291
 5302SOL    HW227938   3.723   2.853   0.332
 5303SOL     OW27939   4.599   3.508   0.337
 5303SOL    HW127940   4.522   3.473   0.283
 5303SOL    HW227941   4.567   3.579   0.399
 5304SOL     OW27942   5.279   3.373   2.565
 5304SOL    HW127943   5.222   3.357   2.646
 5304SOL    HW227944   5.220   3.383   2.485
 5305SOL     OW27945   4.492   3.006   2.885
 5305SOL    HW127946   4.414   3.023   2.945
 5305SOL    HW227947   4.526   3.093   2.849
 5306SOL     OW27948   4.574   2.660   3.685
 5306SOL    HW127949   4.570   2.736   3.750
 5306SOL    HW227950   4.596   2.696   3.594
 5307SOL     OW27951   4.410   3.023   3.665
 5307SOL    HW127952   4.470   3.102   3.679
 5307SOL    HW227953   4.324   3.054   3.624
 5308SOL     OW27954   4.162   2.254   3.361
 5308SOL    HW127955   4.244   2.198   3.370
 5308SOL    HW227956   4.081   2.196   3.365
 5309SOL     OW27957   3.954   3.296   2.400
 5309SOL    HW127958   3.928   3.392   2.400
 5309SOL    HW227959   3.883   3.242   2.445
 5310SOL     OW27960   3.964   2.953   2.748
 5310SOL    HW127961   3.978   2.869   2.800
 5310SOL    HW227962   3.909   3.017   2.803
 5311SOL     OW27963   4.344   3.648   3.301
 5311SOL    HW127964   4.252   3.631   3.336
 5311SOL    HW227965   4.372   3.740   3.327
 5312SOL     OW27966   5.318   1.976   3.342
 5312SOL    HW127967   5.300   2.043   3.270
 5312SOL    HW227968   5.315   2.022   3.431
 5313SOL     OW27969   3.846   2.505   2.425
 5313SOL    HW127970   3.801   2.417   2.442
 5313SOL    HW227971   3.845   2.559   2.509
 5314SOL     OW27972   3.751   3.458   1.979
 5314SOL    HW127973   3.732   3.362   2.000
 5314SOL    HW227974   3.718   3.516   2.054
 5315SOL     OW27975   5.413   2.784   2.474
 5315SOL    HW127976   5.508   2.755   2.482
 5315SOL    HW227977   5.405   2.849   2.399
 5316SOL     OW27978   5.365   2.970   2.294
 5316SOL    HW127979   5.451   2.972   2.242
 5316SOL    HW227980   5.379   3.017   2.382
 5317SOL     OW27981   5.190   3.279   2.815
 5317SOL    HW127982   5.131   3.285   2.895
 5317SOL    HW227983   5.175   3.191   2.769
 5318SOL     OW27984   5.005   2.207   2.806
 5318SOL    HW127985   4.919   2.157   2.793
 5318SOL    HW227986   5.067   2.153   2.862
 5319SOL     OW27987   5.300   3.524   2.169
 5319SOL    HW127988   5.389   3.570   2.172
 5319SOL    HW227989   5.279   3.500   2.074
 5320SOL     OW27990   5.118   2.331   3.536
 5320SOL    HW127991   5.098   2.374   3.624
 5320SOL    HW227992   5.196   2.269   3.545
 5321SOL     OW27993   3.854   3.683   3.433
 5321SOL    HW127994   3.844   3.668   3.532
 5321SOL    HW227995   3.768   3.719   3.397
 5322SOL     OW27996   4.589   2.210   2.057
 5322SOL    HW127997   4.648   2.273   2.008
 5322SOL    HW227998   4.608   2.116   2.028
 5323SOL     OW27999   5.443   2.447   3.693
 5323SOL    HW128000   5.417   2.536   3.657
 5323SOL    HW228001   5.441   2.379   3.620
 5324SOL     OW28002   4.045   2.805   2.104
 5324SOL    HW128003   4.127   2.844   2.062
 5324SOL    HW228004   4.018   2.723   2.055
 5325SOL     OW28005   4.835   3.638   2.099
 5325SOL    HW128006   4.775   3.576   2.149
 5325SOL    HW228007   4.866   3.594   2.014
 5326SOL     OW28008   4.338   1.984   1.979
 5326SOL    HW128009   4.436   1.962   1.986
 5326SOL    HW228010   4.307   1.967   1.886
 5327SOL     OW28011   4.505   2.126   3.611
 5327SOL    HW128012   4.572   2.065   3.654
 5327SOL    HW228013   4.432   2.145   3.676
 5328SOL     OW28014   5.075   2.452   3.295
 5328SOL    HW128015   5.103   2.409   3.380
 5328SOL    HW228016   5.100   2.548   3.296
 5329SOL     OW28017   4.646   2.365   2.761
 5329SOL    HW128018   4.621   2.356   2.665
 5329SOL    HW228019   4.694   2.283   2.792
 5330SOL     OW28020   4.183   3.014   2.603
 5330SOL    HW128021   4.112   2.987   2.668
 5330SOL    HW228022   4.157   2.986   2.510
 5331SOL     OW28023   5.153   3.035   2.729
 5331SOL    HW128024   5.098   2.951   2.722
 5331SOL    HW228025   5.179   3.064   2.637
 5332SOL     OW28026   4.251   2.118   2.190
 5332SOL    HW128027   4.278   2.059   2.115
 5332SOL    HW228028   4.251   2.213   2.159
 5333SOL     OW28029   4.639   1.951   3.264
 5333SOL    HW128030   4.664   1.931   3.169
 5333SOL    HW228031   4.711   2.007   3.306
 5334SOL     OW28032   5.306   2.501   2.334
 5334SOL    HW128033   5.275   2.562   2.407
 5334SOL    HW228034   5.356   2.553   2.265
 5335SOL     OW28035   4.078   3.372   3.191
 5335SOL    HW128036   4.057   3.328   3.104
 5335SOL    HW228037   4.175   3.398   3.194
 5336SOL     OW28038   4.737   1.967   3.632
 5336SOL    HW128039   4.743   2.052   3.580
 5336SOL    HW228040   4.769   1.891   3.575
 5337SOL     OW28041   4.031   1.925   2.480
 5337SOL    HW128042   4.020   2.019   2.513
 5337SOL    HW228043   4.026   1.862   2.557
 5338SOL     OW28044   4.704   3.435   3.562
 5338SOL    HW128045   4.684   3.479   3.474
 5338SOL    HW228046   4.743   3.344   3.546
 5339SOL     OW28047   4.063   2.371   2.868
 5339SOL    HW128048   4.011   2.288   2.851
 5339SOL    HW228049   4.140   2.376   2.804
 5340SOL     OW28050   3.732   3.188   2.062
 5340SOL    HW128051   3.639   3.209   2.031
 5340SOL    HW228052   3.742   3.089   2.075
 5341SOL     OW28053   4.726   2.658   3.100
 5341SOL    HW128054   4.767   2.626   3.186
 5341SOL    HW228055   4.630   2.631   3.097
 5342SOL     OW28056   4.654   3.540   3.327
 5342SOL    HW128057   4.630   3.522   3.232
 5342SOL    HW228058   4.684   3.634   3.337
 5343SOL     OW28059   3.883   2.999   3.328
 5343SOL    HW128060   3.905   2.938   3.404
 5343SOL    HW228061   3.893   2.950   3.242
 5344SOL     OW28062   3.807   3.120   2.884
 5344SOL    HW128063   3.802   3.119   2.984
 5344SOL    HW228064   3.724   3.079   2.846
 5345SOL     OW28065   4.412   3.524   3.578
 5345SOL    HW128066   4.356   3.605   3.587
 5345SOL    HW228067   4.464   3.528   3.492
 5346SOL     OW28068   4.396   3.478   2.016
 5346SOL    HW128069   4.405   3.488   1.917
 5346SOL    HW228070   4.356   3.389   2.037
 5347SOL     OW28071   5.374   3.582   3.256
 5347SOL    HW128072   5.427   3.592   3.172
 5347SOL    HW228073   5.347   3.672   3.290
 5348SOL     OW28074   3.987   2.188   2.582
 5348SOL    HW128075   3.908   2.239   2.548
 5348SOL    HW228076   3.978   2.173   2.680
 5349SOL     OW28077   4.546   2.864   3.234
 5349SOL    HW128078   4.586   2.863   3.142
 5349SOL    HW228079   4.556   2.956   3.274
 5350SOL     OW28080   4.640   2.772   2.153
 5350SOL    HW128081   4.703   2.810   2.085
 5350SOL    HW228082   4.680   2.689   2.192
 5351SOL     OW28083   5.338   3.154   3.151
 5351SOL    HW128084   5.398   3.157   3.231
 5351SOL    HW228085   5.263   3.218   3.164
 5352SOL     OW28086   4.763   2.960   2.558
 5352SOL    HW128087   4.693   2.913   2.612
 5352SOL    HW228088   4.822   2.892   2.515
 5353SOL     OW28089   4.396   2.065   3.351
 5353SOL    HW128090   4.486   2.049   3.311
 5353SOL    HW228091   4.404   2.070   3.450
 5354SOL     OW28092   3.799   2.207   1.895
 5354SOL    HW128093   3.707   2.179   1.866
 5354SOL    HW228094   3.830   2.284   1.839
 5355SOL     OW28095   5.164   2.718   3.260
 5355SOL    HW128096   5.107   2.770   3.197
 5355SOL    HW228097   5.260   2.730   3.236
 5356SOL     OW28098   5.217   3.629   2.821
 5356SOL    HW128099   5.250   3.693   2.752
 5356SOL    HW228100   5.283   3.623   2.896
 5357SOL     OW28101   4.114   3.603   3.422
 5357SOL    HW128102   4.023   3.644   3.420
 5357SOL    HW228103   4.107   3.509   3.454
 5358SOL     OW28104   5.398   2.745   3.116
 5358SOL    HW128105   5.371   2.656   3.079
 5358SOL    HW228106   5.399   2.813   3.043
 5359SOL     OW28107   5.501   2.204   3.504
 5359SOL    HW128108   5.484   2.235   3.410
 5359SOL    HW228109   5.417   2.167   3.542
 5360SOL     OW28110   4.583   3.236   1.878
 5360SOL    HW128111   4.537   3.251   1.966
 5360SOL    HW228112   4.627   3.321   1.848
 5361SOL     OW28113   3.945   3.176   3.706
 5361SOL    HW128114   3.880   3.103   3.685
 5361SOL    HW228115   3.949   3.190   3.804
 5362SOL     OW28116   4.396   3.253   3.486
 5362SOL    HW128117   4.318   3.203   3.524
 5362SOL    HW228118   4.393   3.348   3.517
 5363SOL     OW28119   4.152   2.286   2.382
 5363SOL    HW128120   4.182   2.214   2.320
 5363SOL    HW228121   4.113   2.246   2.465
 5364SOL     OW28122   5.429   3.349   2.966
 5364SOL    HW128123   5.336   3.324   2.939
 5364SOL    HW228124   5.455   3.299   3.048
 5365SOL     OW28125   5.148   2.076   2.974
 5365SOL    HW128126   5.200   2.011   3.029
 5365SOL    HW228127   5.099   2.139   3.035
 5366SOL     OW28128   4.342   3.429   3.146
 5366SOL    HW128129   4.337   3.511   3.203
 5366SOL    HW228130   4.431   3.426   3.101
 5367SOL     OW28131   5.076   1.914   2.030
 5367SOL    HW128132   5.111   1.873   1.946
 5367SOL    HW228133   4.986   1.876   2.050
 5368SOL     OW28134   3.763   2.939   2.162
 5368SOL    HW128135   3.862   2.928   2.153
 5368SOL    HW228136   3.723   2.853   2.194
 5369SOL     OW28137   3.743   2.230   4.371
 5369SOL    HW128138   3.661   2.273   4.410
 5369SOL    HW228139   3.715   2.157   4.308
 5370SOL     OW28140   5.479   2.469   3.955
 5370SOL    HW128141   5.467   2.456   3.856
 5370SOL    HW228142   5.449   2.388   4.004
 5371SOL     OW28143   4.409   2.874   4.389
 5371SOL    HW128144   4.478   2.858   4.459
 5371SOL    HW228145   4.336   2.931   4.427
 5372SOL     OW28146   4.162   2.254   5.223
 5372SOL    HW128147   4.244   2.198   5.232
 5372SOL    HW228148   4.081   2.196   5.227
 5373SOL     OW28149   3.955   3.575   4.207
 5373SOL    HW128150   3.989   3.652   4.261
 5373SOL    HW228151   3.999   3.575   4.117
 5374SOL     OW28152   5.566   3.629   4.083
 5374SOL    HW128153   5.620   3.600   4.163
 5374SOL    HW228154   5.596   3.719   4.054
 5375SOL     OW28155   3.751   3.458   3.841
 5375SOL    HW128156   3.732   3.362   3.862
 5375SOL    HW228157   3.718   3.516   3.916
 5376SOL     OW28158   3.837   2.599   5.321
 5376SOL    HW128159   3.925   2.586   5.366
 5376SOL    HW228160   3.824   2.696   5.299
 5377SOL     OW28161   4.041   2.113   5.525
 5377SOL    HW128162   4.112   2.184   5.531
 5377SOL    HW228163   3.953   2.152   5.553
 5378SOL     OW28164   5.190   3.279   4.677
 5378SOL    HW128165   5.131   3.285   4.757
 5378SOL    HW228166   5.175   3.191   4.631
 5379SOL     OW28167   4.531   2.467   5.189
 5379SOL    HW128168   4.484   2.464   5.278
 5379SOL    HW228169   4.480   2.412   5.123
 5380SOL     OW28170   4.715   2.272   4.966
 5380SOL    HW128171   4.638   2.306   5.020
 5380SOL    HW228172   4.681   2.221   4.887
 5381SOL     OW28173   4.589   2.210   3.919
 5381SOL    HW128174   4.648   2.273   3.870
 5381SOL    HW228175   4.608   2.116   3.890
 5382SOL     OW28176   4.274   2.058   4.609
 5382SOL    HW128177   4.269   2.053   4.709
 5382SOL    HW228178   4.276   2.154   4.580
 5383SOL     OW28179   4.732   3.318   4.201
 5383SOL    HW128180   4.686   3.390   4.149
 5383SOL    HW228181   4.728   3.338   4.299
 5384SOL     OW28182   5.519   2.928   4.597
 5384SOL    HW128183   5.457   2.913   4.521
 5384SOL    HW228184   5.467   2.939   4.682
 5385SOL     OW28185   4.045   2.805   3.966
 5385SOL    HW128186   4.127   2.844   3.924
 5385SOL    HW228187   4.018   2.723   3.917
 5386SOL     OW28188   4.185   3.128   5.451
 5386SOL    HW128189   4.135   3.129   5.365
 5386SOL    HW228190   4.122   3.110   5.527
 5387SOL     OW28191   5.356   3.239   3.805
 5387SOL    HW128192   5.324   3.333   3.795
 5387SOL    HW228193   5.280   3.176   3.793
 5388SOL     OW28194   5.124   1.969   4.150
 5388SOL    HW128195   5.100   1.932   4.060
 5388SOL    HW228196   5.223   1.985   4.154
 5389SOL     OW28197   4.612   3.376   4.919
 5389SOL    HW128198   4.589   3.351   4.825
 5389SOL    HW228199   4.673   3.307   4.958
 5390SOL     OW28200   4.800   2.545   5.188
 5390SOL    HW128201   4.720   2.484   5.191
 5390SOL    HW228202   4.881   2.492   5.164
 5391SOL     OW28203   4.756   2.411   3.740
 5391SOL    HW128204   4.715   2.493   3.701
 5391SOL    HW228205   4.820   2.437   3.813
 5392SOL     OW28206   3.802   2.418   5.110
 5392SOL    HW128207   3.894   2.417   5.069
 5392SOL    HW228208   3.796   2.492   5.177
 5393SOL     OW28209   4.741   1.901   4.477
 5393SOL    HW128210   4.669   1.906   4.408
 5393SOL    HW228211   4.717   1.832   4.546
 5394SOL     OW28212   5.153   3.035   4.591
 5394SOL    HW128213   5.098   2.951   4.584
 5394SOL    HW228214   5.179   3.064   4.499
 5395SOL     OW28215   5.581   2.695   4.101
 5395SOL    HW128216   5.623   2.631   4.165
 5395SOL    HW228217   5.543   2.644   4.023
 5396SOL     OW28218   4.212   3.247   3.898
 5396SOL    HW128219   4.125   3.232   3.945
 5396SOL    HW228220   4.195   3.273   3.803
 5397SOL     OW28221   5.114   2.437   3.802
 5397SOL    HW128222   5.060   2.416   3.883
 5397SOL    HW228223   5.205   2.396   3.811
 5398SOL     OW28224   5.362   2.961   4.803
 5398SOL    HW128225   5.367   3.042   4.862
 5398SOL    HW228226   5.276   2.963   4.752
 5399SOL     OW28227   4.704   2.978   5.443
 5399SOL    HW128228   4.605   2.984   5.453
 5399SOL    HW228229   4.727   2.898   5.387
 5400SOL     OW28230   4.998   2.248   4.986
 5400SOL    HW128231   5.019   2.322   5.050
 5400SOL    HW228232   4.909   2.265   4.943
 5401SOL     OW28233   4.228   1.912   5.464
 5401SOL    HW128234   4.186   1.855   5.394
 5401SOL    HW228235   4.162   1.981   5.496
 5402SOL     OW28236   4.297   2.732   4.753
 5402SOL    HW128237   4.341   2.821   4.744
 5402SOL    HW228238   4.234   2.732   4.830
 5403SOL     OW28239   5.084   2.724   4.769
 5403SOL    HW128240   5.009   2.724   4.703
 5403SOL    HW228241   5.121   2.632   4.778
 5404SOL     OW28242   4.933   2.387   3.999
 5404SOL    HW128243   4.946   2.303   4.053
 5404SOL    HW228244   4.904   2.461   4.059
 5405SOL     OW28245   4.031   2.075   4.955
 5405SOL    HW128246   4.008   2.112   5.045
 5405SOL    HW228247   4.001   1.980   4.949
 5406SOL     OW28248   4.456   2.496   4.788
 5406SOL    HW128249   4.515   2.470   4.712
 5406SOL    HW228250   4.428   2.592   4.777
 5407SOL     OW28251   5.452   2.797   5.578
 5407SOL    HW128252   5.406   2.790   5.489
 5407SOL    HW228253   5.390   2.841   5.644
 5408SOL     OW28254   4.031   1.925   4.342
 5408SOL    HW128255   4.020   2.019   4.375
 5408SOL    HW228256   4.026   1.862   4.419
 5409SOL     OW28257   4.747   2.628   4.690
 5409SOL    HW128258   4.762   2.649   4.786
 5409SOL    HW228259   4.717   2.533   4.681
 5410SOL     OW28260   4.704   3.435   5.424
 5410SOL    HW128261   4.684   3.479   5.336
 5410SOL    HW228262   4.743   3.344   5.408
 5411SOL     OW28263   5.583   3.380   5.329
 5411SOL    HW128264   5.597   3.407   5.234
 5411SOL    HW228265   5.666   3.402   5.382
 5412SOL     OW28266   5.264   2.136   3.849
 5412SOL    HW128267   5.203   2.061   3.872
 5412SOL    HW228268   5.286   2.188   3.932
 5413SOL     OW28269   5.027   2.700   3.766
 5413SOL    HW128270   5.061   2.607   3.781
 5413SOL    HW228271   5.045   2.727   3.671
 5414SOL     OW28272   4.726   2.658   4.962
 5414SOL    HW128273   4.767   2.626   5.048
 5414SOL    HW228274   4.630   2.631   4.959
 5415SOL     OW28275   3.913   2.382   5.446
 5415SOL    HW128276   3.972   2.342   5.376
 5415SOL    HW228277   3.855   2.453   5.405
 5416SOL     OW28278   4.539   2.434   4.049
 5416SOL    HW128279   4.546   2.345   4.003
 5416SOL    HW228280   4.445   2.468   4.041
 5417SOL     OW28281   5.381   2.466   4.930
 5417SOL    HW128282   5.343   2.397   4.992
 5417SOL    HW228283   5.463   2.430   4.886
 5418SOL     OW28284   3.976   3.426   5.468
 5418SOL    HW128285   3.946   3.483   5.544
 5418SOL    HW228286   3.969   3.329   5.494
 5419SOL     OW28287   4.395   2.326   4.993
 5419SOL    HW128288   4.361   2.237   4.963
 5419SOL    HW228289   4.421   2.380   4.913
 5420SOL     OW28290   4.197   2.362   3.915
 5420SOL    HW128291   4.258   2.442   3.919
 5420SOL    HW228292   4.102   2.393   3.922
 5421SOL     OW28293   5.450   1.997   4.247
 5421SOL    HW128294   5.523   1.980   4.180
 5421SOL    HW228295   5.419   1.910   4.285
 5422SOL     OW28296   5.112   3.435   4.201
 5422SOL    HW128297   5.179   3.447   4.127
 5422SOL    HW228298   5.072   3.524   4.224
 5423SOL     OW28299   5.374   3.582   5.118
 5423SOL    HW128300   5.427   3.592   5.034
 5423SOL    HW228301   5.347   3.672   5.152
 5424SOL     OW28302   5.565   2.037   4.687
 5424SOL    HW128303   5.604   1.952   4.651
 5424SOL    HW228304   5.467   2.039   4.668
 5425SOL     OW28305   3.987   2.188   4.444
 5425SOL    HW128306   3.908   2.239   4.410
 5425SOL    HW228307   3.978   2.173   4.542
 5426SOL     OW28308   4.640   2.772   4.015
 5426SOL    HW128309   4.703   2.810   3.947
 5426SOL    HW228310   4.680   2.689   4.054
 5427SOL     OW28311   4.096   3.150   5.214
 5427SOL    HW128312   4.083   3.243   5.180
 5427SOL    HW228313   4.012   3.098   5.201
 5428SOL     OW28314   3.829   2.875   5.450
 5428SOL    HW128315   3.752   2.842   5.504
 5428SOL    HW228316   3.914   2.845   5.492
 5429SOL     OW28317   3.796   2.028   4.042
 5429SOL    HW128318   3.779   2.111   3.988
 5429SOL    HW228319   3.886   1.991   4.020
 5430SOL     OW28320   4.337   2.704   5.155
 5430SOL    HW128321   4.393   2.785   5.138
 5430SOL    HW228322   4.396   2.624   5.158
 5431SOL     OW28323   4.807   2.846   3.811
 5431SOL    HW128324   4.784   2.899   3.729
 5431SOL    HW228325   4.888   2.790   3.792
 5432SOL     OW28326   4.536   3.448   4.411
 5432SOL    HW128327   4.568   3.458   4.317
 5432SOL    HW228328   4.457   3.386   4.413
 5433SOL     OW28329   5.148   2.076   4.836
 5433SOL    HW128330   5.200   2.011   4.891
 5433SOL    HW228331   5.099   2.139   4.897
 5434SOL     OW28332   4.725   1.896   4.878
 5434SOL    HW128333   4.662   1.824   4.847
 5434SOL    HW228334   4.818   1.860   4.878
 5435SOL     OW28335   5.076   1.914   3.892
 5435SOL    HW128336   5.111   1.873   3.808
 5435SOL    HW228337   4.986   1.876   3.912
 5436SOL     OW28338   5.024   2.315   4.415
 5436SOL    HW128339   4.965   2.395   4.419
 5436SOL    HW228340   5.039   2.280   4.508
 5437SOL     OW28341   3.954   2.490   5.699
 5437SOL    HW128342   3.861   2.488   5.736
 5437SOL    HW228343   3.955   2.451   5.607
 5438SOL     OW28344   3.949   2.137   6.582
 5438SOL    HW128345   3.984   2.120   6.674
 5438SOL    HW228346   3.861   2.092   6.570
 5439SOL     OW28347   3.743   2.230   6.233
 5439SOL    HW128348   3.661   2.273   6.272
 5439SOL    HW228349   3.715   2.157   6.170
 5440SOL     OW28350   4.293   3.137   6.751
 5440SOL    HW128351   4.200   3.130   6.714
 5440SOL    HW228352   4.304   3.226   6.795
 5441SOL     OW28353   5.279   3.373   6.289
 5441SOL    HW128354   5.222   3.357   6.370
 5441SOL    HW228355   5.220   3.383   6.209
 5442SOL     OW28356   4.859   2.565   6.303
 5442SOL    HW128357   4.916   2.643   6.278
 5442SOL    HW228358   4.799   2.591   6.379
 5443SOL     OW28359   5.479   2.469   5.817
 5443SOL    HW128360   5.467   2.456   5.718
 5443SOL    HW228361   5.449   2.388   5.866
 5444SOL     OW28362   4.492   3.006   6.609
 5444SOL    HW128363   4.414   3.023   6.669
 5444SOL    HW228364   4.526   3.093   6.573
 5445SOL     OW28365   4.409   2.874   6.251
 5445SOL    HW128366   4.478   2.858   6.321
 5445SOL    HW228367   4.336   2.931   6.289
 5446SOL     OW28368   4.059   3.297   6.647
 5446SOL    HW128369   3.981   3.266   6.594
 5446SOL    HW228370   4.117   3.355   6.590
 5447SOL     OW28371   5.184   3.367   6.925
 5447SOL    HW128372   5.208   3.461   6.951
 5447SOL    HW228373   5.168   3.313   7.007
 5448SOL     OW28374   4.162   2.254   7.085
 5448SOL    HW128375   4.244   2.198   7.094
 5448SOL    HW228376   4.081   2.196   7.089
 5449SOL     OW28377   3.955   3.575   6.069
 5449SOL    HW128378   3.989   3.652   6.123
 5449SOL    HW228379   3.999   3.575   5.979
 5450SOL     OW28380   3.954   3.296   6.124
 5450SOL    HW128381   3.928   3.392   6.124
 5450SOL    HW228382   3.883   3.242   6.169
 5451SOL     OW28383   3.964   2.953   6.472
 5451SOL    HW128384   3.978   2.869   6.524
 5451SOL    HW228385   3.909   3.017   6.527
 5452SOL     OW28386   4.344   3.648   7.025
 5452SOL    HW128387   4.252   3.631   7.060
 5452SOL    HW228388   4.372   3.740   7.051
 5453SOL     OW28389   5.318   1.976   7.066
 5453SOL    HW128390   5.300   2.043   6.994
 5453SOL    HW228391   5.315   2.022   7.155
 5454SOL     OW28392   3.846   2.505   6.149
 5454SOL    HW128393   3.801   2.417   6.166
 5454SOL    HW228394   3.845   2.559   6.233
 5455SOL     OW28395   4.337   3.227   6.312
 5455SOL    HW128396   4.288   3.140   6.321
 5455SOL    HW228397   4.314   3.270   6.225
 5456SOL     OW28398   4.533   1.866   6.088
 5456SOL    HW128399   4.573   1.957   6.079
 5456SOL    HW228400   4.433   1.874   6.094
 5457SOL     OW28401   3.921   2.838   6.850
 5457SOL    HW128402   4.010   2.793   6.836
 5457SOL    HW228403   3.848   2.773   6.831
 5458SOL     OW28404   5.190   3.279   6.539
 5458SOL    HW128405   5.131   3.285   6.619
 5458SOL    HW228406   5.175   3.191   6.493
 5459SOL     OW28407   5.391   3.576   6.158
 5459SOL    HW128408   5.350   3.553   6.070
 5459SOL    HW228409   5.373   3.502   6.223
 5460SOL     OW28410   4.322   2.591   5.856
 5460SOL    HW128411   4.346   2.660   5.788
 5460SOL    HW228412   4.244   2.624   5.910
 5461SOL     OW28413   5.005   2.207   6.530
 5461SOL    HW128414   4.919   2.157   6.517
 5461SOL    HW228415   5.067   2.153   6.586
 5462SOL     OW28416   5.300   3.524   5.893
 5462SOL    HW128417   5.389   3.570   5.896
 5462SOL    HW228418   5.279   3.500   5.798
 5463SOL     OW28419   4.531   2.467   7.051
 5463SOL    HW128420   4.484   2.464   7.140
 5463SOL    HW228421   4.480   2.412   6.985
 5464SOL     OW28422   4.715   2.272   6.828
 5464SOL    HW128423   4.638   2.306   6.882
 5464SOL    HW228424   4.681   2.221   6.749
 5465SOL     OW28425   4.765   2.563   6.015
 5465SOL    HW128426   4.791   2.559   6.111
 5465SOL    HW228427   4.680   2.512   6.001
 5466SOL     OW28428   3.800   2.673   6.375
 5466SOL    HW128429   3.899   2.661   6.384
 5466SOL    HW228430   3.776   2.768   6.396
 5467SOL     OW28431   3.854   3.683   7.157
 5467SOL    HW128432   3.844   3.668   7.256
 5467SOL    HW228433   3.768   3.719   7.121
 5468SOL     OW28434   4.589   2.210   5.781
 5468SOL    HW128435   4.648   2.273   5.732
 5468SOL    HW228436   4.608   2.116   5.752
 5469SOL     OW28437   4.274   2.058   6.471
 5469SOL    HW128438   4.269   2.053   6.571
 5469SOL    HW228439   4.276   2.154   6.442
 5470SOL     OW28440   4.732   3.318   6.063
 5470SOL    HW128441   4.686   3.390   6.011
 5470SOL    HW228442   4.728   3.338   6.161
 5471SOL     OW28443   4.075   3.663   6.439
 5471SOL    HW128444   4.125   3.577   6.445
 5471SOL    HW228445   4.140   3.740   6.436
 5472SOL     OW28446   5.519   2.928   6.459
 5472SOL    HW128447   5.457   2.913   6.383
 5472SOL    HW228448   5.467   2.939   6.544
 5473SOL     OW28449   3.926   2.147   7.084
 5473SOL    HW128450   3.846   2.207   7.071
 5473SOL    HW228451   3.916   2.098   7.170
 5474SOL     OW28452   3.973   3.647   6.827
 5474SOL    HW128453   4.030   3.582   6.877
 5474SOL    HW228454   3.957   3.614   6.734
 5475SOL     OW28455   4.664   3.560   6.490
 5475SOL    HW128456   4.744   3.503   6.511
 5475SOL    HW228457   4.615   3.520   6.413
 5476SOL     OW28458   4.106   2.562   6.066
 5476SOL    HW128459   4.151   2.472   6.063
 5476SOL    HW228460   4.012   2.551   6.099
 5477SOL     OW28461   4.338   1.984   5.703
 5477SOL    HW128462   4.436   1.962   5.710
 5477SOL    HW228463   4.307   1.967   5.610
 5478SOL     OW28464   4.612   3.376   6.781
 5478SOL    HW128465   4.589   3.351   6.687
 5478SOL    HW228466   4.673   3.307   6.820
 5479SOL     OW28467   4.527   3.264   6.510
 5479SOL    HW128468   4.617   3.278   6.468
 5479SOL    HW228469   4.456   3.266   6.439
 5480SOL     OW28470   4.646   2.365   6.485
 5480SOL    HW128471   4.621   2.356   6.389
 5480SOL    HW228472   4.694   2.283   6.516
 5481SOL     OW28473   4.263   1.926   6.098
 5481SOL    HW128474   4.182   1.927   6.156
 5481SOL    HW228475   4.266   2.009   6.043
 5482SOL     OW28476   4.021   1.897   5.757
 5482SOL    HW128477   4.070   1.981   5.736
 5482SOL    HW228478   4.083   1.832   5.802
 5483SOL     OW28479   4.659   2.098   6.066
 5483SOL    HW128480   4.611   2.139   5.988
 5483SOL    HW228481   4.758   2.096   6.047
 5484SOL     OW28482   4.951   3.432   6.379
 5484SOL    HW128483   4.972   3.506   6.314
 5484SOL    HW228484   5.019   3.432   6.452
 5485SOL     OW28485   4.183   3.014   6.327
 5485SOL    HW128486   4.112   2.987   6.392
 5485SOL    HW228487   4.157   2.986   6.234
 5486SOL     OW28488   4.995   3.659   6.177
 5486SOL    HW128489   5.039   3.723   6.113
 5486SOL    HW228490   4.945   3.711   6.247
 5487SOL     OW28491   3.802   2.418   6.972
 5487SOL    HW128492   3.894   2.417   6.931
 5487SOL    HW228493   3.796   2.492   7.039
 5488SOL     OW28494   4.285   2.084   6.733
 5488SOL    HW128495   4.323   2.000   6.770
 5488SOL    HW228496   4.197   2.103   6.777
 5489SOL     OW28497   4.590   2.316   6.228
 5489SOL    HW128498   4.558   2.388   6.166
 5489SOL    HW228499   4.614   2.235   6.175
 5490SOL     OW28500   4.741   1.901   6.339
 5490SOL    HW128501   4.669   1.906   6.270
 5490SOL    HW228502   4.717   1.832   6.408
 5491SOL     OW28503   5.153   3.035   6.453
 5491SOL    HW128504   5.098   2.951   6.446
 5491SOL    HW228505   5.179   3.064   6.361
 5492SOL     OW28506   5.190   2.452   6.578
 5492SOL    HW128507   5.160   2.357   6.585
 5492SOL    HW228508   5.263   2.468   6.644
 5493SOL     OW28509   4.212   3.247   5.760
 5493SOL    HW128510   4.125   3.232   5.807
 5493SOL    HW228511   4.195   3.273   5.665
 5494SOL     OW28512   4.251   2.118   5.914
 5494SOL    HW128513   4.278   2.059   5.839
 5494SOL    HW228514   4.251   2.213   5.883
 5495SOL     OW28515   4.788   3.209   6.926
 5495SOL    HW128516   4.708   3.186   6.981
 5495SOL    HW228517   4.871   3.183   6.975
 5496SOL     OW28518   4.835   3.057   6.686
 5496SOL    HW128519   4.795   3.101   6.767
 5496SOL    HW228520   4.794   3.094   6.603
 5497SOL     OW28521   5.362   2.961   6.665
 5497SOL    HW128522   5.367   3.042   6.724
 5497SOL    HW228523   5.276   2.963   6.614
 5498SOL     OW28524   4.639   1.951   6.988
 5498SOL    HW128525   4.664   1.931   6.893
 5498SOL    HW228526   4.711   2.007   7.030
 5499SOL     OW28527   4.429   2.912   5.954
 5499SOL    HW128528   4.415   2.919   6.053
 5499SOL    HW228529   4.513   2.861   5.936
 5500SOL     OW28530   4.134   2.675   6.837
 5500SOL    HW128531   4.220   2.687   6.887
 5500SOL    HW228532   4.092   2.588   6.864
 5501SOL     OW28533   4.998   2.248   6.848
 5501SOL    HW128534   5.019   2.322   6.912
 5501SOL    HW228535   4.909   2.265   6.805
 5502SOL     OW28536   3.788   3.426   6.917
 5502SOL    HW128537   3.742   3.508   6.883
 5502SOL    HW228538   3.886   3.445   6.926
 5503SOL     OW28539   4.091   2.962   6.087
 5503SOL    HW128540   4.084   3.045   6.031
 5503SOL    HW228541   4.095   2.882   6.027
 5504SOL     OW28542   4.290   2.399   6.451
 5504SOL    HW128543   4.302   2.465   6.377
 5504SOL    HW228544   4.336   2.433   6.534
 5505SOL     OW28545   4.976   3.210   5.974
 5505SOL    HW128546   5.026   3.287   6.014
 5505SOL    HW228547   4.881   3.212   6.006
 5506SOL     OW28548   4.996   3.307   6.728
 5506SOL    HW128549   5.043   3.320   6.815
 5506SOL    HW228550   4.930   3.233   6.737
 5507SOL     OW28551   4.078   3.372   6.915
 5507SOL    HW128552   4.057   3.328   6.828
 5507SOL    HW228553   4.175   3.398   6.918
 5508SOL     OW28554   4.126   2.613   7.184
 5508SOL    HW128555   4.194   2.668   7.137
 5508SOL    HW228556   4.166   2.525   7.211
 5509SOL     OW28557   5.311   2.641   7.256
 5509SOL    HW128558   5.219   2.679   7.251
 5509SOL    HW228559   5.371   2.688   7.191
 5510SOL     OW28560   4.297   2.732   6.615
 5510SOL    HW128561   4.341   2.821   6.606
 5510SOL    HW228562   4.234   2.732   6.692
 5511SOL     OW28563   5.084   2.724   6.631
 5511SOL    HW128564   5.009   2.724   6.565
 5511SOL    HW228565   5.121   2.632   6.640
 5512SOL     OW28566   4.031   2.075   6.817
 5512SOL    HW128567   4.008   2.112   6.907
 5512SOL    HW228568   4.001   1.980   6.811
 5513SOL     OW28569   3.761   3.172   6.868
 5513SOL    HW128570   3.814   3.123   6.936
 5513SOL    HW228571   3.783   3.270   6.873
 5514SOL     OW28572   4.456   2.496   6.650
 5514SOL    HW128573   4.515   2.470   6.574
 5514SOL    HW228574   4.428   2.592   6.639
 5515SOL     OW28575   4.031   1.925   6.204
 5515SOL    HW128576   4.020   2.019   6.237
 5515SOL    HW228577   4.026   1.862   6.281
 5516SOL     OW28578   5.346   2.229   5.960
 5516SOL    HW128579   5.348   2.153   6.024
 5516SOL    HW228580   5.298   2.306   6.000
 5517SOL     OW28581   4.747   2.628   6.552
 5517SOL    HW128582   4.762   2.649   6.648
 5517SOL    HW228583   4.717   2.533   6.543
 5518SOL     OW28584   4.704   3.435   7.286
 5518SOL    HW128585   4.684   3.479   7.198
 5518SOL    HW228586   4.743   3.344   7.270
 5519SOL     OW28587   5.264   2.136   5.711
 5519SOL    HW128588   5.203   2.061   5.734
 5519SOL    HW228589   5.286   2.188   5.794
 5520SOL     OW28590   4.792   3.195   6.435
 5520SOL    HW128591   4.799   3.111   6.380
 5520SOL    HW228592   4.854   3.264   6.399
 5521SOL     OW28593   4.043   2.672   6.535
 5521SOL    HW128594   4.136   2.708   6.540
 5521SOL    HW228595   4.037   2.587   6.587
 5522SOL     OW28596   4.063   2.371   6.592
 5522SOL    HW128597   4.011   2.288   6.575
 5522SOL    HW228598   4.140   2.376   6.528
 5523SOL     OW28599   4.862   2.242   7.264
 5523SOL    HW128600   4.817   2.305   7.328
 5523SOL    HW228601   4.955   2.273   7.247
 5524SOL     OW28602   4.884   2.069   7.063
 5524SOL    HW128603   4.884   2.133   7.140
 5524SOL    HW228604   4.912   2.117   6.980
 5525SOL     OW28605   3.812   3.663   6.513
 5525SOL    HW128606   3.770   3.577   6.486
 5525SOL    HW228607   3.906   3.666   6.479
 5526SOL     OW28608   4.228   3.430   6.496
 5526SOL    HW128609   4.294   3.504   6.505
 5526SOL    HW228610   4.272   3.351   6.454
 5527SOL     OW28611   4.726   2.658   6.824
 5527SOL    HW128612   4.767   2.626   6.910
 5527SOL    HW228613   4.630   2.631   6.821
 5528SOL     OW28614   3.764   2.406   6.700
 5528SOL    HW128615   3.849   2.373   6.659
 5528SOL    HW228616   3.777   2.421   6.798
 5529SOL     OW28617   4.539   2.434   5.911
 5529SOL    HW128618   4.546   2.345   5.865
 5529SOL    HW228619   4.445   2.468   5.903
 5530SOL     OW28620   5.381   2.466   6.792
 5530SOL    HW128621   5.343   2.397   6.854
 5530SOL    HW228622   5.463   2.430   6.748
 5531SOL     OW28623   4.395   2.326   6.855
 5531SOL    HW128624   4.361   2.237   6.825
 5531SOL    HW228625   4.421   2.380   6.775
 5532SOL     OW28626   4.654   3.540   7.051
 5532SOL    HW128627   4.630   3.522   6.956
 5532SOL    HW228628   4.684   3.634   7.061
 5533SOL     OW28629   4.197   2.362   5.777
 5533SOL    HW128630   4.258   2.442   5.781
 5533SOL    HW228631   4.102   2.393   5.784
 5534SOL     OW28632   3.883   2.999   7.052
 5534SOL    HW128633   3.905   2.938   7.128
 5534SOL    HW228634   3.893   2.950   6.966
 5535SOL     OW28635   5.071   2.921   6.820
 5535SOL    HW128636   5.095   2.858   6.746
 5535SOL    HW228637   4.981   2.961   6.802
 5536SOL     OW28638   5.483   3.609   6.740
 5536SOL    HW128639   5.544   3.639   6.667
 5536SOL    HW228640   5.445   3.520   6.718
 5537SOL     OW28641   4.976   3.593   6.714
 5537SOL    HW128642   5.060   3.598   6.660
 5537SOL    HW228643   4.953   3.497   6.732
 5538SOL     OW28644   3.807   3.120   6.608
 5538SOL    HW128645   3.802   3.119   6.708
 5538SOL    HW228646   3.724   3.079   6.570
 5539SOL     OW28647   5.112   3.435   6.063
 5539SOL    HW128648   5.179   3.447   5.989
 5539SOL    HW228649   5.072   3.524   6.086
 5540SOL     OW28650   4.396   3.478   5.740
 5540SOL    HW128651   4.405   3.488   5.641
 5540SOL    HW228652   4.356   3.389   5.761
 5541SOL     OW28653   5.374   3.582   6.980
 5541SOL    HW128654   5.427   3.592   6.896
 5541SOL    HW228655   5.347   3.672   7.014
 5542SOL     OW28656   5.565   2.037   6.549
 5542SOL    HW128657   5.604   1.952   6.513
 5542SOL    HW228658   5.467   2.039   6.530
 5543SOL     OW28659   3.987   2.188   6.306
 5543SOL    HW128660   3.908   2.239   6.272
 5543SOL    HW228661   3.978   2.173   6.404
 5544SOL     OW28662   4.546   2.864   6.958
 5544SOL    HW128663   4.586   2.863   6.866
 5544SOL    HW228664   4.556   2.956   6.998
 5545SOL     OW28665   4.096   3.150   7.076
 5545SOL    HW128666   4.083   3.243   7.042
 5545SOL    HW228667   4.012   3.098   7.063
 5546SOL     OW28668   5.338   3.154   6.875
 5546SOL    HW128669   5.398   3.157   6.955
 5546SOL    HW228670   5.263   3.218   6.888
 5547SOL     OW28671   4.763   2.960   6.282
 5547SOL    HW128672   4.693   2.913   6.336
 5547SOL    HW228673   4.822   2.892   6.239
 5548SOL     OW28674   4.738   2.098   6.557
 5548SOL    HW128675   4.730   2.062   6.464
 5548SOL    HW228676   4.736   2.022   6.622
 5549SOL     OW28677   4.314   3.349   6.077
 5549SOL    HW128678   4.356   3.291   6.007
 5549SOL    HW228679   4.270   3.428   6.033
 5550SOL     OW28680   5.433   2.247   6.967
 5550SOL    HW128681   5.506   2.316   6.971
 5550SOL    HW228682   5.461   2.172   6.908
 5551SOL     OW28683   3.979   3.210   5.876
 5551SOL    HW128684   3.883   3.211   5.849
 5551SOL    HW228685   3.991   3.263   5.960
 5552SOL     OW28686   3.799   2.207   5.619
 5552SOL    HW128687   3.707   2.179   5.590
 5552SOL    HW228688   3.830   2.284   5.563
 5553SOL     OW28689   5.164   2.718   6.984
 5553SOL    HW128690   5.107   2.770   6.921
 5553SOL    HW228691   5.260   2.730   6.960
 5554SOL     OW28692   3.796   2.028   5.904
 5554SOL    HW128693   3.779   2.111   5.850
 5554SOL    HW228694   3.886   1.991   5.882
 5555SOL     OW28695   4.337   2.704   7.017
 5555SOL    HW128696   4.393   2.785   7.000
 5555SOL    HW228697   4.396   2.624   7.020
 5556SOL     OW28698   5.217   3.629   6.545
 5556SOL    HW128699   5.250   3.693   6.476
 5556SOL    HW228700   5.283   3.623   6.620
 5557SOL     OW28701   4.114   3.603   7.146
 5557SOL    HW128702   4.023   3.644   7.144
 5557SOL    HW228703   4.107   3.509   7.178
 5558SOL     OW28704   5.398   2.745   6.840
 5558SOL    HW128705   5.371   2.656   6.803
 5558SOL    HW228706   5.399   2.813   6.767
 5559SOL     OW28707   4.949   2.187   6.035
 5559SOL    HW128708   5.014   2.113   6.024
 5559SOL    HW228709   4.969   2.237   6.119
 5560SOL     OW28710   4.318   2.607   6.238
 5560SOL    HW128711   4.368   2.692   6.219
 5560SOL    HW228712   4.230   2.609   6.190
 5561SOL     OW28713   5.501   2.204   7.228
 5561SOL    HW128714   5.484   2.235   7.134
 5561SOL    HW228715   5.417   2.167   7.266
 5562SOL     OW28716   5.454   2.796   7.103
 5562SOL    HW128717   5.492   2.887   7.118
 5562SOL    HW228718   5.446   2.779   7.004
 5563SOL     OW28719   4.385   3.652   6.539
 5563SOL    HW128720   4.339   3.740   6.526
 5563SOL    HW228721   4.484   3.664   6.532
 5564SOL     OW28722   4.583   2.818   6.447
 5564SOL    HW128723   4.637   2.749   6.495
 5564SOL    HW228724   4.551   2.887   6.513
 5565SOL     OW28725   5.585   3.431   6.437
 5565SOL    HW128726   5.514   3.419   6.367
 5565SOL    HW228727   5.586   3.352   6.497
 5566SOL     OW28728   3.803   3.102   6.239
 5566SOL    HW128729   3.802   3.055   6.327
 5566SOL    HW228730   3.885   3.074   6.188
 5567SOL     OW28731   5.548   2.054   6.813
 5567SOL    HW128732   5.544   1.964   6.857
 5567SOL    HW228733   5.551   2.043   6.714
 5568SOL     OW28734   4.152   2.286   6.106
 5568SOL    HW128735   4.182   2.214   6.044
 5568SOL    HW228736   4.113   2.246   6.189
 5569SOL     OW28737   5.429   3.349   6.690
 5569SOL    HW128738   5.336   3.324   6.663
 5569SOL    HW228739   5.455   3.299   6.772
 5570SOL     OW28740   4.041   2.409   6.866
 5570SOL    HW128741   4.079   2.350   6.938
 5570SOL    HW228742   4.081   2.383   6.778
 5571SOL     OW28743   4.536   3.448   6.273
 5571SOL    HW128744   4.568   3.458   6.179
 5571SOL    HW228745   4.457   3.386   6.275
 5572SOL     OW28746   5.148   2.076   6.698
 5572SOL    HW128747   5.200   2.011   6.753
 5572SOL    HW228748   5.099   2.139   6.759
 5573SOL     OW28749   4.725   1.896   6.740
 5573SOL    HW128750   4.662   1.824   6.709
 5573SOL    HW228751   4.818   1.860   6.740
 5574SOL     OW28752   4.342   3.429   6.870
 5574SOL    HW128753   4.337   3.511   6.927
 5574SOL    HW228754   4.431   3.426   6.825
 5575SOL     OW28755   5.024   2.315   6.277
 5575SOL    HW128756   4.965   2.395   6.281
 5575SOL    HW228757   5.039   2.280   6.370
 5576SOL     OW28758   5.317   2.083   6.468
 5576SOL    HW128759   5.233   2.082   6.522
 5576SOL    HW228760   5.319   2.166   6.412
 5577SOL     OW28761   3.954   4.352   0.113
 5577SOL    HW128762   3.861   4.350   0.150
 5577SOL    HW228763   3.955   4.313   0.021
 5578SOL     OW28764   3.949   3.999   0.996
 5578SOL    HW128765   3.984   3.982   1.088
 5578SOL    HW228766   3.861   3.954   0.984
 5579SOL     OW28767   3.743   4.092   0.647
 5579SOL    HW128768   3.661   4.135   0.686
 5579SOL    HW228769   3.715   4.019   0.584
 5580SOL     OW28770   4.293   4.999   1.165
 5580SOL    HW128771   4.200   4.992   1.128
 5580SOL    HW228772   4.304   5.088   1.209
 5581SOL     OW28773   5.279   5.235   0.703
 5581SOL    HW128774   5.222   5.219   0.784
 5581SOL    HW228775   5.220   5.245   0.623
 5582SOL     OW28776   4.859   4.427   0.717
 5582SOL    HW128777   4.916   4.505   0.692
 5582SOL    HW228778   4.799   4.453   0.793
 5583SOL     OW28779   5.479   4.331   0.231
 5583SOL    HW128780   5.467   4.318   0.132
 5583SOL    HW228781   5.449   4.250   0.280
 5584SOL     OW28782   4.492   4.868   1.023
 5584SOL    HW128783   4.414   4.885   1.083
 5584SOL    HW228784   4.526   4.955   0.987
 5585SOL     OW28785   4.409   4.736   0.665
 5585SOL    HW128786   4.478   4.720   0.735
 5585SOL    HW228787   4.336   4.793   0.703
 5586SOL     OW28788   4.410   4.885   1.803
 5586SOL    HW128789   4.470   4.964   1.817
 5586SOL    HW228790   4.324   4.916   1.762
 5587SOL     OW28791   4.059   5.159   1.061
 5587SOL    HW128792   3.981   5.128   1.008
 5587SOL    HW228793   4.117   5.217   1.004
 5588SOL     OW28794   5.184   5.229   1.339
 5588SOL    HW128795   5.208   5.323   1.365
 5588SOL    HW228796   5.168   5.175   1.421
 5589SOL     OW28797   4.162   4.116   1.499
 5589SOL    HW128798   4.244   4.060   1.508
 5589SOL    HW228799   4.081   4.058   1.503
 5590SOL     OW28800   5.327   4.171   0.737
 5590SOL    HW128801   5.253   4.217   0.687
 5590SOL    HW228802   5.378   4.239   0.790
 5591SOL     OW28803   3.955   5.437   0.483
 5591SOL    HW128804   3.989   5.514   0.537
 5591SOL    HW228805   3.999   5.437   0.393
 5592SOL     OW28806   3.954   5.158   0.538
 5592SOL    HW128807   3.928   5.254   0.538
 5592SOL    HW228808   3.883   5.104   0.583
 5593SOL     OW28809   3.964   4.815   0.886
 5593SOL    HW128810   3.978   4.731   0.938
 5593SOL    HW228811   3.909   4.879   0.941
 5594SOL     OW28812   4.344   5.510   1.439
 5594SOL    HW128813   4.252   5.493   1.474
 5594SOL    HW228814   4.372   5.602   1.465
 5595SOL     OW28815   4.330   4.688   0.123
 5595SOL    HW128816   4.337   4.772   0.069
 5595SOL    HW228817   4.376   4.701   0.211
 5596SOL     OW28818   5.318   3.838   1.480
 5596SOL    HW128819   5.300   3.905   1.408
 5596SOL    HW228820   5.315   3.884   1.569
 5597SOL     OW28821   3.846   4.367   0.563
 5597SOL    HW128822   3.801   4.279   0.580
 5597SOL    HW228823   3.845   4.421   0.647
 5598SOL     OW28824   5.566   5.491   0.359
 5598SOL    HW128825   5.620   5.462   0.439
 5598SOL    HW228826   5.596   5.581   0.330
 5599SOL     OW28827   3.751   5.320   0.117
 5599SOL    HW128828   3.732   5.224   0.138
 5599SOL    HW228829   3.718   5.378   0.192
 5600SOL     OW28830   5.413   4.646   0.612
 5600SOL    HW128831   5.508   4.617   0.620
 5600SOL    HW228832   5.405   4.711   0.537
 5601SOL     OW28833   5.365   4.832   0.432
 5601SOL    HW128834   5.451   4.834   0.380
 5601SOL    HW228835   5.379   4.879   0.520
 5602SOL     OW28836   3.837   4.461   1.597
 5602SOL    HW128837   3.925   4.448   1.642
 5602SOL    HW228838   3.824   4.558   1.575
 5603SOL     OW28839   4.337   5.089   0.726
 5603SOL    HW128840   4.288   5.002   0.735
 5603SOL    HW228841   4.314   5.132   0.639
 5604SOL     OW28842   5.017   4.952   1.423
 5604SOL    HW128843   5.054   4.879   1.365
 5604SOL    HW228844   5.069   4.957   1.508
 5605SOL     OW28845   4.533   3.728   0.502
 5605SOL    HW128846   4.573   3.819   0.493
 5605SOL    HW228847   4.433   3.736   0.508
 5606SOL     OW28848   3.921   4.700   1.264
 5606SOL    HW128849   4.010   4.655   1.250
 5606SOL    HW228850   3.848   4.635   1.245
 5607SOL     OW28851   5.249   4.723   0.190
 5607SOL    HW128852   5.186   4.647   0.203
 5607SOL    HW228853   5.297   4.741   0.276
 5608SOL     OW28854   4.911   5.516   1.616
 5608SOL    HW128855   4.935   5.576   1.540
 5608SOL    HW228856   4.918   5.421   1.586
 5609SOL     OW28857   5.190   5.141   0.953
 5609SOL    HW128858   5.131   5.147   1.033
 5609SOL    HW228859   5.175   5.053   0.907
 5610SOL     OW28860   5.391   5.438   0.572
 5610SOL    HW128861   5.350   5.415   0.484
 5610SOL    HW228862   5.373   5.364   0.637
 5611SOL     OW28863   4.322   4.453   0.270
 5611SOL    HW128864   4.346   4.522   0.202
 5611SOL    HW228865   4.244   4.486   0.324
 5612SOL     OW28866   5.005   4.069   0.944
 5612SOL    HW128867   4.919   4.019   0.931
 5612SOL    HW228868   5.067   4.015   1.000
 5613SOL     OW28869   5.300   5.386   0.307
 5613SOL    HW128870   5.389   5.432   0.310
 5613SOL    HW228871   5.279   5.362   0.212
 5614SOL     OW28872   4.697   4.614   1.572
 5614SOL    HW128873   4.743   4.530   1.543
 5614SOL    HW228874   4.641   4.648   1.497
 5615SOL     OW28875   4.715   4.134   1.242
 5615SOL    HW128876   4.638   4.168   1.296
 5615SOL    HW228877   4.681   4.083   1.163
 5616SOL     OW28878   4.765   4.425   0.429
 5616SOL    HW128879   4.791   4.421   0.525
 5616SOL    HW228880   4.680   4.374   0.415
 5617SOL     OW28881   3.800   4.535   0.789
 5617SOL    HW128882   3.899   4.523   0.798
 5617SOL    HW228883   3.776   4.630   0.810
 5618SOL     OW28884   3.854   5.545   1.571
 5618SOL    HW128885   3.844   5.530   1.670
 5618SOL    HW228886   3.768   5.581   1.535
 5619SOL     OW28887   4.589   4.072   0.195
 5619SOL    HW128888   4.648   4.135   0.146
 5619SOL    HW228889   4.608   3.978   0.166
 5620SOL     OW28890   5.086   4.868   0.545
 5620SOL    HW128891   5.169   4.839   0.497
 5620SOL    HW228892   5.037   4.935   0.489
 5621SOL     OW28893   4.274   3.920   0.885
 5621SOL    HW128894   4.269   3.915   0.985
 5621SOL    HW228895   4.276   4.016   0.856
 5622SOL     OW28896   4.732   5.180   0.477
 5622SOL    HW128897   4.686   5.252   0.425
 5622SOL    HW228898   4.728   5.200   0.575
 5623SOL     OW28899   4.075   5.525   0.853
 5623SOL    HW128900   4.125   5.439   0.859
 5623SOL    HW228901   4.140   5.602   0.850
 5624SOL     OW28902   5.519   4.790   0.873
 5624SOL    HW128903   5.457   4.775   0.797
 5624SOL    HW228904   5.467   4.801   0.958
 5625SOL     OW28905   4.951   5.274   1.506
 5625SOL    HW128906   4.957   5.197   1.570
 5625SOL    HW228907   4.899   5.248   1.426
 5626SOL     OW28908   4.045   4.667   0.242
 5626SOL    HW128909   4.127   4.706   0.200
 5626SOL    HW228910   4.018   4.585   0.193
 5627SOL     OW28911   5.182   4.459   0.728
 5627SOL    HW128912   5.177   4.394   0.803
 5627SOL    HW228913   5.262   4.518   0.741
 5628SOL     OW28914   4.185   4.990   1.727
 5628SOL    HW128915   4.135   4.991   1.641
 5628SOL    HW228916   4.122   4.972   1.803
 5629SOL     OW28917   4.835   5.500   0.237
 5629SOL    HW128918   4.775   5.438   0.287
 5629SOL    HW228919   4.866   5.456   0.152
 5630SOL     OW28920   5.356   5.101   0.081
 5630SOL    HW128921   5.324   5.195   0.071
 5630SOL    HW228922   5.280   5.038   0.069
 5631SOL     OW28923   4.188   5.467   0.323
 5631SOL    HW128924   4.221   5.506   0.409
 5631SOL    HW228925   4.264   5.460   0.258
 5632SOL     OW28926   5.124   3.831   0.426
 5632SOL    HW128927   5.100   3.794   0.336
 5632SOL    HW228928   5.223   3.847   0.430
 5633SOL     OW28929   3.973   5.509   1.241
 5633SOL    HW128930   4.030   5.444   1.291
 5633SOL    HW228931   3.957   5.476   1.148
 5634SOL     OW28932   4.664   5.422   0.904
 5634SOL    HW128933   4.744   5.365   0.925
 5634SOL    HW228934   4.615   5.382   0.827
 5635SOL     OW28935   4.106   4.424   0.480
 5635SOL    HW128936   4.151   4.334   0.477
 5635SOL    HW228937   4.012   4.413   0.513
 5636SOL     OW28938   4.338   3.846   0.117
 5636SOL    HW128939   4.436   3.824   0.124
 5636SOL    HW228940   4.307   3.829   0.024
 5637SOL     OW28941   4.505   3.988   1.749
 5637SOL    HW128942   4.572   3.927   1.792
 5637SOL    HW228943   4.432   4.007   1.814
 5638SOL     OW28944   4.612   5.238   1.195
 5638SOL    HW128945   4.589   5.213   1.101
 5638SOL    HW228946   4.673   5.169   1.234
 5639SOL     OW28947   5.075   4.314   1.433
 5639SOL    HW128948   5.103   4.271   1.518
 5639SOL    HW228949   5.100   4.410   1.434
 5640SOL     OW28950   4.527   5.126   0.924
 5640SOL    HW128951   4.617   5.140   0.882
 5640SOL    HW228952   4.456   5.128   0.853
 5641SOL     OW28953   4.646   4.227   0.899
 5641SOL    HW128954   4.621   4.218   0.803
 5641SOL    HW228955   4.694   4.145   0.930
 5642SOL     OW28956   4.263   3.788   0.512
 5642SOL    HW128957   4.182   3.789   0.570
 5642SOL    HW228958   4.266   3.871   0.457
 5643SOL     OW28959   5.158   4.912   0.041
 5643SOL    HW128960   5.190   4.836   0.098
 5643SOL    HW228961   5.066   4.939   0.071
 5644SOL     OW28962   4.021   3.759   0.171
 5644SOL    HW128963   4.070   3.843   0.150
 5644SOL    HW228964   4.083   3.694   0.216
 5645SOL     OW28965   4.659   3.960   0.480
 5645SOL    HW128966   4.611   4.001   0.402
 5645SOL    HW228967   4.758   3.958   0.461
 5646SOL     OW28968   4.951   5.294   0.793
 5646SOL    HW128969   4.972   5.368   0.728
 5646SOL    HW228970   5.019   5.294   0.866
 5647SOL     OW28971   4.183   4.876   0.741
 5647SOL    HW128972   4.112   4.849   0.806
 5647SOL    HW228973   4.157   4.848   0.648
 5648SOL     OW28974   4.995   5.521   0.591
 5648SOL    HW128975   5.039   5.585   0.527
 5648SOL    HW228976   4.945   5.573   0.661
 5649SOL     OW28977   4.756   4.273   0.016
 5649SOL    HW128978   4.715   4.355  -0.023
 5649SOL    HW228979   4.820   4.299   0.089
 5650SOL     OW28980   3.802   4.280   1.386
 5650SOL    HW128981   3.894   4.279   1.345
 5650SOL    HW228982   3.796   4.354   1.453
 5651SOL     OW28983   4.285   3.946   1.147
 5651SOL    HW128984   4.323   3.862   1.184
 5651SOL    HW228985   4.197   3.965   1.191
 5652SOL     OW28986   4.590   4.178   0.642
 5652SOL    HW128987   4.558   4.250   0.580
 5652SOL    HW228988   4.614   4.097   0.589
 5653SOL     OW28989   4.741   3.763   0.753
 5653SOL    HW128990   4.669   3.768   0.684
 5653SOL    HW228991   4.717   3.694   0.822
 5654SOL     OW28992   5.153   4.897   0.867
 5654SOL    HW128993   5.098   4.813   0.860
 5654SOL    HW228994   5.179   4.926   0.775
 5655SOL     OW28995   5.190   4.314   0.992
 5655SOL    HW128996   5.160   4.219   0.999
 5655SOL    HW228997   5.263   4.330   1.058
 5656SOL     OW28998   5.581   4.557   0.377
 5656SOL    HW128999   5.623   4.493   0.441
 5656SOL    HW229000   5.543   4.506   0.299
 5657SOL     OW29001   4.212   5.109   0.174
 5657SOL    HW129002   4.125   5.094   0.221
 5657SOL    HW229003   4.195   5.135   0.079
 5658SOL     OW29004   5.388   5.004   0.657
 5658SOL    HW129005   5.487   5.012   0.671
 5658SOL    HW229006   5.343   5.088   0.688
 5659SOL     OW29007   5.114   4.299   0.078
 5659SOL    HW129008   5.060   4.278   0.159
 5659SOL    HW229009   5.205   4.258   0.087
 5660SOL     OW29010   4.251   3.980   0.328
 5660SOL    HW129011   4.278   3.921   0.253
 5660SOL    HW229012   4.251   4.075   0.297
 5661SOL     OW29013   5.478   4.947   1.588
 5661SOL    HW129014   5.569   4.908   1.575
 5661SOL    HW229015   5.486   5.043   1.612
 5662SOL     OW29016   4.788   5.071   1.340
 5662SOL    HW129017   4.708   5.048   1.395
 5662SOL    HW229018   4.871   5.045   1.389
 5663SOL     OW29019   5.316   5.353   1.625
 5663SOL    HW129020   5.343   5.387   1.535
 5663SOL    HW229021   5.395   5.315   1.671
 5664SOL     OW29022   4.835   4.919   1.100
 5664SOL    HW129023   4.795   4.963   1.181
 5664SOL    HW229024   4.794   4.956   1.017
 5665SOL     OW29025   5.362   4.823   1.079
 5665SOL    HW129026   5.367   4.904   1.138
 5665SOL    HW229027   5.276   4.825   1.028
 5666SOL     OW29028   4.639   3.813   1.402
 5666SOL    HW129029   4.664   3.793   1.307
 5666SOL    HW229030   4.711   3.869   1.444
 5667SOL     OW29031   4.429   4.774   0.368
 5667SOL    HW129032   4.415   4.781   0.467
 5667SOL    HW229033   4.513   4.723   0.350
 5668SOL     OW29034   4.134   4.537   1.251
 5668SOL    HW129035   4.220   4.549   1.301
 5668SOL    HW229036   4.092   4.450   1.278
 5669SOL     OW29037   4.998   4.110   1.262
 5669SOL    HW129038   5.019   4.184   1.326
 5669SOL    HW229039   4.909   4.127   1.219
 5670SOL     OW29040   3.788   5.288   1.331
 5670SOL    HW129041   3.742   5.370   1.297
 5670SOL    HW229042   3.886   5.307   1.340
 5671SOL     OW29043   4.091   4.824   0.501
 5671SOL    HW129044   4.084   4.907   0.445
 5671SOL    HW229045   4.095   4.744   0.441
 5672SOL     OW29046   4.290   4.261   0.865
 5672SOL    HW129047   4.302   4.327   0.791
 5672SOL    HW229048   4.336   4.295   0.948
 5673SOL     OW29049   4.976   5.072   0.388
 5673SOL    HW129050   5.026   5.149   0.428
 5673SOL    HW229051   4.881   5.074   0.420
 5674SOL     OW29052   4.996   5.169   1.142
 5674SOL    HW129053   5.043   5.182   1.229
 5674SOL    HW229054   4.930   5.095   1.151
 5675SOL     OW29055   5.306   4.363   0.472
 5675SOL    HW129056   5.275   4.424   0.545
 5675SOL    HW229057   5.356   4.415   0.403
 5676SOL     OW29058   4.078   5.234   1.329
 5676SOL    HW129059   4.057   5.190   1.242
 5676SOL    HW229060   4.175   5.260   1.332
 5677SOL     OW29061   4.126   4.475   1.598
 5677SOL    HW129062   4.194   4.530   1.551
 5677SOL    HW229063   4.166   4.387   1.625
 5678SOL     OW29064   5.311   4.503   1.670
 5678SOL    HW129065   5.219   4.541   1.665
 5678SOL    HW229066   5.371   4.550   1.605
 5679SOL     OW29067   4.737   3.829   1.770
 5679SOL    HW129068   4.743   3.914   1.718
 5679SOL    HW229069   4.769   3.753   1.713
 5680SOL     OW29070   4.297   4.594   1.029
 5680SOL    HW129071   4.341   4.683   1.020
 5680SOL    HW229072   4.234   4.594   1.106
 5681SOL     OW29073   5.084   4.586   1.045
 5681SOL    HW129074   5.009   4.586   0.979
 5681SOL    HW229075   5.121   4.494   1.054
 5682SOL     OW29076   4.933   4.249   0.275
 5682SOL    HW129077   4.946   4.165   0.329
 5682SOL    HW229078   4.904   4.323   0.335
 5683SOL     OW29079   4.031   3.937   1.231
 5683SOL    HW129080   4.008   3.974   1.321
 5683SOL    HW229081   4.001   3.842   1.225
 5684SOL     OW29082   3.761   5.034   1.282
 5684SOL    HW129083   3.814   4.985   1.350
 5684SOL    HW229084   3.783   5.132   1.287
 5685SOL     OW29085   4.456   4.358   1.064
 5685SOL    HW129086   4.515   4.332   0.988
 5685SOL    HW229087   4.428   4.454   1.053
 5686SOL     OW29088   5.452   4.659   1.854
 5686SOL    HW129089   5.406   4.652   1.765
 5686SOL    HW229090   5.390   4.703   1.920
 5687SOL     OW29091   4.031   3.787   0.618
 5687SOL    HW129092   4.020   3.881   0.651
 5687SOL    HW229093   4.026   3.724   0.695
 5688SOL     OW29094   5.346   4.091   0.374
 5688SOL    HW129095   5.348   4.015   0.438
 5688SOL    HW229096   5.298   4.168   0.414
 5689SOL     OW29097   4.747   4.490   0.966
 5689SOL    HW129098   4.762   4.511   1.062
 5689SOL    HW229099   4.717   4.395   0.957
 5690SOL     OW29100   4.074   4.622   1.804
 5690SOL    HW129101   4.150   4.666   1.852
 5690SOL    HW229102   4.109   4.575   1.722
 5691SOL     OW29103   5.264   3.998   0.125
 5691SOL    HW129104   5.203   3.923   0.148
 5691SOL    HW229105   5.286   4.050   0.208
 5692SOL     OW29106   5.027   4.562   0.042
 5692SOL    HW129107   5.061   4.469   0.057
 5692SOL    HW229108   5.045   4.589  -0.053
 5693SOL     OW29109   4.792   5.057   0.849
 5693SOL    HW129110   4.799   4.973   0.794
 5693SOL    HW229111   4.854   5.126   0.813
 5694SOL     OW29112   4.043   4.534   0.949
 5694SOL    HW129113   4.136   4.570   0.954
 5694SOL    HW229114   4.037   4.449   1.001
 5695SOL     OW29115   4.063   4.233   1.006
 5695SOL    HW129116   4.011   4.150   0.989
 5695SOL    HW229117   4.140   4.238   0.942
 5696SOL     OW29118   4.862   4.104   1.678
 5696SOL    HW129119   4.817   4.167   1.742
 5696SOL    HW229120   4.955   4.135   1.661
 5697SOL     OW29121   4.884   3.931   1.477
 5697SOL    HW129122   4.884   3.995   1.554
 5697SOL    HW229123   4.912   3.979   1.394
 5698SOL     OW29124   3.732   5.050   0.200
 5698SOL    HW129125   3.639   5.071   0.169
 5698SOL    HW229126   3.742   4.951   0.213
 5699SOL     OW29127   3.812   5.525   0.927
 5699SOL    HW129128   3.770   5.439   0.900
 5699SOL    HW229129   3.906   5.528   0.893
 5700SOL     OW29130   4.228   5.292   0.910
 5700SOL    HW129131   4.294   5.366   0.919
 5700SOL    HW229132   4.272   5.213   0.868
 5701SOL     OW29133   4.726   4.520   1.238
 5701SOL    HW129134   4.767   4.488   1.324
 5701SOL    HW229135   4.630   4.493   1.235
 5702SOL     OW29136   3.764   4.268   1.114
 5702SOL    HW129137   3.849   4.235   1.073
 5702SOL    HW229138   3.777   4.283   1.212
 5703SOL     OW29139   3.913   4.244   1.722
 5703SOL    HW129140   3.972   4.204   1.652
 5703SOL    HW229141   3.855   4.315   1.681
 5704SOL     OW29142   5.093   4.674   1.660
 5704SOL    HW129143   5.132   4.763   1.680
 5704SOL    HW229144   5.103   4.654   1.563
 5705SOL     OW29145   4.539   4.296   0.325
 5705SOL    HW129146   4.546   4.207   0.279
 5705SOL    HW229147   4.445   4.330   0.317
 5706SOL     OW29148   5.381   4.328   1.206
 5706SOL    HW129149   5.343   4.259   1.268
 5706SOL    HW229150   5.463   4.292   1.162
 5707SOL     OW29151   3.976   5.288   1.744
 5707SOL    HW129152   3.946   5.345   1.820
 5707SOL    HW229153   3.969   5.191   1.770
 5708SOL     OW29154   4.395   4.188   1.269
 5708SOL    HW129155   4.361   4.099   1.239
 5708SOL    HW229156   4.421   4.242   1.189
 5709SOL     OW29157   4.654   5.402   1.465
 5709SOL    HW129158   4.630   5.384   1.370
 5709SOL    HW229159   4.684   5.496   1.475
 5710SOL     OW29160   4.197   4.224   0.191
 5710SOL    HW129161   4.258   4.304   0.195
 5710SOL    HW229162   4.102   4.255   0.198
 5711SOL     OW29163   3.883   4.861   1.466
 5711SOL    HW129164   3.905   4.800   1.542
 5711SOL    HW229165   3.893   4.812   1.380
 5712SOL     OW29166   5.071   4.783   1.234
 5712SOL    HW129167   5.095   4.720   1.160
 5712SOL    HW229168   4.981   4.823   1.216
 5713SOL     OW29169   5.026   4.579   0.309
 5713SOL    HW129170   4.940   4.548   0.351
 5713SOL    HW229171   5.022   4.565   0.210
 5714SOL     OW29172   5.483   5.471   1.154
 5714SOL    HW129173   5.544   5.501   1.081
 5714SOL    HW229174   5.445   5.382   1.132
 5715SOL     OW29175   4.976   5.455   1.128
 5715SOL    HW129176   5.060   5.460   1.074
 5715SOL    HW229177   4.953   5.359   1.146
 5716SOL     OW29178   3.807   4.982   1.022
 5716SOL    HW129179   3.802   4.981   1.122
 5716SOL    HW229180   3.724   4.941   0.984
 5717SOL     OW29181   4.412   5.386   1.716
 5717SOL    HW129182   4.356   5.467   1.725
 5717SOL    HW229183   4.464   5.390   1.630
 5718SOL     OW29184   4.627   3.810   0.133
 5718SOL    HW129185   4.678   3.811   0.047
 5718SOL    HW229186   4.683   3.768   0.204
 5719SOL     OW29187   5.450   3.859   0.523
 5719SOL    HW129188   5.523   3.842   0.456
 5719SOL    HW229189   5.419   3.772   0.561
 5720SOL     OW29190   5.112   5.297   0.477
 5720SOL    HW129191   5.179   5.309   0.403
 5720SOL    HW229192   5.072   5.386   0.500
 5721SOL     OW29193   3.854   5.518   1.851
 5721SOL    HW129194   3.813   5.444   1.904
 5721SOL    HW229195   3.918   5.569   1.909
 5722SOL     OW29196   5.004   4.651   0.672
 5722SOL    HW129197   5.064   4.570   0.674
 5722SOL    HW229198   5.044   4.720   0.612
 5723SOL     OW29199   4.396   5.340   0.154
 5723SOL    HW129200   4.405   5.350   0.055
 5723SOL    HW229201   4.356   5.251   0.175
 5724SOL     OW29202   5.374   5.444   1.394
 5724SOL    HW129203   5.427   5.454   1.310
 5724SOL    HW229204   5.347   5.534   1.428
 5725SOL     OW29205   5.565   3.899   0.963
 5725SOL    HW129206   5.604   3.814   0.927
 5725SOL    HW229207   5.467   3.901   0.944
 5726SOL     OW29208   3.987   4.050   0.720
 5726SOL    HW129209   3.908   4.101   0.686
 5726SOL    HW229210   3.978   4.035   0.818
 5727SOL     OW29211   4.918   5.336   0.031
 5727SOL    HW129212   4.924   5.243   0.068
 5727SOL    HW229213   4.859   5.336  -0.049
 5728SOL     OW29214   4.546   4.726   1.372
 5728SOL    HW129215   4.586   4.725   1.280
 5728SOL    HW229216   4.556   4.818   1.412
 5729SOL     OW29217   4.640   4.634   0.291
 5729SOL    HW129218   4.703   4.672   0.223
 5729SOL    HW229219   4.680   4.551   0.330
 5730SOL     OW29220   5.228   5.331   0.044
 5730SOL    HW129221   5.136   5.368   0.051
 5730SOL    HW229222   5.266   5.351  -0.046
 5731SOL     OW29223   4.096   5.012   1.490
 5731SOL    HW129224   4.083   5.105   1.456
 5731SOL    HW229225   4.012   4.960   1.477
 5732SOL     OW29226   5.338   5.016   1.289
 5732SOL    HW129227   5.398   5.019   1.369
 5732SOL    HW229228   5.263   5.080   1.302
 5733SOL     OW29229   4.763   4.822   0.696
 5733SOL    HW129230   4.693   4.775   0.750
 5733SOL    HW229231   4.822   4.754   0.653
 5734SOL     OW29232   4.738   3.960   0.971
 5734SOL    HW129233   4.730   3.924   0.878
 5734SOL    HW229234   4.736   3.884   1.036
 5735SOL     OW29235   4.314   5.211   0.491
 5735SOL    HW129236   4.356   5.153   0.421
 5735SOL    HW229237   4.270   5.290   0.447
 5736SOL     OW29238   5.433   4.109   1.381
 5736SOL    HW129239   5.506   4.178   1.385
 5736SOL    HW229240   5.461   4.034   1.322
 5737SOL     OW29241   3.979   5.072   0.290
 5737SOL    HW129242   3.883   5.073   0.263
 5737SOL    HW229243   3.991   5.125   0.374
 5738SOL     OW29244   3.829   4.737   1.726
 5738SOL    HW129245   3.752   4.704   1.780
 5738SOL    HW229246   3.914   4.707   1.768
 5739SOL     OW29247   4.396   3.927   1.489
 5739SOL    HW129248   4.486   3.911   1.449
 5739SOL    HW229249   4.404   3.932   1.588
 5740SOL     OW29250   5.164   4.580   1.398
 5740SOL    HW129251   5.107   4.632   1.335
 5740SOL    HW229252   5.260   4.592   1.374
 5741SOL     OW29253   3.796   3.890   0.318
 5741SOL    HW129254   3.779   3.973   0.264
 5741SOL    HW229255   3.886   3.853   0.296
 5742SOL     OW29256   4.907   5.059   0.119
 5742SOL    HW129257   4.808   5.048   0.121
 5742SOL    HW229258   4.941   5.074   0.212
 5743SOL     OW29259   4.337   4.566   1.431
 5743SOL    HW129260   4.393   4.647   1.414
 5743SOL    HW229261   4.396   4.486   1.434
 5744SOL     OW29262   5.217   5.491   0.959
 5744SOL    HW129263   5.250   5.555   0.890
 5744SOL    HW229264   5.283   5.485   1.034
 5745SOL     OW29265   4.440   4.289   1.708
 5745SOL    HW129266   4.459   4.354   1.782
 5745SOL    HW229267   4.500   4.209   1.717
 5746SOL     OW29268   5.174   4.944   1.633
 5746SOL    HW129269   5.165   4.934   1.732
 5746SOL    HW229270   5.270   4.937   1.607
 5747SOL     OW29271   4.114   5.465   1.560
 5747SOL    HW129272   4.023   5.506   1.558
 5747SOL    HW229273   4.107   5.371   1.592
 5748SOL     OW29274   5.398   4.607   1.254
 5748SOL    HW129275   5.371   4.518   1.217
 5748SOL    HW229276   5.399   4.675   1.181
 5749SOL     OW29277   4.949   4.049   0.449
 5749SOL    HW129278   5.014   3.975   0.438
 5749SOL    HW229279   4.969   4.099   0.533
 5750SOL     OW29280   4.318   4.469   0.652
 5750SOL    HW129281   4.368   4.554   0.633
 5750SOL    HW229282   4.230   4.471   0.604
 5751SOL     OW29283   5.454   4.658   1.517
 5751SOL    HW129284   5.492   4.749   1.532
 5751SOL    HW229285   5.446   4.641   1.418
 5752SOL     OW29286   4.583   5.098   0.016
 5752SOL    HW129287   4.537   5.113   0.104
 5752SOL    HW229288   4.627   5.183  -0.014
 5753SOL     OW29289   4.385   5.514   0.953
 5753SOL    HW129290   4.339   5.602   0.940
 5753SOL    HW229291   4.484   5.526   0.946
 5754SOL     OW29292   4.583   4.680   0.861
 5754SOL    HW129293   4.637   4.611   0.909
 5754SOL    HW229294   4.551   4.749   0.927
 5755SOL     OW29295   4.807   4.708   0.087
 5755SOL    HW129296   4.784   4.761   0.005
 5755SOL    HW229297   4.888   4.652   0.068
 5756SOL     OW29298   5.585   5.293   0.851
 5756SOL    HW129299   5.514   5.281   0.781
 5756SOL    HW229300   5.586   5.214   0.911
 5757SOL     OW29301   3.945   5.038   1.844
 5757SOL    HW129302   3.880   4.965   1.823
 5757SOL    HW229303   3.949   5.052   1.942
 5758SOL     OW29304   3.803   4.964   0.653
 5758SOL    HW129305   3.802   4.917   0.741
 5758SOL    HW229306   3.885   4.936   0.602
 5759SOL     OW29307   5.548   3.916   1.227
 5759SOL    HW129308   5.544   3.826   1.271
 5759SOL    HW229309   5.551   3.905   1.128
 5760SOL     OW29310   4.152   4.148   0.520
 5760SOL    HW129311   4.182   4.076   0.458
 5760SOL    HW229312   4.113   4.108   0.603
 5761SOL     OW29313   5.429   5.211   1.104
 5761SOL    HW129314   5.336   5.186   1.077
 5761SOL    HW229315   5.455   5.161   1.186
 5762SOL     OW29316   4.041   4.271   1.280
 5762SOL    HW129317   4.079   4.212   1.352
 5762SOL    HW229318   4.081   4.245   1.192
 5763SOL     OW29319   4.536   5.310   0.687
 5763SOL    HW129320   4.568   5.320   0.593
 5763SOL    HW229321   4.457   5.248   0.689
 5764SOL     OW29322   5.148   3.938   1.112
 5764SOL    HW129323   5.200   3.873   1.167
 5764SOL    HW229324   5.099   4.001   1.173
 5765SOL     OW29325   4.725   3.758   1.154
 5765SOL    HW129326   4.662   3.686   1.123
 5765SOL    HW229327   4.818   3.722   1.154
 5766SOL     OW29328   4.494   5.054   0.301
 5766SOL    HW129329   4.448   4.967   0.318
 5766SOL    HW229330   4.585   5.051   0.342
 5767SOL     OW29331   4.342   5.291   1.284
 5767SOL    HW129332   4.337   5.373   1.341
 5767SOL    HW229333   4.431   5.288   1.239
 5768SOL     OW29334   5.076   3.776   0.168
 5768SOL    HW129335   5.111   3.735   0.084
 5768SOL    HW229336   4.986   3.738   0.188
 5769SOL     OW29337   5.024   4.177   0.691
 5769SOL    HW129338   4.965   4.257   0.695
 5769SOL    HW229339   5.039   4.142   0.784
 5770SOL     OW29340   5.317   3.945   0.882
 5770SOL    HW129341   5.233   3.944   0.936
 5770SOL    HW229342   5.319   4.028   0.826
 5771SOL     OW29343   3.763   4.801   0.300
 5771SOL    HW129344   3.862   4.790   0.291
 5771SOL    HW229345   3.723   4.715   0.332
 5772SOL     OW29346   4.599   5.370   0.337
 5772SOL    HW129347   4.522   5.335   0.283
 5772SOL    HW229348   4.567   5.441   0.399
 5773SOL     OW29349   3.954   4.352   1.975
 5773SOL    HW129350   3.861   4.350   2.012
 5773SOL    HW229351   3.955   4.313   1.883
 5774SOL     OW29352   4.293   4.999   3.027
 5774SOL    HW129353   4.200   4.992   2.990
 5774SOL    HW229354   4.304   5.088   3.071
 5775SOL     OW29355   5.279   5.235   2.565
 5775SOL    HW129356   5.222   5.219   2.646
 5775SOL    HW229357   5.220   5.245   2.485
 5776SOL     OW29358   5.479   4.331   2.093
 5776SOL    HW129359   5.467   4.318   1.994
 5776SOL    HW229360   5.449   4.250   2.142
 5777SOL     OW29361   4.410   4.885   3.665
 5777SOL    HW129362   4.470   4.964   3.679
 5777SOL    HW229363   4.324   4.916   3.624
 5778SOL     OW29364   4.059   5.159   2.923
 5778SOL    HW129365   3.981   5.128   2.870
 5778SOL    HW229366   4.117   5.217   2.866
 5779SOL     OW29367   5.327   4.171   2.599
 5779SOL    HW129368   5.253   4.217   2.549
 5779SOL    HW229369   5.378   4.239   2.652
 5780SOL     OW29370   3.955   5.437   2.345
 5780SOL    HW129371   3.989   5.514   2.399
 5780SOL    HW229372   3.999   5.437   2.255
 5781SOL     OW29373   3.954   5.158   2.400
 5781SOL    HW129374   3.928   5.254   2.400
 5781SOL    HW229375   3.883   5.104   2.445
 5782SOL     OW29376   4.344   5.510   3.301
 5782SOL    HW129377   4.252   5.493   3.336
 5782SOL    HW229378   4.372   5.602   3.327
 5783SOL     OW29379   3.751   5.320   1.979
 5783SOL    HW129380   3.732   5.224   2.000
 5783SOL    HW229381   3.718   5.378   2.054
 5784SOL     OW29382   5.017   4.952   3.285
 5784SOL    HW129383   5.054   4.879   3.227
 5784SOL    HW229384   5.069   4.957   3.370
 5785SOL     OW29385   4.911   5.516   3.478
 5785SOL    HW129386   4.935   5.576   3.402
 5785SOL    HW229387   4.918   5.421   3.448
 5786SOL     OW29388   5.300   5.386   2.169
 5786SOL    HW129389   5.389   5.432   2.172
 5786SOL    HW229390   5.279   5.362   2.074
 5787SOL     OW29391   4.531   4.329   3.327
 5787SOL    HW129392   4.484   4.326   3.416
 5787SOL    HW229393   4.480   4.274   3.261
 5788SOL     OW29394   4.697   4.614   3.434
 5788SOL    HW129395   4.743   4.530   3.405
 5788SOL    HW229396   4.641   4.648   3.359
 5789SOL     OW29397   4.274   3.920   2.747
 5789SOL    HW129398   4.269   3.915   2.847
 5789SOL    HW229399   4.276   4.016   2.718
 5790SOL     OW29400   4.732   5.180   2.339
 5790SOL    HW129401   4.686   5.252   2.287
 5790SOL    HW229402   4.728   5.200   2.437
 5791SOL     OW29403   4.951   5.274   3.368
 5791SOL    HW129404   4.957   5.197   3.432
 5791SOL    HW229405   4.899   5.248   3.288
 5792SOL     OW29406   4.185   4.990   3.589
 5792SOL    HW129407   4.135   4.991   3.503
 5792SOL    HW229408   4.122   4.972   3.665
 5793SOL     OW29409   4.835   5.500   2.099
 5793SOL    HW129410   4.775   5.438   2.149
 5793SOL    HW229411   4.866   5.456   2.014
 5794SOL     OW29412   3.926   4.009   3.360
 5794SOL    HW129413   3.846   4.069   3.347
 5794SOL    HW229414   3.916   3.960   3.446
 5795SOL     OW29415   4.188   5.467   2.185
 5795SOL    HW129416   4.221   5.506   2.271
 5795SOL    HW229417   4.264   5.460   2.120
 5796SOL     OW29418   4.646   4.227   2.761
 5796SOL    HW129419   4.621   4.218   2.665
 5796SOL    HW229420   4.694   4.145   2.792
 5797SOL     OW29421   3.802   4.280   3.248
 5797SOL    HW129422   3.894   4.279   3.207
 5797SOL    HW229423   3.796   4.354   3.315
 5798SOL     OW29424   4.285   3.946   3.009
 5798SOL    HW129425   4.323   3.862   3.046
 5798SOL    HW229426   4.197   3.965   3.053
 5799SOL     OW29427   4.590   4.178   2.504
 5799SOL    HW129428   4.558   4.250   2.442
 5799SOL    HW229429   4.614   4.097   2.451
 5800SOL     OW29430   4.741   3.763   2.615
 5800SOL    HW129431   4.669   3.768   2.546
 5800SOL    HW229432   4.717   3.694   2.684
 5801SOL     OW29433   5.190   4.314   2.854
 5801SOL    HW129434   5.160   4.219   2.861
 5801SOL    HW229435   5.263   4.330   2.920
 5802SOL     OW29436   5.581   4.557   2.239
 5802SOL    HW129437   5.623   4.493   2.303
 5802SOL    HW229438   5.543   4.506   2.161
 5803SOL     OW29439   4.212   5.109   2.036
 5803SOL    HW129440   4.125   5.094   2.083
 5803SOL    HW229441   4.195   5.135   1.941
 5804SOL     OW29442   4.251   3.980   2.190
 5804SOL    HW129443   4.278   3.921   2.115
 5804SOL    HW229444   4.251   4.075   2.159
 5805SOL     OW29445   5.478   4.947   3.450
 5805SOL    HW129446   5.569   4.908   3.437
 5805SOL    HW229447   5.486   5.043   3.474
 5806SOL     OW29448   5.316   5.353   3.487
 5806SOL    HW129449   5.343   5.387   3.397
 5806SOL    HW229450   5.395   5.315   3.533
 5807SOL     OW29451   5.362   4.823   2.941
 5807SOL    HW129452   5.367   4.904   3.000
 5807SOL    HW229453   5.276   4.825   2.890
 5808SOL     OW29454   4.429   4.774   2.230
 5808SOL    HW129455   4.415   4.781   2.329
 5808SOL    HW229456   4.513   4.723   2.212
 5809SOL     OW29457   4.134   4.537   3.113
 5809SOL    HW129458   4.220   4.549   3.163
 5809SOL    HW229459   4.092   4.450   3.140
 5810SOL     OW29460   4.996   5.169   3.004
 5810SOL    HW129461   5.043   5.182   3.091
 5810SOL    HW229462   4.930   5.095   3.013
 5811SOL     OW29463   4.297   4.594   2.891
 5811SOL    HW129464   4.341   4.683   2.882
 5811SOL    HW229465   4.234   4.594   2.968
 5812SOL     OW29466   5.452   4.659   3.716
 5812SOL    HW129467   5.406   4.652   3.627
 5812SOL    HW229468   5.390   4.703   3.782
 5813SOL     OW29469   5.583   5.242   3.467
 5813SOL    HW129470   5.597   5.269   3.372
 5813SOL    HW229471   5.666   5.264   3.520
 5814SOL     OW29472   5.027   4.562   1.904
 5814SOL    HW129473   5.061   4.469   1.919
 5814SOL    HW229474   5.045   4.589   1.809
 5815SOL     OW29475   3.732   5.050   2.062
 5815SOL    HW129476   3.639   5.071   2.031
 5815SOL    HW229477   3.742   4.951   2.075
 5816SOL     OW29478   4.228   5.292   2.772
 5816SOL    HW129479   4.294   5.366   2.781
 5816SOL    HW229480   4.272   5.213   2.730
 5817SOL     OW29481   4.726   4.520   3.100
 5817SOL    HW129482   4.767   4.488   3.186
 5817SOL    HW229483   4.630   4.493   3.097
 5818SOL     OW29484   3.913   4.244   3.584
 5818SOL    HW129485   3.972   4.204   3.514
 5818SOL    HW229486   3.855   4.315   3.543
 5819SOL     OW29487   4.539   4.296   2.187
 5819SOL    HW129488   4.546   4.207   2.141
 5819SOL    HW229489   4.445   4.330   2.179
 5820SOL     OW29490   4.395   4.188   3.131
 5820SOL    HW129491   4.361   4.099   3.101
 5820SOL    HW229492   4.421   4.242   3.051
 5821SOL     OW29493   4.654   5.402   3.327
 5821SOL    HW129494   4.630   5.384   3.232
 5821SOL    HW229495   4.684   5.496   3.337
 5822SOL     OW29496   4.197   4.224   2.053
 5822SOL    HW129497   4.258   4.304   2.057
 5822SOL    HW229498   4.102   4.255   2.060
 5823SOL     OW29499   3.807   4.982   2.884
 5823SOL    HW129500   3.802   4.981   2.984
 5823SOL    HW229501   3.724   4.941   2.846
 5824SOL     OW29502   4.412   5.386   3.578
 5824SOL    HW129503   4.356   5.467   3.587
 5824SOL    HW229504   4.464   5.390   3.492
 5825SOL     OW29505   5.450   3.859   2.385
 5825SOL    HW129506   5.523   3.842   2.318
 5825SOL    HW229507   5.419   3.772   2.423
 5826SOL     OW29508   5.112   5.297   2.339
 5826SOL    HW129509   5.179   5.309   2.265
 5826SOL    HW229510   5.072   5.386   2.362
 5827SOL     OW29511   3.854   5.518   3.713
 5827SOL    HW129512   3.813   5.444   3.766
 5827SOL    HW229513   3.918   5.569   3.771
 5828SOL     OW29514   4.396   5.340   2.016
 5828SOL    HW129515   4.405   5.350   1.917
 5828SOL    HW229516   4.356   5.251   2.037
 5829SOL     OW29517   5.565   3.899   2.825
 5829SOL    HW129518   5.604   3.814   2.789
 5829SOL    HW229519   5.467   3.901   2.806
 5830SOL     OW29520   4.738   3.960   2.833
 5830SOL    HW129521   4.730   3.924   2.740
 5830SOL    HW229522   4.736   3.884   2.898
 5831SOL     OW29523   3.799   4.069   1.895
 5831SOL    HW129524   3.707   4.041   1.866
 5831SOL    HW229525   3.830   4.146   1.839
 5832SOL     OW29526   4.114   5.465   3.422
 5832SOL    HW129527   4.023   5.506   3.420
 5832SOL    HW229528   4.107   5.371   3.454
 5833SOL     OW29529   4.318   4.469   2.514
 5833SOL    HW129530   4.368   4.554   2.495
 5833SOL    HW229531   4.230   4.471   2.466
 5834SOL     OW29532   5.454   4.658   3.379
 5834SOL    HW129533   5.492   4.749   3.394
 5834SOL    HW229534   5.446   4.641   3.280
 5835SOL     OW29535   4.385   5.514   2.815
 5835SOL    HW129536   4.339   5.602   2.802
 5835SOL    HW229537   4.484   5.526   2.808
 5836SOL     OW29538   4.583   4.680   2.723
 5836SOL    HW129539   4.637   4.611   2.771
 5836SOL    HW229540   4.551   4.749   2.789
 5837SOL     OW29541   3.803   4.964   2.515
 5837SOL    HW129542   3.802   4.917   2.603
 5837SOL    HW229543   3.885   4.936   2.464
 5838SOL     OW29544   4.396   5.115   3.486
 5838SOL    HW129545   4.318   5.065   3.524
 5838SOL    HW229546   4.393   5.210   3.517
 5839SOL     OW29547   5.548   3.916   3.089
 5839SOL    HW129548   5.544   3.826   3.133
 5839SOL    HW229549   5.551   3.905   2.990
 5840SOL     OW29550   5.429   5.211   2.966
 5840SOL    HW129551   5.336   5.186   2.939
 5840SOL    HW229552   5.455   5.161   3.048
 5841SOL     OW29553   4.342   5.291   3.146
 5841SOL    HW129554   4.337   5.373   3.203
 5841SOL    HW229555   4.431   5.288   3.101
 5842SOL     OW29556   4.599   5.370   2.199
 5842SOL    HW129557   4.522   5.335   2.145
 5842SOL    HW229558   4.567   5.441   2.261
 5843SOL     OW29559   3.949   3.999   4.720
 5843SOL    HW129560   3.984   3.982   4.812
 5843SOL    HW229561   3.861   3.954   4.708
 5844SOL     OW29562   5.279   5.235   4.427
 5844SOL    HW129563   5.222   5.219   4.508
 5844SOL    HW229564   5.220   5.245   4.347
 5845SOL     OW29565   5.479   4.331   3.955
 5845SOL    HW129566   5.467   4.318   3.856
 5845SOL    HW229567   5.449   4.250   4.004
 5846SOL     OW29568   4.492   4.868   4.747
 5846SOL    HW129569   4.414   4.885   4.807
 5846SOL    HW229570   4.526   4.955   4.711
 5847SOL     OW29571   4.574   4.522   5.547
 5847SOL    HW129572   4.570   4.598   5.612
 5847SOL    HW229573   4.596   4.558   5.456
 5848SOL     OW29574   4.410   4.885   5.527
 5848SOL    HW129575   4.470   4.964   5.541
 5848SOL    HW229576   4.324   4.916   5.486
 5849SOL     OW29577   5.184   5.229   5.063
 5849SOL    HW129578   5.208   5.323   5.089
 5849SOL    HW229579   5.168   5.175   5.145
 5850SOL     OW29580   4.851   5.065   5.414
 5850SOL    HW129581   4.898   5.065   5.502
 5850SOL    HW229582   4.803   4.978   5.403
 5851SOL     OW29583   3.964   4.815   4.610
 5851SOL    HW129584   3.978   4.731   4.662
 5851SOL    HW229585   3.909   4.879   4.665
 5852SOL     OW29586   4.330   4.688   3.847
 5852SOL    HW129587   4.337   4.772   3.793
 5852SOL    HW229588   4.376   4.701   3.935
 5853SOL     OW29589   5.318   3.838   5.204
 5853SOL    HW129590   5.300   3.905   5.132
 5853SOL    HW229591   5.315   3.884   5.293
 5854SOL     OW29592   4.337   5.089   4.450
 5854SOL    HW129593   4.288   5.002   4.459
 5854SOL    HW229594   4.314   5.132   4.363
 5855SOL     OW29595   4.533   3.728   4.226
 5855SOL    HW129596   4.573   3.819   4.217
 5855SOL    HW229597   4.433   3.736   4.232
 5856SOL     OW29598   4.911   5.516   5.340
 5856SOL    HW129599   4.935   5.576   5.264
 5856SOL    HW229600   4.918   5.421   5.310
 5857SOL     OW29601   5.391   5.438   4.296
 5857SOL    HW129602   5.350   5.415   4.208
 5857SOL    HW229603   5.373   5.364   4.361
 5858SOL     OW29604   4.589   4.072   3.919
 5858SOL    HW129605   4.648   4.135   3.870
 5858SOL    HW229606   4.608   3.978   3.890
 5859SOL     OW29607   4.835   5.500   3.961
 5859SOL    HW129608   4.775   5.438   4.011
 5859SOL    HW229609   4.866   5.456   3.876
 5860SOL     OW29610   4.338   3.846   3.841
 5860SOL    HW129611   4.436   3.824   3.848
 5860SOL    HW229612   4.307   3.829   3.748
 5861SOL     OW29613   4.505   3.988   5.473
 5861SOL    HW129614   4.572   3.927   5.516
 5861SOL    HW229615   4.432   4.007   5.538
 5862SOL     OW29616   4.612   5.238   4.919
 5862SOL    HW129617   4.589   5.213   4.825
 5862SOL    HW229618   4.673   5.169   4.958
 5863SOL     OW29619   4.263   3.788   4.236
 5863SOL    HW129620   4.182   3.789   4.294
 5863SOL    HW229621   4.266   3.871   4.181
 5864SOL     OW29622   5.158   4.912   3.765
 5864SOL    HW129623   5.190   4.836   3.822
 5864SOL    HW229624   5.066   4.939   3.795
 5865SOL     OW29625   4.183   4.876   4.465
 5865SOL    HW129626   4.112   4.849   4.530
 5865SOL    HW229627   4.157   4.848   4.372
 5866SOL     OW29628   4.741   3.763   4.477
 5866SOL    HW129629   4.669   3.768   4.408
 5866SOL    HW229630   4.717   3.694   4.546
 5867SOL     OW29631   5.581   4.557   4.101
 5867SOL    HW129632   5.623   4.493   4.165
 5867SOL    HW229633   5.543   4.506   4.023
 5868SOL     OW29634   4.212   5.109   3.898
 5868SOL    HW129635   4.125   5.094   3.945
 5868SOL    HW229636   4.195   5.135   3.803
 5869SOL     OW29637   5.388   5.004   4.381
 5869SOL    HW129638   5.487   5.012   4.395
 5869SOL    HW229639   5.343   5.088   4.412
 5870SOL     OW29640   5.114   4.299   3.802
 5870SOL    HW129641   5.060   4.278   3.883
 5870SOL    HW229642   5.205   4.258   3.811
 5871SOL     OW29643   4.639   3.813   5.126
 5871SOL    HW129644   4.664   3.793   5.031
 5871SOL    HW229645   4.711   3.869   5.168
 5872SOL     OW29646   4.704   4.840   5.443
 5872SOL    HW129647   4.605   4.846   5.453
 5872SOL    HW229648   4.727   4.760   5.387
 5873SOL     OW29649   4.134   4.537   4.975
 5873SOL    HW129650   4.220   4.549   5.025
 5873SOL    HW229651   4.092   4.450   5.002
 5874SOL     OW29652   4.737   3.829   5.494
 5874SOL    HW129653   4.743   3.914   5.442
 5874SOL    HW229654   4.769   3.753   5.437
 5875SOL     OW29655   4.228   3.774   5.464
 5875SOL    HW129656   4.186   3.717   5.394
 5875SOL    HW229657   4.162   3.843   5.496
 5876SOL     OW29658   3.761   5.034   5.006
 5876SOL    HW129659   3.814   4.985   5.074
 5876SOL    HW229660   3.783   5.132   5.011
 5877SOL     OW29661   4.747   4.490   4.690
 5877SOL    HW129662   4.762   4.511   4.786
 5877SOL    HW229663   4.717   4.395   4.681
 5878SOL     OW29664   5.583   5.242   5.329
 5878SOL    HW129665   5.597   5.269   5.234
 5878SOL    HW229666   5.666   5.264   5.382
 5879SOL     OW29667   5.264   3.998   3.849
 5879SOL    HW129668   5.203   3.923   3.872
 5879SOL    HW229669   5.286   4.050   3.932
 5880SOL     OW29670   4.043   4.534   4.673
 5880SOL    HW129671   4.136   4.570   4.678
 5880SOL    HW229672   4.037   4.449   4.725
 5881SOL     OW29673   4.862   4.104   5.402
 5881SOL    HW129674   4.817   4.167   5.466
 5881SOL    HW229675   4.955   4.135   5.385
 5882SOL     OW29676   4.726   4.520   4.962
 5882SOL    HW129677   4.767   4.488   5.048
 5882SOL    HW229678   4.630   4.493   4.959
 5883SOL     OW29679   5.071   4.783   4.958
 5883SOL    HW129680   5.095   4.720   4.884
 5883SOL    HW229681   4.981   4.823   4.940
 5884SOL     OW29682   5.026   4.579   4.033
 5884SOL    HW129683   4.940   4.548   4.075
 5884SOL    HW229684   5.022   4.565   3.934
 5885SOL     OW29685   5.483   5.471   4.878
 5885SOL    HW129686   5.544   5.501   4.805
 5885SOL    HW229687   5.445   5.382   4.856
 5886SOL     OW29688   4.412   5.386   5.440
 5886SOL    HW129689   4.356   5.467   5.449
 5886SOL    HW229690   4.464   5.390   5.354
 5887SOL     OW29691   4.396   5.340   3.878
 5887SOL    HW129692   4.405   5.350   3.779
 5887SOL    HW229693   4.356   5.251   3.899
 5888SOL     OW29694   4.918   5.336   3.755
 5888SOL    HW129695   4.924   5.243   3.792
 5888SOL    HW229696   4.859   5.336   3.675
 5889SOL     OW29697   4.640   4.634   4.015
 5889SOL    HW129698   4.703   4.672   3.947
 5889SOL    HW229699   4.680   4.551   4.054
 5890SOL     OW29700   4.763   4.822   4.420
 5890SOL    HW129701   4.693   4.775   4.474
 5890SOL    HW229702   4.822   4.754   4.377
 5891SOL     OW29703   4.396   3.927   5.213
 5891SOL    HW129704   4.486   3.911   5.173
 5891SOL    HW229705   4.404   3.932   5.312
 5892SOL     OW29706   3.799   4.069   3.757
 5892SOL    HW129707   3.707   4.041   3.728
 5892SOL    HW229708   3.830   4.146   3.701
 5893SOL     OW29709   5.164   4.580   5.122
 5893SOL    HW129710   5.107   4.632   5.059
 5893SOL    HW229711   5.260   4.592   5.098
 5894SOL     OW29712   5.501   4.066   5.366
 5894SOL    HW129713   5.484   4.097   5.272
 5894SOL    HW229714   5.417   4.029   5.404
 5895SOL     OW29715   4.385   5.514   4.677
 5895SOL    HW129716   4.339   5.602   4.664
 5895SOL    HW229717   4.484   5.526   4.670
 5896SOL     OW29718   4.041   4.271   5.004
 5896SOL    HW129719   4.079   4.212   5.076
 5896SOL    HW229720   4.081   4.245   4.916
 5897SOL     OW29721   4.725   3.758   4.878
 5897SOL    HW129722   4.662   3.686   4.847
 5897SOL    HW229723   4.818   3.722   4.878
 5898SOL     OW29724   4.342   5.291   5.008
 5898SOL    HW129725   4.337   5.373   5.065
 5898SOL    HW229726   4.431   5.288   4.963
 5899SOL     OW29727   5.076   3.776   3.892
 5899SOL    HW129728   5.111   3.735   3.808
 5899SOL    HW229729   4.986   3.738   3.912
 5900SOL     OW29730   5.024   4.177   4.415
 5900SOL    HW129731   4.965   4.257   4.419
 5900SOL    HW229732   5.039   4.142   4.508
 5901SOL     OW29733   4.599   5.370   4.061
 5901SOL    HW129734   4.522   5.335   4.007
 5901SOL    HW229735   4.567   5.441   4.123
 5902SOL     OW29736   3.954   4.352   5.699
 5902SOL    HW129737   3.861   4.350   5.736
 5902SOL    HW229738   3.955   4.313   5.607
 5903SOL     OW29739   3.949   3.999   6.582
 5903SOL    HW129740   3.984   3.982   6.674
 5903SOL    HW229741   3.861   3.954   6.570
 5904SOL     OW29742   4.293   4.999   6.751
 5904SOL    HW129743   4.200   4.992   6.714
 5904SOL    HW229744   4.304   5.088   6.795
 5905SOL     OW29745   5.279   5.235   6.289
 5905SOL    HW129746   5.222   5.219   6.370
 5905SOL    HW229747   5.220   5.245   6.209
 5906SOL     OW29748   4.859   4.427   6.303
 5906SOL    HW129749   4.916   4.505   6.278
 5906SOL    HW229750   4.799   4.453   6.379
 5907SOL     OW29751   4.492   4.868   6.609
 5907SOL    HW129752   4.414   4.885   6.669
 5907SOL    HW229753   4.526   4.955   6.573
 5908SOL     OW29754   4.409   4.736   6.251
 5908SOL    HW129755   4.478   4.720   6.321
 5908SOL    HW229756   4.336   4.793   6.289
 5909SOL     OW29757   4.059   5.159   6.647
 5909SOL    HW129758   3.981   5.128   6.594
 5909SOL    HW229759   4.117   5.217   6.590
 5910SOL     OW29760   5.184   5.229   6.925
 5910SOL    HW129761   5.208   5.323   6.951
 5910SOL    HW229762   5.168   5.175   7.007
 5911SOL     OW29763   4.162   4.116   7.085
 5911SOL    HW129764   4.244   4.060   7.094
 5911SOL    HW229765   4.081   4.058   7.089
 5912SOL     OW29766   5.327   4.171   6.323
 5912SOL    HW129767   5.253   4.217   6.273
 5912SOL    HW229768   5.378   4.239   6.376
 5913SOL     OW29769   3.955   5.437   6.069
 5913SOL    HW129770   3.989   5.514   6.123
 5913SOL    HW229771   3.999   5.437   5.979
 5914SOL     OW29772   3.954   5.158   6.124
 5914SOL    HW129773   3.928   5.254   6.124
 5914SOL    HW229774   3.883   5.104   6.169
 5915SOL     OW29775   3.964   4.815   6.472
 5915SOL    HW129776   3.978   4.731   6.524
 5915SOL    HW229777   3.909   4.879   6.527
 5916SOL     OW29778   4.344   5.510   7.025
 5916SOL    HW129779   4.252   5.493   7.060
 5916SOL    HW229780   4.372   5.602   7.051
 5917SOL     OW29781   5.318   3.838   7.066
 5917SOL    HW129782   5.300   3.905   6.994
 5917SOL    HW229783   5.315   3.884   7.155
 5918SOL     OW29784   3.846   4.367   6.149
 5918SOL    HW129785   3.801   4.279   6.166
 5918SOL    HW229786   3.845   4.421   6.233
 5919SOL     OW29787   3.751   5.320   5.703
 5919SOL    HW129788   3.732   5.224   5.724
 5919SOL    HW229789   3.718   5.378   5.778
 5920SOL     OW29790   5.413   4.646   6.198
 5920SOL    HW129791   5.508   4.617   6.206
 5920SOL    HW229792   5.405   4.711   6.123
 5921SOL     OW29793   5.365   4.832   6.018
 5921SOL    HW129794   5.451   4.834   5.966
 5921SOL    HW229795   5.379   4.879   6.106
 5922SOL     OW29796   4.337   5.089   6.312
 5922SOL    HW129797   4.288   5.002   6.321
 5922SOL    HW229798   4.314   5.132   6.225
 5923SOL     OW29799   3.921   4.700   6.850
 5923SOL    HW129800   4.010   4.655   6.836
 5923SOL    HW229801   3.848   4.635   6.831
 5924SOL     OW29802   5.249   4.723   5.776
 5924SOL    HW129803   5.186   4.647   5.789
 5924SOL    HW229804   5.297   4.741   5.862
 5925SOL     OW29805   5.190   5.141   6.539
 5925SOL    HW129806   5.131   5.147   6.619
 5925SOL    HW229807   5.175   5.053   6.493
 5926SOL     OW29808   4.322   4.453   5.856
 5926SOL    HW129809   4.346   4.522   5.788
 5926SOL    HW229810   4.244   4.486   5.910
 5927SOL     OW29811   5.005   4.069   6.530
 5927SOL    HW129812   4.919   4.019   6.517
 5927SOL    HW229813   5.067   4.015   6.586
 5928SOL     OW29814   4.531   4.329   7.051
 5928SOL    HW129815   4.484   4.326   7.140
 5928SOL    HW229816   4.480   4.274   6.985
 5929SOL     OW29817   4.715   4.134   6.828
 5929SOL    HW129818   4.638   4.168   6.882
 5929SOL    HW229819   4.681   4.083   6.749
 5930SOL     OW29820   4.765   4.425   6.015
 5930SOL    HW129821   4.791   4.421   6.111
 5930SOL    HW229822   4.680   4.374   6.001
 5931SOL     OW29823   3.800   4.535   6.375
 5931SOL    HW129824   3.899   4.523   6.384
 5931SOL    HW229825   3.776   4.630   6.396
 5932SOL     OW29826   3.854   5.545   7.157
 5932SOL    HW129827   3.844   5.530   7.256
 5932SOL    HW229828   3.768   5.581   7.121
 5933SOL     OW29829   5.086   4.868   6.131
 5933SOL    HW129830   5.169   4.839   6.083
 5933SOL    HW229831   5.037   4.935   6.075
 5934SOL     OW29832   4.274   3.920   6.471
 5934SOL    HW129833   4.269   3.915   6.571
 5934SOL    HW229834   4.276   4.016   6.442
 5935SOL     OW29835   4.732   5.180   6.063
 5935SOL    HW129836   4.686   5.252   6.011
 5935SOL    HW229837   4.728   5.200   6.161
 5936SOL     OW29838   4.075   5.525   6.439
 5936SOL    HW129839   4.125   5.439   6.445
 5936SOL    HW229840   4.140   5.602   6.436
 5937SOL     OW29841   5.519   4.790   6.459
 5937SOL    HW129842   5.457   4.775   6.383
 5937SOL    HW229843   5.467   4.801   6.544
 5938SOL     OW29844   4.045   4.667   5.828
 5938SOL    HW129845   4.127   4.706   5.786
 5938SOL    HW229846   4.018   4.585   5.779
 5939SOL     OW29847   5.182   4.459   6.314
 5939SOL    HW129848   5.177   4.394   6.389
 5939SOL    HW229849   5.262   4.518   6.327
 5940SOL     OW29850   4.835   5.500   5.823
 5940SOL    HW129851   4.775   5.438   5.873
 5940SOL    HW229852   4.866   5.456   5.738
 5941SOL     OW29853   3.926   4.009   7.084
 5941SOL    HW129854   3.846   4.069   7.071
 5941SOL    HW229855   3.916   3.960   7.170
 5942SOL     OW29856   4.188   5.467   5.909
 5942SOL    HW129857   4.221   5.506   5.995
 5942SOL    HW229858   4.264   5.460   5.844
 5943SOL     OW29859   5.124   3.831   6.012
 5943SOL    HW129860   5.100   3.794   5.922
 5943SOL    HW229861   5.223   3.847   6.016
 5944SOL     OW29862   3.973   5.509   6.827
 5944SOL    HW129863   4.030   5.444   6.877
 5944SOL    HW229864   3.957   5.476   6.734
 5945SOL     OW29865   4.664   5.422   6.490
 5945SOL    HW129866   4.744   5.365   6.511
 5945SOL    HW229867   4.615   5.382   6.413
 5946SOL     OW29868   4.106   4.424   6.066
 5946SOL    HW129869   4.151   4.334   6.063
 5946SOL    HW229870   4.012   4.413   6.099
 5947SOL     OW29871   4.612   5.238   6.781
 5947SOL    HW129872   4.589   5.213   6.687
 5947SOL    HW229873   4.673   5.169   6.820
 5948SOL     OW29874   4.527   5.126   6.510
 5948SOL    HW129875   4.617   5.140   6.468
 5948SOL    HW229876   4.456   5.128   6.439
 5949SOL     OW29877   4.646   4.227   6.485
 5949SOL    HW129878   4.621   4.218   6.389
 5949SOL    HW229879   4.694   4.145   6.516
 5950SOL     OW29880   5.158   4.912   5.627
 5950SOL    HW129881   5.190   4.836   5.684
 5950SOL    HW229882   5.066   4.939   5.657
 5951SOL     OW29883   4.951   5.294   6.379
 5951SOL    HW129884   4.972   5.368   6.314
 5951SOL    HW229885   5.019   5.294   6.452
 5952SOL     OW29886   4.183   4.876   6.327
 5952SOL    HW129887   4.112   4.849   6.392
 5952SOL    HW229888   4.157   4.848   6.234
 5953SOL     OW29889   4.995   5.521   6.177
 5953SOL    HW129890   5.039   5.585   6.113
 5953SOL    HW229891   4.945   5.573   6.247
 5954SOL     OW29892   4.756   4.273   5.602
 5954SOL    HW129893   4.715   4.355   5.563
 5954SOL    HW229894   4.820   4.299   5.675
 5955SOL     OW29895   3.802   4.280   6.972
 5955SOL    HW129896   3.894   4.279   6.931
 5955SOL    HW229897   3.796   4.354   7.039
 5956SOL     OW29898   4.285   3.946   6.733
 5956SOL    HW129899   4.323   3.862   6.770
 5956SOL    HW229900   4.197   3.965   6.777
 5957SOL     OW29901   4.590   4.178   6.228
 5957SOL    HW129902   4.558   4.250   6.166
 5957SOL    HW229903   4.614   4.097   6.175
 5958SOL     OW29904   4.741   3.763   6.339
 5958SOL    HW129905   4.669   3.768   6.270
 5958SOL    HW229906   4.717   3.694   6.408
 5959SOL     OW29907   5.153   4.897   6.453
 5959SOL    HW129908   5.098   4.813   6.446
 5959SOL    HW229909   5.179   4.926   6.361
 5960SOL     OW29910   5.190   4.314   6.578
 5960SOL    HW129911   5.160   4.219   6.585
 5960SOL    HW229912   5.263   4.330   6.644
 5961SOL     OW29913   5.388   5.004   6.243
 5961SOL    HW129914   5.487   5.012   6.257
 5961SOL    HW229915   5.343   5.088   6.274
 5962SOL     OW29916   5.114   4.299   5.664
 5962SOL    HW129917   5.060   4.278   5.745
 5962SOL    HW229918   5.205   4.258   5.673
 5963SOL     OW29919   4.788   5.071   6.926
 5963SOL    HW129920   4.708   5.048   6.981
 5963SOL    HW229921   4.871   5.045   6.975
 5964SOL     OW29922   4.835   4.919   6.686
 5964SOL    HW129923   4.795   4.963   6.767
 5964SOL    HW229924   4.794   4.956   6.603
 5965SOL     OW29925   5.362   4.823   6.665
 5965SOL    HW129926   5.367   4.904   6.724
 5965SOL    HW229927   5.276   4.825   6.614
 5966SOL     OW29928   4.639   3.813   6.988
 5966SOL    HW129929   4.664   3.793   6.893
 5966SOL    HW229930   4.711   3.869   7.030
 5967SOL     OW29931   4.429   4.774   5.954
 5967SOL    HW129932   4.415   4.781   6.053
 5967SOL    HW229933   4.513   4.723   5.936
 5968SOL     OW29934   4.134   4.537   6.837
 5968SOL    HW129935   4.220   4.549   6.887
 5968SOL    HW229936   4.092   4.450   6.864
 5969SOL     OW29937   4.998   4.110   6.848
 5969SOL    HW129938   5.019   4.184   6.912
 5969SOL    HW229939   4.909   4.127   6.805
 5970SOL     OW29940   3.788   5.288   6.917
 5970SOL    HW129941   3.742   5.370   6.883
 5970SOL    HW229942   3.886   5.307   6.926
 5971SOL     OW29943   4.091   4.824   6.087
 5971SOL    HW129944   4.084   4.907   6.031
 5971SOL    HW229945   4.095   4.744   6.027
 5972SOL     OW29946   4.290   4.261   6.451
 5972SOL    HW129947   4.302   4.327   6.377
 5972SOL    HW229948   4.336   4.295   6.534
 5973SOL     OW29949   4.976   5.072   5.974
 5973SOL    HW129950   5.026   5.149   6.014
 5973SOL    HW229951   4.881   5.074   6.006
 5974SOL     OW29952   4.996   5.169   6.728
 5974SOL    HW129953   5.043   5.182   6.815
 5974SOL    HW229954   4.930   5.095   6.737
 5975SOL     OW29955   4.078   5.234   6.915
 5975SOL    HW129956   4.057   5.190   6.828
 5975SOL    HW229957   4.175   5.260   6.918
 5976SOL     OW29958   4.126   4.475   7.184
 5976SOL    HW129959   4.194   4.530   7.137
 5976SOL    HW229960   4.166   4.387   7.211
 5977SOL     OW29961   5.311   4.503   7.256
 5977SOL    HW129962   5.219   4.541   7.251
 5977SOL    HW229963   5.371   4.550   7.191
 5978SOL     OW29964   4.297   4.594   6.615
 5978SOL    HW129965   4.341   4.683   6.606
 5978SOL    HW229966   4.234   4.594   6.692
 5979SOL     OW29967   5.084   4.586   6.631
 5979SOL    HW129968   5.009   4.586   6.565
 5979SOL    HW229969   5.121   4.494   6.640
 5980SOL     OW29970   4.031   3.937   6.817
 5980SOL    HW129971   4.008   3.974   6.907
 5980SOL    HW229972   4.001   3.842   6.811
 5981SOL     OW29973   3.761   5.034   6.868
 5981SOL    HW129974   3.814   4.985   6.936
 5981SOL    HW229975   3.783   5.132   6.873
 5982SOL     OW29976   4.456   4.358   6.650
 5982SOL    HW129977   4.515   4.332   6.574
 5982SOL    HW229978   4.428   4.454   6.639
 5983SOL     OW29979   4.031   3.787   6.204
 5983SOL    HW129980   4.020   3.881   6.237
 5983SOL    HW229981   4.026   3.724   6.281
 5984SOL     OW29982   4.747   4.490   6.552
 5984SOL    HW129983   4.762   4.511   6.648
 5984SOL    HW229984   4.717   4.395   6.543
 5985SOL     OW29985   4.704   5.297   7.286
 5985SOL    HW129986   4.684   5.341   7.198
 5985SOL    HW229987   4.743   5.206   7.270
 5986SOL     OW29988   4.792   5.057   6.435
 5986SOL    HW129989   4.799   4.973   6.380
 5986SOL    HW229990   4.854   5.126   6.399
 5987SOL     OW29991   4.043   4.534   6.535
 5987SOL    HW129992   4.136   4.570   6.540
 5987SOL    HW229993   4.037   4.449   6.587
 5988SOL     OW29994   4.063   4.233   6.592
 5988SOL    HW129995   4.011   4.150   6.575
 5988SOL    HW229996   4.140   4.238   6.528
 5989SOL     OW29997   4.862   4.104   7.264
 5989SOL    HW129998   4.817   4.167   7.328
 5989SOL    HW229999   4.955   4.135   7.247
 5990SOL     OW30000   4.884   3.931   7.063
 5990SOL    HW130001   4.884   3.995   7.140
 5990SOL    HW230002   4.912   3.979   6.980
 5991SOL     OW30003   3.732   5.050   5.786
 5991SOL    HW130004   3.639   5.071   5.755
 5991SOL    HW230005   3.742   4.951   5.799
 5992SOL     OW30006   3.812   5.525   6.513
 5992SOL    HW130007   3.770   5.439   6.486
 5992SOL    HW230008   3.906   5.528   6.479
 5993SOL     OW30009   4.228   5.292   6.496
 5993SOL    HW130010   4.294   5.366   6.505
 5993SOL    HW230011   4.272   5.213   6.454
 5994SOL     OW30012   4.726   4.520   6.824
 5994SOL    HW130013   4.767   4.488   6.910
 5994SOL    HW230014   4.630   4.493   6.821
 5995SOL     OW30015   3.764   4.268   6.700
 5995SOL    HW130016   3.849   4.235   6.659
 5995SOL    HW230017   3.777   4.283   6.798
 5996SOL     OW30018   5.381   4.328   6.792
 5996SOL    HW130019   5.343   4.259   6.854
 5996SOL    HW230020   5.463   4.292   6.748
 5997SOL     OW30021   4.395   4.188   6.855
 5997SOL    HW130022   4.361   4.099   6.825
 5997SOL    HW230023   4.421   4.242   6.775
 5998SOL     OW30024   4.654   5.402   7.051
 5998SOL    HW130025   4.630   5.384   6.956
 5998SOL    HW230026   4.684   5.496   7.061
 5999SOL     OW30027   3.883   4.861   7.052
 5999SOL    HW130028   3.905   4.800   7.128
 5999SOL    HW230029   3.893   4.812   6.966
 6000SOL     OW30030   5.071   4.783   6.820
 6000SOL    HW130031   5.095   4.720   6.746
 6000SOL    HW230032   4.981   4.823   6.802
 6001SOL     OW30033   5.483   5.471   6.740
 6001SOL    HW130034   5.544   5.501   6.667
 6001SOL    HW230035   5.445   5.382   6.718
 6002SOL     OW30036   4.976   5.455   6.714
 6002SOL    HW130037   5.060   5.460   6.660
 6002SOL    HW230038   4.953   5.359   6.732
 6003SOL     OW30039   3.807   4.982   6.608
 6003SOL    HW130040   3.802   4.981   6.708
 6003SOL    HW230041   3.724   4.941   6.570
 6004SOL     OW30042   5.450   3.859   6.109
 6004SOL    HW130043   5.523   3.842   6.042
 6004SOL    HW230044   5.419   3.772   6.147
 6005SOL     OW30045   5.112   5.297   6.063
 6005SOL    HW130046   5.179   5.309   5.989
 6005SOL    HW230047   5.072   5.386   6.086
 6006SOL     OW30048   5.004   4.651   6.258
 6006SOL    HW130049   5.064   4.570   6.260
 6006SOL    HW230050   5.044   4.720   6.198
 6007SOL     OW30051   4.396   5.340   5.740
 6007SOL    HW130052   4.405   5.350   5.641
 6007SOL    HW230053   4.356   5.251   5.761
 6008SOL     OW30054   5.374   5.444   6.980
 6008SOL    HW130055   5.427   5.454   6.896
 6008SOL    HW230056   5.347   5.534   7.014
 6009SOL     OW30057   3.987   4.050   6.306
 6009SOL    HW130058   3.908   4.101   6.272
 6009SOL    HW230059   3.978   4.035   6.404
 6010SOL     OW30060   4.918   5.336   5.617
 6010SOL    HW130061   4.924   5.243   5.654
 6010SOL    HW230062   4.859   5.336   5.537
 6011SOL     OW30063   4.546   4.726   6.958
 6011SOL    HW130064   4.586   4.725   6.866
 6011SOL    HW230065   4.556   4.818   6.998
 6012SOL     OW30066   4.640   4.634   5.877
 6012SOL    HW130067   4.703   4.672   5.809
 6012SOL    HW230068   4.680   4.551   5.916
 6013SOL     OW30069   4.096   5.012   7.076
 6013SOL    HW130070   4.083   5.105   7.042
 6013SOL    HW230071   4.012   4.960   7.063
 6014SOL     OW30072   5.338   5.016   6.875
 6014SOL    HW130073   5.398   5.019   6.955
 6014SOL    HW230074   5.263   5.080   6.888
 6015SOL     OW30075   4.763   4.822   6.282
 6015SOL    HW130076   4.693   4.775   6.336
 6015SOL    HW230077   4.822   4.754   6.239
 6016SOL     OW30078   4.738   3.960   6.557
 6016SOL    HW130079   4.730   3.924   6.464
 6016SOL    HW230080   4.736   3.884   6.622
 6017SOL     OW30081   4.314   5.211   6.077
 6017SOL    HW130082   4.356   5.153   6.007
 6017SOL    HW230083   4.270   5.290   6.033
 6018SOL     OW30084   5.433   4.109   6.967
 6018SOL    HW130085   5.506   4.178   6.971
 6018SOL    HW230086   5.461   4.034   6.908
 6019SOL     OW30087   3.979   5.072   5.876
 6019SOL    HW130088   3.883   5.073   5.849
 6019SOL    HW230089   3.991   5.125   5.960
 6020SOL     OW30090   5.164   4.580   6.984
 6020SOL    HW130091   5.107   4.632   6.921
 6020SOL    HW230092   5.260   4.592   6.960
 6021SOL     OW30093   3.796   3.890   5.904
 6021SOL    HW130094   3.779   3.973   5.850
 6021SOL    HW230095   3.886   3.853   5.882
 6022SOL     OW30096   4.907   5.059   5.705
 6022SOL    HW130097   4.808   5.048   5.707
 6022SOL    HW230098   4.941   5.074   5.798
 6023SOL     OW30099   4.337   4.566   7.017
 6023SOL    HW130100   4.393   4.647   7.000
 6023SOL    HW230101   4.396   4.486   7.020
 6024SOL     OW30102   5.217   5.491   6.545
 6024SOL    HW130103   5.250   5.555   6.476
 6024SOL    HW230104   5.283   5.485   6.620
 6025SOL     OW30105   4.114   5.465   7.146
 6025SOL    HW130106   4.023   5.506   7.144
 6025SOL    HW230107   4.107   5.371   7.178
 6026SOL     OW30108   5.398   4.607   6.840
 6026SOL    HW130109   5.371   4.518   6.803
 6026SOL    HW230110   5.399   4.675   6.767
 6027SOL     OW30111   4.318   4.469   6.238
 6027SOL    HW130112   4.368   4.554   6.219
 6027SOL    HW230113   4.230   4.471   6.190
 6028SOL     OW30114   5.501   4.066   7.228
 6028SOL    HW130115   5.484   4.097   7.134
 6028SOL    HW230116   5.417   4.029   7.266
 6029SOL     OW30117   5.454   4.658   7.103
 6029SOL    HW130118   5.492   4.749   7.118
 6029SOL    HW230119   5.446   4.641   7.004
 6030SOL     OW30120   4.583   5.098   5.602
 6030SOL    HW130121   4.537   5.113   5.690
 6030SOL    HW230122   4.627   5.183   5.572
 6031SOL     OW30123   4.385   5.514   6.539
 6031SOL    HW130124   4.339   5.602   6.526
 6031SOL    HW230125   4.484   5.526   6.532
 6032SOL     OW30126   4.583   4.680   6.447
 6032SOL    HW130127   4.637   4.611   6.495
 6032SOL    HW230128   4.551   4.749   6.513
 6033SOL     OW30129   4.807   4.708   5.673
 6033SOL    HW130130   4.784   4.761   5.591
 6033SOL    HW230131   4.888   4.652   5.654
 6034SOL     OW30132   5.585   5.293   6.437
 6034SOL    HW130133   5.514   5.281   6.367
 6034SOL    HW230134   5.586   5.214   6.497
 6035SOL     OW30135   3.803   4.964   6.239
 6035SOL    HW130136   3.802   4.917   6.327
 6035SOL    HW230137   3.885   4.936   6.188
 6036SOL     OW30138   5.548   3.916   6.813
 6036SOL    HW130139   5.544   3.826   6.857
 6036SOL    HW230140   5.551   3.905   6.714
 6037SOL     OW30141   4.152   4.148   6.106
 6037SOL    HW130142   4.182   4.076   6.044
 6037SOL    HW230143   4.113   4.108   6.189
 6038SOL     OW30144   5.429   5.211   6.690
 6038SOL    HW130145   5.336   5.186   6.663
 6038SOL    HW230146   5.455   5.161   6.772
 6039SOL     OW30147   4.041   4.271   6.866
 6039SOL    HW130148   4.079   4.212   6.938
 6039SOL    HW230149   4.081   4.245   6.778
 6040SOL     OW30150   4.536   5.310   6.273
 6040SOL    HW130151   4.568   5.320   6.179
 6040SOL    HW230152   4.457   5.248   6.275
 6041SOL     OW30153   5.148   3.938   6.698
 6041SOL    HW130154   5.200   3.873   6.753
 6041SOL    HW230155   5.099   4.001   6.759
 6042SOL     OW30156   4.725   3.758   6.740
 6042SOL    HW130157   4.662   3.686   6.709
 6042SOL    HW230158   4.818   3.722   6.740
 6043SOL     OW30159   4.494   5.054   5.887
 6043SOL    HW130160   4.448   4.967   5.904
 6043SOL    HW230161   4.585   5.051   5.928
 6044SOL     OW30162   4.342   5.291   6.870
 6044SOL    HW130163   4.337   5.373   6.927
 6044SOL    HW230164   4.431   5.288   6.825
 6045SOL     OW30165   5.024   4.177   6.277
 6045SOL    HW130166   4.965   4.257   6.281
 6045SOL    HW230167   5.039   4.142   6.370
 6046SOL     OW30168   5.317   3.945   6.468
 6046SOL    HW130169   5.233   3.944   6.522
 6046SOL    HW230170   5.319   4.028   6.412
 6047SOL     OW30171   3.763   4.801   5.886
 6047SOL    HW130172   3.862   4.790   5.877
 6047SOL    HW230173   3.723   4.715   5.918
 6048SOL     OW30174   4.599   5.370   5.923
 6048SOL    HW130175   4.522   5.335   5.869
 6048SOL    HW230176   4.567   5.441   5.985
 6049SOL     OW30177   3.954   6.214   0.113
 6049SOL    HW130178   3.861   6.212   0.150
 6049SOL    HW230179   3.955   6.175   0.021
 6050SOL     OW30180   3.949   5.861   0.996
 6050SOL    HW130181   3.984   5.844   1.088
 6050SOL    HW230182   3.861   5.816   0.984
 6051SOL     OW30183   3.743   5.954   0.647
 6051SOL    HW130184   3.661   5.997   0.686
 6051SOL    HW230185   3.715   5.881   0.584
 6052SOL     OW30186   4.293   6.861   1.165
 6052SOL    HW130187   4.200   6.854   1.128
 6052SOL    HW230188   4.304   6.950   1.209
 6053SOL     OW30189   5.279   7.097   0.703
 6053SOL    HW130190   5.222   7.081   0.784
 6053SOL    HW230191   5.220   7.107   0.623
 6054SOL     OW30192   4.859   6.289   0.717
 6054SOL    HW130193   4.916   6.367   0.692
 6054SOL    HW230194   4.799   6.315   0.793
 6055SOL     OW30195   5.479   6.193   0.231
 6055SOL    HW130196   5.467   6.180   0.132
 6055SOL    HW230197   5.449   6.112   0.280
 6056SOL     OW30198   4.492   6.730   1.023
 6056SOL    HW130199   4.414   6.747   1.083
 6056SOL    HW230200   4.526   6.817   0.987
 6057SOL     OW30201   4.574   6.384   1.823
 6057SOL    HW130202   4.570   6.460   1.888
 6057SOL    HW230203   4.596   6.420   1.732
 6058SOL     OW30204   4.409   6.598   0.665
 6058SOL    HW130205   4.478   6.582   0.735
 6058SOL    HW230206   4.336   6.655   0.703
 6059SOL     OW30207   4.410   6.747   1.803
 6059SOL    HW130208   4.470   6.826   1.817
 6059SOL    HW230209   4.324   6.778   1.762
 6060SOL     OW30210   4.059   7.021   1.061
 6060SOL    HW130211   3.981   6.990   1.008
 6060SOL    HW230212   4.117   7.079   1.004
 6061SOL     OW30213   5.184   7.091   1.339
 6061SOL    HW130214   5.208   7.185   1.365
 6061SOL    HW230215   5.168   7.037   1.421
 6062SOL     OW30216   4.162   5.978   1.499
 6062SOL    HW130217   4.244   5.922   1.508
 6062SOL    HW230218   4.081   5.920   1.503
 6063SOL     OW30219   5.327   6.033   0.737
 6063SOL    HW130220   5.253   6.079   0.687
 6063SOL    HW230221   5.378   6.101   0.790
 6064SOL     OW30222   3.955   7.299   0.483
 6064SOL    HW130223   3.989   7.376   0.537
 6064SOL    HW230224   3.999   7.299   0.393
 6065SOL     OW30225   4.851   6.927   1.690
 6065SOL    HW130226   4.898   6.927   1.778
 6065SOL    HW230227   4.803   6.840   1.679
 6066SOL     OW30228   3.954   7.020   0.538
 6066SOL    HW130229   3.928   7.116   0.538
 6066SOL    HW230230   3.883   6.966   0.583
 6067SOL     OW30231   3.964   6.677   0.886
 6067SOL    HW130232   3.978   6.593   0.938
 6067SOL    HW230233   3.909   6.741   0.941
 6068SOL     OW30234   4.344   7.372   1.439
 6068SOL    HW130235   4.252   7.355   1.474
 6068SOL    HW230236   4.372   7.464   1.465
 6069SOL     OW30237   4.330   6.550   0.123
 6069SOL    HW130238   4.337   6.634   0.069
 6069SOL    HW230239   4.376   6.563   0.211
 6070SOL     OW30240   5.318   5.700   1.480
 6070SOL    HW130241   5.300   5.767   1.408
 6070SOL    HW230242   5.315   5.746   1.569
 6071SOL     OW30243   3.846   6.229   0.563
 6071SOL    HW130244   3.801   6.141   0.580
 6071SOL    HW230245   3.845   6.283   0.647
 6072SOL     OW30246   5.566   7.353   0.359
 6072SOL    HW130247   5.620   7.324   0.439
 6072SOL    HW230248   5.596   7.443   0.330
 6073SOL     OW30249   3.751   7.182   0.117
 6073SOL    HW130250   3.732   7.086   0.138
 6073SOL    HW230251   3.718   7.240   0.192
 6074SOL     OW30252   5.413   6.508   0.612
 6074SOL    HW130253   5.508   6.479   0.620
 6074SOL    HW230254   5.405   6.573   0.537
 6075SOL     OW30255   5.365   6.694   0.432
 6075SOL    HW130256   5.451   6.696   0.380
 6075SOL    HW230257   5.379   6.741   0.520
 6076SOL     OW30258   3.837   6.323   1.597
 6076SOL    HW130259   3.925   6.310   1.642
 6076SOL    HW230260   3.824   6.420   1.575
 6077SOL     OW30261   4.337   6.951   0.726
 6077SOL    HW130262   4.288   6.864   0.735
 6077SOL    HW230263   4.314   6.994   0.639
 6078SOL     OW30264   5.017   6.814   1.423
 6078SOL    HW130265   5.054   6.741   1.365
 6078SOL    HW230266   5.069   6.819   1.508
 6079SOL     OW30267   4.533   5.590   0.502
 6079SOL    HW130268   4.573   5.681   0.493
 6079SOL    HW230269   4.433   5.598   0.508
 6080SOL     OW30270   3.921   6.562   1.264
 6080SOL    HW130271   4.010   6.517   1.250
 6080SOL    HW230272   3.848   6.497   1.245
 6081SOL     OW30273   5.249   6.585   0.190
 6081SOL    HW130274   5.186   6.509   0.203
 6081SOL    HW230275   5.297   6.603   0.276
 6082SOL     OW30276   4.911   7.378   1.616
 6082SOL    HW130277   4.935   7.438   1.540
 6082SOL    HW230278   4.918   7.283   1.586
 6083SOL     OW30279   5.190   7.003   0.953
 6083SOL    HW130280   5.131   7.009   1.033
 6083SOL    HW230281   5.175   6.915   0.907
 6084SOL     OW30282   5.391   7.300   0.572
 6084SOL    HW130283   5.350   7.277   0.484
 6084SOL    HW230284   5.373   7.226   0.637
 6085SOL     OW30285   4.322   6.315   0.270
 6085SOL    HW130286   4.346   6.384   0.202
 6085SOL    HW230287   4.244   6.348   0.324
 6086SOL     OW30288   5.005   5.931   0.944
 6086SOL    HW130289   4.919   5.881   0.931
 6086SOL    HW230290   5.067   5.877   1.000
 6087SOL     OW30291   5.300   7.248   0.307
 6087SOL    HW130292   5.389   7.294   0.310
 6087SOL    HW230293   5.279   7.224   0.212
 6088SOL     OW30294   4.531   6.191   1.465
 6088SOL    HW130295   4.484   6.188   1.554
 6088SOL    HW230296   4.480   6.136   1.399
 6089SOL     OW30297   4.697   6.476   1.572
 6089SOL    HW130298   4.743   6.392   1.543
 6089SOL    HW230299   4.641   6.510   1.497
 6090SOL     OW30300   4.715   5.996   1.242
 6090SOL    HW130301   4.638   6.030   1.296
 6090SOL    HW230302   4.681   5.945   1.163
 6091SOL     OW30303   4.765   6.287   0.429
 6091SOL    HW130304   4.791   6.283   0.525
 6091SOL    HW230305   4.680   6.236   0.415
 6092SOL     OW30306   3.800   6.397   0.789
 6092SOL    HW130307   3.899   6.385   0.798
 6092SOL    HW230308   3.776   6.492   0.810
 6093SOL     OW30309   3.854   7.407   1.571
 6093SOL    HW130310   3.844   7.392   1.670
 6093SOL    HW230311   3.768   7.443   1.535
 6094SOL     OW30312   4.589   5.934   0.195
 6094SOL    HW130313   4.648   5.997   0.146
 6094SOL    HW230314   4.608   5.840   0.166
 6095SOL     OW30315   5.443   6.171   1.831
 6095SOL    HW130316   5.417   6.260   1.795
 6095SOL    HW230317   5.441   6.103   1.758
 6096SOL     OW30318   5.086   6.730   0.545
 6096SOL    HW130319   5.169   6.701   0.497
 6096SOL    HW230320   5.037   6.797   0.489
 6097SOL     OW30321   4.274   5.782   0.885
 6097SOL    HW130322   4.269   5.777   0.985
 6097SOL    HW230323   4.276   5.878   0.856
 6098SOL     OW30324   4.732   7.042   0.477
 6098SOL    HW130325   4.686   7.114   0.425
 6098SOL    HW230326   4.728   7.062   0.575
 6099SOL     OW30327   4.075   7.387   0.853
 6099SOL    HW130328   4.125   7.301   0.859
 6099SOL    HW230329   4.140   7.464   0.850
 6100SOL     OW30330   5.519   6.652   0.873
 6100SOL    HW130331   5.457   6.637   0.797
 6100SOL    HW230332   5.467   6.663   0.958
 6101SOL     OW30333   4.951   7.136   1.506
 6101SOL    HW130334   4.957   7.059   1.570
 6101SOL    HW230335   4.899   7.110   1.426
 6102SOL     OW30336   4.045   6.529   0.242
 6102SOL    HW130337   4.127   6.568   0.200
 6102SOL    HW230338   4.018   6.447   0.193
 6103SOL     OW30339   5.182   6.321   0.728
 6103SOL    HW130340   5.177   6.256   0.803
 6103SOL    HW230341   5.262   6.380   0.741
 6104SOL     OW30342   4.185   6.852   1.727
 6104SOL    HW130343   4.135   6.853   1.641
 6104SOL    HW230344   4.122   6.834   1.803
 6105SOL     OW30345   4.835   7.362   0.237
 6105SOL    HW130346   4.775   7.300   0.287
 6105SOL    HW230347   4.866   7.318   0.152
 6106SOL     OW30348   3.926   5.871   1.498
 6106SOL    HW130349   3.846   5.931   1.485
 6106SOL    HW230350   3.916   5.822   1.584
 6107SOL     OW30351   5.356   6.963   0.081
 6107SOL    HW130352   5.324   7.057   0.071
 6107SOL    HW230353   5.280   6.900   0.069
 6108SOL     OW30354   4.188   7.329   0.323
 6108SOL    HW130355   4.221   7.368   0.409
 6108SOL    HW230356   4.264   7.322   0.258
 6109SOL     OW30357   5.124   5.693   0.426
 6109SOL    HW130358   5.100   5.656   0.336
 6109SOL    HW230359   5.223   5.709   0.430
 6110SOL     OW30360   3.973   7.371   1.241
 6110SOL    HW130361   4.030   7.306   1.291
 6110SOL    HW230362   3.957   7.338   1.148
 6111SOL     OW30363   4.664   7.284   0.904
 6111SOL    HW130364   4.744   7.227   0.925
 6111SOL    HW230365   4.615   7.244   0.827
 6112SOL     OW30366   4.106   6.286   0.480
 6112SOL    HW130367   4.151   6.196   0.477
 6112SOL    HW230368   4.012   6.275   0.513
 6113SOL     OW30369   4.338   5.708   0.117
 6113SOL    HW130370   4.436   5.686   0.124
 6113SOL    HW230371   4.307   5.691   0.024
 6114SOL     OW30372   4.505   5.850   1.749
 6114SOL    HW130373   4.572   5.789   1.792
 6114SOL    HW230374   4.432   5.869   1.814
 6115SOL     OW30375   4.612   7.100   1.195
 6115SOL    HW130376   4.589   7.075   1.101
 6115SOL    HW230377   4.673   7.031   1.234
 6116SOL     OW30378   5.075   6.176   1.433
 6116SOL    HW130379   5.103   6.133   1.518
 6116SOL    HW230380   5.100   6.272   1.434
 6117SOL     OW30381   4.527   6.988   0.924
 6117SOL    HW130382   4.617   7.002   0.882
 6117SOL    HW230383   4.456   6.990   0.853
 6118SOL     OW30384   4.646   6.089   0.899
 6118SOL    HW130385   4.621   6.080   0.803
 6118SOL    HW230386   4.694   6.007   0.930
 6119SOL     OW30387   4.263   5.650   0.512
 6119SOL    HW130388   4.182   5.651   0.570
 6119SOL    HW230389   4.266   5.733   0.457
 6120SOL     OW30390   5.158   6.774   0.041
 6120SOL    HW130391   5.190   6.698   0.098
 6120SOL    HW230392   5.066   6.801   0.071
 6121SOL     OW30393   4.021   5.621   0.171
 6121SOL    HW130394   4.070   5.705   0.150
 6121SOL    HW230395   4.083   5.556   0.216
 6122SOL     OW30396   4.659   5.822   0.480
 6122SOL    HW130397   4.611   5.863   0.402
 6122SOL    HW230398   4.758   5.820   0.461
 6123SOL     OW30399   4.800   6.269   1.464
 6123SOL    HW130400   4.720   6.208   1.467
 6123SOL    HW230401   4.881   6.216   1.440
 6124SOL     OW30402   4.951   7.156   0.793
 6124SOL    HW130403   4.972   7.230   0.728
 6124SOL    HW230404   5.019   7.156   0.866
 6125SOL     OW30405   4.183   6.738   0.741
 6125SOL    HW130406   4.112   6.711   0.806
 6125SOL    HW230407   4.157   6.710   0.648
 6126SOL     OW30408   4.995   7.383   0.591
 6126SOL    HW130409   5.039   7.447   0.527
 6126SOL    HW230410   4.945   7.435   0.661
 6127SOL     OW30411   4.756   6.135   0.016
 6127SOL    HW130412   4.715   6.217  -0.023
 6127SOL    HW230413   4.820   6.161   0.089
 6128SOL     OW30414   3.802   6.142   1.386
 6128SOL    HW130415   3.894   6.141   1.345
 6128SOL    HW230416   3.796   6.216   1.453
 6129SOL     OW30417   4.285   5.808   1.147
 6129SOL    HW130418   4.323   5.724   1.184
 6129SOL    HW230419   4.197   5.827   1.191
 6130SOL     OW30420   4.590   6.040   0.642
 6130SOL    HW130421   4.558   6.112   0.580
 6130SOL    HW230422   4.614   5.959   0.589
 6131SOL     OW30423   4.741   5.625   0.753
 6131SOL    HW130424   4.669   5.630   0.684
 6131SOL    HW230425   4.717   5.556   0.822
 6132SOL     OW30426   5.153   6.759   0.867
 6132SOL    HW130427   5.098   6.675   0.860
 6132SOL    HW230428   5.179   6.788   0.775
 6133SOL     OW30429   5.190   6.176   0.992
 6133SOL    HW130430   5.160   6.081   0.999
 6133SOL    HW230431   5.263   6.192   1.058
 6134SOL     OW30432   5.581   6.419   0.377
 6134SOL    HW130433   5.623   6.355   0.441
 6134SOL    HW230434   5.543   6.368   0.299
 6135SOL     OW30435   4.212   6.971   0.174
 6135SOL    HW130436   4.125   6.956   0.221
 6135SOL    HW230437   4.195   6.997   0.079
 6136SOL     OW30438   5.388   6.866   0.657
 6136SOL    HW130439   5.487   6.874   0.671
 6136SOL    HW230440   5.343   6.950   0.688
 6137SOL     OW30441   5.114   6.161   0.078
 6137SOL    HW130442   5.060   6.140   0.159
 6137SOL    HW230443   5.205   6.120   0.087
 6138SOL     OW30444   4.251   5.842   0.328
 6138SOL    HW130445   4.278   5.783   0.253
 6138SOL    HW230446   4.251   5.937   0.297
 6139SOL     OW30447   5.478   6.809   1.588
 6139SOL    HW130448   5.569   6.770   1.575
 6139SOL    HW230449   5.486   6.905   1.612
 6140SOL     OW30450   4.788   6.933   1.340
 6140SOL    HW130451   4.708   6.910   1.395
 6140SOL    HW230452   4.871   6.907   1.389
 6141SOL     OW30453   5.316   7.215   1.625
 6141SOL    HW130454   5.343   7.249   1.535
 6141SOL    HW230455   5.395   7.177   1.671
 6142SOL     OW30456   4.835   6.781   1.100
 6142SOL    HW130457   4.795   6.825   1.181
 6142SOL    HW230458   4.794   6.818   1.017
 6143SOL     OW30459   5.362   6.685   1.079
 6143SOL    HW130460   5.367   6.766   1.138
 6143SOL    HW230461   5.276   6.687   1.028
 6144SOL     OW30462   4.639   5.675   1.402
 6144SOL    HW130463   4.664   5.655   1.307
 6144SOL    HW230464   4.711   5.731   1.444
 6145SOL     OW30465   4.704   6.702   1.719
 6145SOL    HW130466   4.605   6.708   1.729
 6145SOL    HW230467   4.727   6.622   1.663
 6146SOL     OW30468   4.429   6.636   0.368
 6146SOL    HW130469   4.415   6.643   0.467
 6146SOL    HW230470   4.513   6.585   0.350
 6147SOL     OW30471   4.134   6.399   1.251
 6147SOL    HW130472   4.220   6.411   1.301
 6147SOL    HW230473   4.092   6.312   1.278
 6148SOL     OW30474   4.998   5.972   1.262
 6148SOL    HW130475   5.019   6.046   1.326
 6148SOL    HW230476   4.909   5.989   1.219
 6149SOL     OW30477   3.788   7.150   1.331
 6149SOL    HW130478   3.742   7.232   1.297
 6149SOL    HW230479   3.886   7.169   1.340
 6150SOL     OW30480   4.091   6.686   0.501
 6150SOL    HW130481   4.084   6.769   0.445
 6150SOL    HW230482   4.095   6.606   0.441
 6151SOL     OW30483   4.290   6.123   0.865
 6151SOL    HW130484   4.302   6.189   0.791
 6151SOL    HW230485   4.336   6.157   0.948
 6152SOL     OW30486   4.976   6.934   0.388
 6152SOL    HW130487   5.026   7.011   0.428
 6152SOL    HW230488   4.881   6.936   0.420
 6153SOL     OW30489   4.996   7.031   1.142
 6153SOL    HW130490   5.043   7.044   1.229
 6153SOL    HW230491   4.930   6.957   1.151
 6154SOL     OW30492   5.306   6.225   0.472
 6154SOL    HW130493   5.275   6.286   0.545
 6154SOL    HW230494   5.356   6.277   0.403
 6155SOL     OW30495   4.078   7.096   1.329
 6155SOL    HW130496   4.057   7.052   1.242
 6155SOL    HW230497   4.175   7.122   1.332
 6156SOL     OW30498   4.126   6.337   1.598
 6156SOL    HW130499   4.194   6.392   1.551
 6156SOL    HW230500   4.166   6.249   1.625
 6157SOL     OW30501   5.311   6.365   1.670
 6157SOL    HW130502   5.219   6.403   1.665
 6157SOL    HW230503   5.371   6.412   1.605
 6158SOL     OW30504   4.737   5.691   1.770
 6158SOL    HW130505   4.743   5.776   1.718
 6158SOL    HW230506   4.769   5.615   1.713
 6159SOL     OW30507   4.297   6.456   1.029
 6159SOL    HW130508   4.341   6.545   1.020
 6159SOL    HW230509   4.234   6.456   1.106
 6160SOL     OW30510   5.084   6.448   1.045
 6160SOL    HW130511   5.009   6.448   0.979
 6160SOL    HW230512   5.121   6.356   1.054
 6161SOL     OW30513   4.933   6.111   0.275
 6161SOL    HW130514   4.946   6.027   0.329
 6161SOL    HW230515   4.904   6.185   0.335
 6162SOL     OW30516   4.031   5.799   1.231
 6162SOL    HW130517   4.008   5.836   1.321
 6162SOL    HW230518   4.001   5.704   1.225
 6163SOL     OW30519   3.761   6.896   1.282
 6163SOL    HW130520   3.814   6.847   1.350
 6163SOL    HW230521   3.783   6.994   1.287
 6164SOL     OW30522   4.456   6.220   1.064
 6164SOL    HW130523   4.515   6.194   0.988
 6164SOL    HW230524   4.428   6.316   1.053
 6165SOL     OW30525   5.452   6.521   1.854
 6165SOL    HW130526   5.406   6.514   1.765
 6165SOL    HW230527   5.390   6.565   1.920
 6166SOL     OW30528   4.031   5.649   0.618
 6166SOL    HW130529   4.020   5.743   0.651
 6166SOL    HW230530   4.026   5.586   0.695
 6167SOL     OW30531   5.346   5.953   0.374
 6167SOL    HW130532   5.348   5.877   0.438
 6167SOL    HW230533   5.298   6.030   0.414
 6168SOL     OW30534   4.747   6.352   0.966
 6168SOL    HW130535   4.762   6.373   1.062
 6168SOL    HW230536   4.717   6.257   0.957
 6169SOL     OW30537   4.074   6.484   1.804
 6169SOL    HW130538   4.150   6.528   1.852
 6169SOL    HW230539   4.109   6.437   1.722
 6170SOL     OW30540   5.264   5.860   0.125
 6170SOL    HW130541   5.203   5.785   0.148
 6170SOL    HW230542   5.286   5.912   0.208
 6171SOL     OW30543   5.027   6.424   0.042
 6171SOL    HW130544   5.061   6.331   0.057
 6171SOL    HW230545   5.045   6.451  -0.053
 6172SOL     OW30546   4.792   6.919   0.849
 6172SOL    HW130547   4.799   6.835   0.794
 6172SOL    HW230548   4.854   6.988   0.813
 6173SOL     OW30549   4.043   6.396   0.949
 6173SOL    HW130550   4.136   6.432   0.954
 6173SOL    HW230551   4.037   6.311   1.001
 6174SOL     OW30552   4.063   6.095   1.006
 6174SOL    HW130553   4.011   6.012   0.989
 6174SOL    HW230554   4.140   6.100   0.942
 6175SOL     OW30555   4.862   5.966   1.678
 6175SOL    HW130556   4.817   6.029   1.742
 6175SOL    HW230557   4.955   5.997   1.661
 6176SOL     OW30558   4.884   5.793   1.477
 6176SOL    HW130559   4.884   5.857   1.554
 6176SOL    HW230560   4.912   5.841   1.394
 6177SOL     OW30561   3.732   6.912   0.200
 6177SOL    HW130562   3.639   6.933   0.169
 6177SOL    HW230563   3.742   6.813   0.213
 6178SOL     OW30564   3.812   7.387   0.927
 6178SOL    HW130565   3.770   7.301   0.900
 6178SOL    HW230566   3.906   7.390   0.893
 6179SOL     OW30567   4.228   7.154   0.910
 6179SOL    HW130568   4.294   7.228   0.919
 6179SOL    HW230569   4.272   7.075   0.868
 6180SOL     OW30570   4.726   6.382   1.238
 6180SOL    HW130571   4.767   6.350   1.324
 6180SOL    HW230572   4.630   6.355   1.235
 6181SOL     OW30573   3.764   6.130   1.114
 6181SOL    HW130574   3.849   6.097   1.073
 6181SOL    HW230575   3.777   6.145   1.212
 6182SOL     OW30576   3.913   6.106   1.722
 6182SOL    HW130577   3.972   6.066   1.652
 6182SOL    HW230578   3.855   6.177   1.681
 6183SOL     OW30579   5.093   6.536   1.660
 6183SOL    HW130580   5.132   6.625   1.680
 6183SOL    HW230581   5.103   6.516   1.563
 6184SOL     OW30582   4.539   6.158   0.325
 6184SOL    HW130583   4.546   6.069   0.279
 6184SOL    HW230584   4.445   6.192   0.317
 6185SOL     OW30585   5.381   6.190   1.206
 6185SOL    HW130586   5.343   6.121   1.268
 6185SOL    HW230587   5.463   6.154   1.162
 6186SOL     OW30588   3.976   7.150   1.744
 6186SOL    HW130589   3.946   7.207   1.820
 6186SOL    HW230590   3.969   7.053   1.770
 6187SOL     OW30591   4.395   6.050   1.269
 6187SOL    HW130592   4.361   5.961   1.239
 6187SOL    HW230593   4.421   6.104   1.189
 6188SOL     OW30594   4.654   7.264   1.465
 6188SOL    HW130595   4.630   7.246   1.370
 6188SOL    HW230596   4.684   7.358   1.475
 6189SOL     OW30597   4.197   6.086   0.191
 6189SOL    HW130598   4.258   6.166   0.195
 6189SOL    HW230599   4.102   6.117   0.198
 6190SOL     OW30600   3.883   6.723   1.466
 6190SOL    HW130601   3.905   6.662   1.542
 6190SOL    HW230602   3.893   6.674   1.380
 6191SOL     OW30603   5.071   6.645   1.234
 6191SOL    HW130604   5.095   6.582   1.160
 6191SOL    HW230605   4.981   6.685   1.216
 6192SOL     OW30606   5.026   6.441   0.309
 6192SOL    HW130607   4.940   6.410   0.351
 6192SOL    HW230608   5.022   6.427   0.210
 6193SOL     OW30609   5.483   7.333   1.154
 6193SOL    HW130610   5.544   7.363   1.081
 6193SOL    HW230611   5.445   7.244   1.132
 6194SOL     OW30612   4.976   7.317   1.128
 6194SOL    HW130613   5.060   7.322   1.074
 6194SOL    HW230614   4.953   7.221   1.146
 6195SOL     OW30615   3.807   6.844   1.022
 6195SOL    HW130616   3.802   6.843   1.122
 6195SOL    HW230617   3.724   6.803   0.984
 6196SOL     OW30618   4.412   7.248   1.716
 6196SOL    HW130619   4.356   7.329   1.725
 6196SOL    HW230620   4.464   7.252   1.630
 6197SOL     OW30621   4.627   5.672   0.133
 6197SOL    HW130622   4.678   5.673   0.047
 6197SOL    HW230623   4.683   5.630   0.204
 6198SOL     OW30624   5.450   5.721   0.523
 6198SOL    HW130625   5.523   5.704   0.456
 6198SOL    HW230626   5.419   5.634   0.561
 6199SOL     OW30627   5.112   7.159   0.477
 6199SOL    HW130628   5.179   7.171   0.403
 6199SOL    HW230629   5.072   7.248   0.500
 6200SOL     OW30630   3.854   7.380   1.851
 6200SOL    HW130631   3.813   7.306   1.904
 6200SOL    HW230632   3.918   7.431   1.909
 6201SOL     OW30633   5.004   6.513   0.672
 6201SOL    HW130634   5.064   6.432   0.674
 6201SOL    HW230635   5.044   6.582   0.612
 6202SOL     OW30636   4.554   6.859   1.422
 6202SOL    HW130637   4.549   6.892   1.517
 6202SOL    HW230638   4.468   6.878   1.376
 6203SOL     OW30639   4.396   7.202   0.154
 6203SOL    HW130640   4.405   7.212   0.055
 6203SOL    HW230641   4.356   7.113   0.175
 6204SOL     OW30642   5.374   7.306   1.394
 6204SOL    HW130643   5.427   7.316   1.310
 6204SOL    HW230644   5.347   7.396   1.428
 6205SOL     OW30645   5.565   5.761   0.963
 6205SOL    HW130646   5.604   5.676   0.927
 6205SOL    HW230647   5.467   5.763   0.944
 6206SOL     OW30648   3.987   5.912   0.720
 6206SOL    HW130649   3.908   5.963   0.686
 6206SOL    HW230650   3.978   5.897   0.818
 6207SOL     OW30651   4.918   7.198   0.031
 6207SOL    HW130652   4.924   7.105   0.068
 6207SOL    HW230653   4.859   7.198  -0.049
 6208SOL     OW30654   4.546   6.588   1.372
 6208SOL    HW130655   4.586   6.587   1.280
 6208SOL    HW230656   4.556   6.680   1.412
 6209SOL     OW30657   4.640   6.496   0.291
 6209SOL    HW130658   4.703   6.534   0.223
 6209SOL    HW230659   4.680   6.413   0.330
 6210SOL     OW30660   5.228   7.193   0.044
 6210SOL    HW130661   5.136   7.230   0.051
 6210SOL    HW230662   5.266   7.213  -0.046
 6211SOL     OW30663   4.096   6.874   1.490
 6211SOL    HW130664   4.083   6.967   1.456
 6211SOL    HW230665   4.012   6.822   1.477
 6212SOL     OW30666   5.338   6.878   1.289
 6212SOL    HW130667   5.398   6.881   1.369
 6212SOL    HW230668   5.263   6.942   1.302
 6213SOL     OW30669   4.763   6.684   0.696
 6213SOL    HW130670   4.693   6.637   0.750
 6213SOL    HW230671   4.822   6.616   0.653
 6214SOL     OW30672   4.738   5.822   0.971
 6214SOL    HW130673   4.730   5.786   0.878
 6214SOL    HW230674   4.736   5.746   1.036
 6215SOL     OW30675   4.314   7.073   0.491
 6215SOL    HW130676   4.356   7.015   0.421
 6215SOL    HW230677   4.270   7.152   0.447
 6216SOL     OW30678   5.433   5.971   1.381
 6216SOL    HW130679   5.506   6.040   1.385
 6216SOL    HW230680   5.461   5.896   1.322
 6217SOL     OW30681   3.979   6.934   0.290
 6217SOL    HW130682   3.883   6.935   0.263
 6217SOL    HW230683   3.991   6.987   0.374
 6218SOL     OW30684   3.829   6.599   1.726
 6218SOL    HW130685   3.752   6.566   1.780
 6218SOL    HW230686   3.914   6.569   1.768
 6219SOL     OW30687   4.396   5.789   1.489
 6219SOL    HW130688   4.486   5.773   1.449
 6219SOL    HW230689   4.404   5.794   1.588
 6220SOL     OW30690   5.164   6.442   1.398
 6220SOL    HW130691   5.107   6.494   1.335
 6220SOL    HW230692   5.260   6.454   1.374
 6221SOL     OW30693   3.796   5.752   0.318
 6221SOL    HW130694   3.779   5.835   0.264
 6221SOL    HW230695   3.886   5.715   0.296
 6222SOL     OW30696   4.907   6.921   0.119
 6222SOL    HW130697   4.808   6.910   0.121
 6222SOL    HW230698   4.941   6.936   0.212
 6223SOL     OW30699   4.337   6.428   1.431
 6223SOL    HW130700   4.393   6.509   1.414
 6223SOL    HW230701   4.396   6.348   1.434
 6224SOL     OW30702   5.217   7.353   0.959
 6224SOL    HW130703   5.250   7.417   0.890
 6224SOL    HW230704   5.283   7.347   1.034
 6225SOL     OW30705   4.440   6.151   1.708
 6225SOL    HW130706   4.459   6.216   1.782
 6225SOL    HW230707   4.500   6.071   1.717
 6226SOL     OW30708   5.174   6.806   1.633
 6226SOL    HW130709   5.165   6.796   1.732
 6226SOL    HW230710   5.270   6.799   1.607
 6227SOL     OW30711   4.114   7.327   1.560
 6227SOL    HW130712   4.023   7.368   1.558
 6227SOL    HW230713   4.107   7.233   1.592
 6228SOL     OW30714   5.398   6.469   1.254
 6228SOL    HW130715   5.371   6.380   1.217
 6228SOL    HW230716   5.399   6.537   1.181
 6229SOL     OW30717   4.949   5.911   0.449
 6229SOL    HW130718   5.014   5.837   0.438
 6229SOL    HW230719   4.969   5.961   0.533
 6230SOL     OW30720   4.318   6.331   0.652
 6230SOL    HW130721   4.368   6.416   0.633
 6230SOL    HW230722   4.230   6.333   0.604
 6231SOL     OW30723   5.454   6.520   1.517
 6231SOL    HW130724   5.492   6.611   1.532
 6231SOL    HW230725   5.446   6.503   1.418
 6232SOL     OW30726   4.583   6.960   0.016
 6232SOL    HW130727   4.537   6.975   0.104
 6232SOL    HW230728   4.627   7.045  -0.014
 6233SOL     OW30729   4.385   7.376   0.953
 6233SOL    HW130730   4.339   7.464   0.940
 6233SOL    HW230731   4.484   7.388   0.946
 6234SOL     OW30732   4.583   6.542   0.861
 6234SOL    HW130733   4.637   6.473   0.909
 6234SOL    HW230734   4.551   6.611   0.927
 6235SOL     OW30735   4.807   6.570   0.087
 6235SOL    HW130736   4.784   6.623   0.005
 6235SOL    HW230737   4.888   6.514   0.068
 6236SOL     OW30738   5.585   7.155   0.851
 6236SOL    HW130739   5.514   7.143   0.781
 6236SOL    HW230740   5.586   7.076   0.911
 6237SOL     OW30741   3.945   6.900   1.844
 6237SOL    HW130742   3.880   6.827   1.823
 6237SOL    HW230743   3.949   6.914   1.942
 6238SOL     OW30744   3.803   6.826   0.653
 6238SOL    HW130745   3.802   6.779   0.741
 6238SOL    HW230746   3.885   6.798   0.602
 6239SOL     OW30747   4.396   6.977   1.624
 6239SOL    HW130748   4.318   6.927   1.662
 6239SOL    HW230749   4.393   7.072   1.655
 6240SOL     OW30750   5.548   5.778   1.227
 6240SOL    HW130751   5.544   5.688   1.271
 6240SOL    HW230752   5.551   5.767   1.128
 6241SOL     OW30753   4.152   6.010   0.520
 6241SOL    HW130754   4.182   5.938   0.458
 6241SOL    HW230755   4.113   5.970   0.603
 6242SOL     OW30756   5.429   7.073   1.104
 6242SOL    HW130757   5.336   7.048   1.077
 6242SOL    HW230758   5.455   7.023   1.186
 6243SOL     OW30759   4.041   6.133   1.280
 6243SOL    HW130760   4.079   6.074   1.352
 6243SOL    HW230761   4.081   6.107   1.192
 6244SOL     OW30762   4.536   7.172   0.687
 6244SOL    HW130763   4.568   7.182   0.593
 6244SOL    HW230764   4.457   7.110   0.689
 6245SOL     OW30765   5.148   5.800   1.112
 6245SOL    HW130766   5.200   5.735   1.167
 6245SOL    HW230767   5.099   5.863   1.173
 6246SOL     OW30768   4.725   5.620   1.154
 6246SOL    HW130769   4.662   5.548   1.123
 6246SOL    HW230770   4.818   5.584   1.154
 6247SOL     OW30771   4.494   6.916   0.301
 6247SOL    HW130772   4.448   6.829   0.318
 6247SOL    HW230773   4.585   6.913   0.342
 6248SOL     OW30774   4.342   7.153   1.284
 6248SOL    HW130775   4.337   7.235   1.341
 6248SOL    HW230776   4.431   7.150   1.239
 6249SOL     OW30777   5.076   5.638   0.168
 6249SOL    HW130778   5.111   5.597   0.084
 6249SOL    HW230779   4.986   5.600   0.188
 6250SOL     OW30780   5.024   6.039   0.691
 6250SOL    HW130781   4.965   6.119   0.695
 6250SOL    HW230782   5.039   6.004   0.784
 6251SOL     OW30783   5.317   5.807   0.882
 6251SOL    HW130784   5.233   5.806   0.936
 6251SOL    HW230785   5.319   5.890   0.826
 6252SOL     OW30786   3.763   6.663   0.300
 6252SOL    HW130787   3.862   6.652   0.291
 6252SOL    HW230788   3.723   6.577   0.332
 6253SOL     OW30789   4.599   7.232   0.337
 6253SOL    HW130790   4.522   7.197   0.283
 6253SOL    HW230791   4.567   7.303   0.399
 6254SOL     OW30792   3.954   6.214   1.975
 6254SOL    HW130793   3.861   6.212   2.012
 6254SOL    HW230794   3.955   6.175   1.883
 6255SOL     OW30795   3.949   5.861   2.858
 6255SOL    HW130796   3.984   5.844   2.950
 6255SOL    HW230797   3.861   5.816   2.846
 6256SOL     OW30798   4.410   6.747   3.665
 6256SOL    HW130799   4.470   6.826   3.679
 6256SOL    HW230800   4.324   6.778   3.624
 6257SOL     OW30801   4.162   5.978   3.361
 6257SOL    HW130802   4.244   5.922   3.370
 6257SOL    HW230803   4.081   5.920   3.365
 6258SOL     OW30804   4.851   6.927   3.552
 6258SOL    HW130805   4.898   6.927   3.640
 6258SOL    HW230806   4.803   6.840   3.541
 6259SOL     OW30807   4.330   6.550   1.985
 6259SOL    HW130808   4.337   6.634   1.931
 6259SOL    HW230809   4.376   6.563   2.073
 6260SOL     OW30810   5.413   6.508   2.474
 6260SOL    HW130811   5.508   6.479   2.482
 6260SOL    HW230812   5.405   6.573   2.399
 6261SOL     OW30813   5.365   6.694   2.294
 6261SOL    HW130814   5.451   6.696   2.242
 6261SOL    HW230815   5.379   6.741   2.382
 6262SOL     OW30816   3.837   6.323   3.459
 6262SOL    HW130817   3.925   6.310   3.504
 6262SOL    HW230818   3.824   6.420   3.437
 6263SOL     OW30819   5.017   6.814   3.285
 6263SOL    HW130820   5.054   6.741   3.227
 6263SOL    HW230821   5.069   6.819   3.370
 6264SOL     OW30822   4.533   5.590   2.364
 6264SOL    HW130823   4.573   5.681   2.355
 6264SOL    HW230824   4.433   5.598   2.370
 6265SOL     OW30825   5.190   7.003   2.815
 6265SOL    HW130826   5.131   7.009   2.895
 6265SOL    HW230827   5.175   6.915   2.769
 6266SOL     OW30828   4.322   6.315   2.132
 6266SOL    HW130829   4.346   6.384   2.064
 6266SOL    HW230830   4.244   6.348   2.186
 6267SOL     OW30831   5.005   5.931   2.806
 6267SOL    HW130832   4.919   5.881   2.793
 6267SOL    HW230833   5.067   5.877   2.862
 6268SOL     OW30834   4.531   6.191   3.327
 6268SOL    HW130835   4.484   6.188   3.416
 6268SOL    HW230836   4.480   6.136   3.261
 6269SOL     OW30837   4.589   5.934   2.057
 6269SOL    HW130838   4.648   5.997   2.008
 6269SOL    HW230839   4.608   5.840   2.028
 6270SOL     OW30840   5.086   6.730   2.407
 6270SOL    HW130841   5.169   6.701   2.359
 6270SOL    HW230842   5.037   6.797   2.351
 6271SOL     OW30843   4.274   5.782   2.747
 6271SOL    HW130844   4.269   5.777   2.847
 6271SOL    HW230845   4.276   5.878   2.718
 6272SOL     OW30846   4.075   7.387   2.715
 6272SOL    HW130847   4.125   7.301   2.721
 6272SOL    HW230848   4.140   7.464   2.712
 6273SOL     OW30849   4.951   7.136   3.368
 6273SOL    HW130850   4.957   7.059   3.432
 6273SOL    HW230851   4.899   7.110   3.288
 6274SOL     OW30852   3.926   5.871   3.360
 6274SOL    HW130853   3.846   5.931   3.347
 6274SOL    HW230854   3.916   5.822   3.446
 6275SOL     OW30855   5.356   6.963   1.943
 6275SOL    HW130856   5.324   7.057   1.933
 6275SOL    HW230857   5.280   6.900   1.931
 6276SOL     OW30858   5.124   5.693   2.288
 6276SOL    HW130859   5.100   5.656   2.198
 6276SOL    HW230860   5.223   5.709   2.292
 6277SOL     OW30861   4.106   6.286   2.342
 6277SOL    HW130862   4.151   6.196   2.339
 6277SOL    HW230863   4.012   6.275   2.375
 6278SOL     OW30864   4.612   7.100   3.057
 6278SOL    HW130865   4.589   7.075   2.963
 6278SOL    HW230866   4.673   7.031   3.096
 6279SOL     OW30867   5.075   6.176   3.295
 6279SOL    HW130868   5.103   6.133   3.380
 6279SOL    HW230869   5.100   6.272   3.296
 6280SOL     OW30870   4.646   6.089   2.761
 6280SOL    HW130871   4.621   6.080   2.665
 6280SOL    HW230872   4.694   6.007   2.792
 6281SOL     OW30873   4.263   5.650   2.374
 6281SOL    HW130874   4.182   5.651   2.432
 6281SOL    HW230875   4.266   5.733   2.319
 6282SOL     OW30876   5.158   6.774   1.903
 6282SOL    HW130877   5.190   6.698   1.960
 6282SOL    HW230878   5.066   6.801   1.933
 6283SOL     OW30879   4.659   5.822   2.342
 6283SOL    HW130880   4.611   5.863   2.264
 6283SOL    HW230881   4.758   5.820   2.323
 6284SOL     OW30882   4.800   6.269   3.326
 6284SOL    HW130883   4.720   6.208   3.329
 6284SOL    HW230884   4.881   6.216   3.302
 6285SOL     OW30885   4.951   7.156   2.655
 6285SOL    HW130886   4.972   7.230   2.590
 6285SOL    HW230887   5.019   7.156   2.728
 6286SOL     OW30888   4.756   6.135   1.878
 6286SOL    HW130889   4.715   6.217   1.839
 6286SOL    HW230890   4.820   6.161   1.951
 6287SOL     OW30891   3.802   6.142   3.248
 6287SOL    HW130892   3.894   6.141   3.207
 6287SOL    HW230893   3.796   6.216   3.315
 6288SOL     OW30894   4.590   6.040   2.504
 6288SOL    HW130895   4.558   6.112   2.442
 6288SOL    HW230896   4.614   5.959   2.451
 6289SOL     OW30897   5.190   6.176   2.854
 6289SOL    HW130898   5.160   6.081   2.861
 6289SOL    HW230899   5.263   6.192   2.920
 6290SOL     OW30900   4.212   6.971   2.036
 6290SOL    HW130901   4.125   6.956   2.083
 6290SOL    HW230902   4.195   6.997   1.941
 6291SOL     OW30903   4.251   5.842   2.190
 6291SOL    HW130904   4.278   5.783   2.115
 6291SOL    HW230905   4.251   5.937   2.159
 6292SOL     OW30906   5.478   6.809   3.450
 6292SOL    HW130907   5.569   6.770   3.437
 6292SOL    HW230908   5.486   6.905   3.474
 6293SOL     OW30909   5.362   6.685   2.941
 6293SOL    HW130910   5.367   6.766   3.000
 6293SOL    HW230911   5.276   6.687   2.890
 6294SOL     OW30912   4.429   6.636   2.230
 6294SOL    HW130913   4.415   6.643   2.329
 6294SOL    HW230914   4.513   6.585   2.212
 6295SOL     OW30915   3.788   7.150   3.193
 6295SOL    HW130916   3.742   7.232   3.159
 6295SOL    HW230917   3.886   7.169   3.202
 6296SOL     OW30918   4.933   6.111   2.137
 6296SOL    HW130919   4.946   6.027   2.191
 6296SOL    HW230920   4.904   6.185   2.197
 6297SOL     OW30921   5.583   7.104   3.467
 6297SOL    HW130922   5.597   7.131   3.372
 6297SOL    HW230923   5.666   7.126   3.520
 6298SOL     OW30924   4.792   6.919   2.711
 6298SOL    HW130925   4.799   6.835   2.656
 6298SOL    HW230926   4.854   6.988   2.675
 6299SOL     OW30927   4.862   5.966   3.540
 6299SOL    HW130928   4.817   6.029   3.604
 6299SOL    HW230929   4.955   5.997   3.523
 6300SOL     OW30930   4.884   5.793   3.339
 6300SOL    HW130931   4.884   5.857   3.416
 6300SOL    HW230932   4.912   5.841   3.256
 6301SOL     OW30933   3.812   7.387   2.789
 6301SOL    HW130934   3.770   7.301   2.762
 6301SOL    HW230935   3.906   7.390   2.755
 6302SOL     OW30936   4.228   7.154   2.772
 6302SOL    HW130937   4.294   7.228   2.781
 6302SOL    HW230938   4.272   7.075   2.730
 6303SOL     OW30939   3.913   6.106   3.584
 6303SOL    HW130940   3.972   6.066   3.514
 6303SOL    HW230941   3.855   6.177   3.543
 6304SOL     OW30942   4.539   6.158   2.187
 6304SOL    HW130943   4.546   6.069   2.141
 6304SOL    HW230944   4.445   6.192   2.179
 6305SOL     OW30945   5.381   6.190   3.068
 6305SOL    HW130946   5.343   6.121   3.130
 6305SOL    HW230947   5.463   6.154   3.024
 6306SOL     OW30948   3.976   7.150   3.606
 6306SOL    HW130949   3.946   7.207   3.682
 6306SOL    HW230950   3.969   7.053   3.632
 6307SOL     OW30951   4.395   6.050   3.131
 6307SOL    HW130952   4.361   5.961   3.101
 6307SOL    HW230953   4.421   6.104   3.051
 6308SOL     OW30954   4.197   6.086   2.053
 6308SOL    HW130955   4.258   6.166   2.057
 6308SOL    HW230956   4.102   6.117   2.060
 6309SOL     OW30957   3.883   6.723   3.328
 6309SOL    HW130958   3.905   6.662   3.404
 6309SOL    HW230959   3.893   6.674   3.242
 6310SOL     OW30960   4.412   7.248   3.578
 6310SOL    HW130961   4.356   7.329   3.587
 6310SOL    HW230962   4.464   7.252   3.492
 6311SOL     OW30963   4.396   7.202   2.016
 6311SOL    HW130964   4.405   7.212   1.917
 6311SOL    HW230965   4.356   7.113   2.037
 6312SOL     OW30966   5.374   7.306   3.256
 6312SOL    HW130967   5.427   7.316   3.172
 6312SOL    HW230968   5.347   7.396   3.290
 6313SOL     OW30969   3.987   5.912   2.582
 6313SOL    HW130970   3.908   5.963   2.548
 6313SOL    HW230971   3.978   5.897   2.680
 6314SOL     OW30972   4.096   6.874   3.352
 6314SOL    HW130973   4.083   6.967   3.318
 6314SOL    HW230974   4.012   6.822   3.339
 6315SOL     OW30975   4.738   5.822   2.833
 6315SOL    HW130976   4.730   5.786   2.740
 6315SOL    HW230977   4.736   5.746   2.898
 6316SOL     OW30978   5.433   5.971   3.243
 6316SOL    HW130979   5.506   6.040   3.247
 6316SOL    HW230980   5.461   5.896   3.184
 6317SOL     OW30981   4.907   6.921   1.981
 6317SOL    HW130982   4.808   6.910   1.983
 6317SOL    HW230983   4.941   6.936   2.074
 6318SOL     OW30984   5.454   6.520   3.379
 6318SOL    HW130985   5.492   6.611   3.394
 6318SOL    HW230986   5.446   6.503   3.280
 6319SOL     OW30987   4.583   6.960   1.878
 6319SOL    HW130988   4.537   6.975   1.966
 6319SOL    HW230989   4.627   7.045   1.848
 6320SOL     OW30990   4.807   6.570   1.949
 6320SOL    HW130991   4.784   6.623   1.867
 6320SOL    HW230992   4.888   6.514   1.930
 6321SOL     OW30993   4.396   6.977   3.486
 6321SOL    HW130994   4.318   6.927   3.524
 6321SOL    HW230995   4.393   7.072   3.517
 6322SOL     OW30996   5.548   5.778   3.089
 6322SOL    HW130997   5.544   5.688   3.133
 6322SOL    HW230998   5.551   5.767   2.990
 6323SOL     OW30999   4.152   6.010   2.382
 6323SOL    HW131000   4.182   5.938   2.320
 6323SOL    HW231001   4.113   5.970   2.465
 6324SOL     OW31002   5.429   7.073   2.966
 6324SOL    HW131003   5.336   7.048   2.939
 6324SOL    HW231004   5.455   7.023   3.048
 6325SOL     OW31005   4.494   6.916   2.163
 6325SOL    HW131006   4.448   6.829   2.180
 6325SOL    HW231007   4.585   6.913   2.204
 6326SOL     OW31008   5.317   5.807   2.744
 6326SOL    HW131009   5.233   5.806   2.798
 6326SOL    HW231010   5.319   5.890   2.688
 6327SOL     OW31011   5.479   6.193   3.955
 6327SOL    HW131012   5.467   6.180   3.856
 6327SOL    HW231013   5.449   6.112   4.004
 6328SOL     OW31014   4.492   6.730   4.747
 6328SOL    HW131015   4.414   6.747   4.807
 6328SOL    HW231016   4.526   6.817   4.711
 6329SOL     OW31017   4.409   6.598   4.389
 6329SOL    HW131018   4.478   6.582   4.459
 6329SOL    HW231019   4.336   6.655   4.427
 6330SOL     OW31020   4.410   6.747   5.527
 6330SOL    HW131021   4.470   6.826   5.541
 6330SOL    HW231022   4.324   6.778   5.486
 6331SOL     OW31023   4.851   6.927   5.414
 6331SOL    HW131024   4.898   6.927   5.502
 6331SOL    HW231025   4.803   6.840   5.403
 6332SOL     OW31026   3.964   6.677   4.610
 6332SOL    HW131027   3.978   6.593   4.662
 6332SOL    HW231028   3.909   6.741   4.665
 6333SOL     OW31029   5.318   5.700   5.204
 6333SOL    HW131030   5.300   5.767   5.132
 6333SOL    HW231031   5.315   5.746   5.293
 6334SOL     OW31032   3.751   7.182   3.841
 6334SOL    HW131033   3.732   7.086   3.862
 6334SOL    HW231034   3.718   7.240   3.916
 6335SOL     OW31035   5.017   6.814   5.147
 6335SOL    HW131036   5.054   6.741   5.089
 6335SOL    HW231037   5.069   6.819   5.232
 6336SOL     OW31038   4.533   5.590   4.226
 6336SOL    HW131039   4.573   5.681   4.217
 6336SOL    HW231040   4.433   5.598   4.232
 6337SOL     OW31041   3.921   6.562   4.988
 6337SOL    HW131042   4.010   6.517   4.974
 6337SOL    HW231043   3.848   6.497   4.969
 6338SOL     OW31044   4.911   7.378   5.340
 6338SOL    HW131045   4.935   7.438   5.264
 6338SOL    HW231046   4.918   7.283   5.310
 6339SOL     OW31047   5.118   6.055   5.398
 6339SOL    HW131048   5.098   6.098   5.486
 6339SOL    HW231049   5.196   5.993   5.407
 6340SOL     OW31050   3.854   7.407   5.295
 6340SOL    HW131051   3.844   7.392   5.394
 6340SOL    HW231052   3.768   7.443   5.259
 6341SOL     OW31053   5.519   6.652   4.597
 6341SOL    HW131054   5.457   6.637   4.521
 6341SOL    HW231055   5.467   6.663   4.682
 6342SOL     OW31056   4.045   6.529   3.966
 6342SOL    HW131057   4.127   6.568   3.924
 6342SOL    HW231058   4.018   6.447   3.917
 6343SOL     OW31059   4.185   6.852   5.451
 6343SOL    HW131060   4.135   6.853   5.365
 6343SOL    HW231061   4.122   6.834   5.527
 6344SOL     OW31062   4.188   7.329   4.047
 6344SOL    HW131063   4.221   7.368   4.133
 6344SOL    HW231064   4.264   7.322   3.982
 6345SOL     OW31065   4.664   7.284   4.628
 6345SOL    HW131066   4.744   7.227   4.649
 6345SOL    HW231067   4.615   7.244   4.551
 6346SOL     OW31068   5.271   5.808   5.453
 6346SOL    HW131069   5.266   5.845   5.545
 6346SOL    HW231070   5.199   5.739   5.441
 6347SOL     OW31071   5.190   6.176   4.716
 6347SOL    HW131072   5.160   6.081   4.723
 6347SOL    HW231073   5.263   6.192   4.782
 6348SOL     OW31074   4.788   6.933   5.064
 6348SOL    HW131075   4.708   6.910   5.119
 6348SOL    HW231076   4.871   6.907   5.113
 6349SOL     OW31077   5.316   7.215   5.349
 6349SOL    HW131078   5.343   7.249   5.259
 6349SOL    HW231079   5.395   7.177   5.395
 6350SOL     OW31080   4.835   6.781   4.824
 6350SOL    HW131081   4.795   6.825   4.905
 6350SOL    HW231082   4.794   6.818   4.741
 6351SOL     OW31083   4.290   6.123   4.589
 6351SOL    HW131084   4.302   6.189   4.515
 6351SOL    HW231085   4.336   6.157   4.672
 6352SOL     OW31086   4.078   7.096   5.053
 6352SOL    HW131087   4.057   7.052   4.966
 6352SOL    HW231088   4.175   7.122   5.056
 6353SOL     OW31089   4.126   6.337   5.322
 6353SOL    HW131090   4.194   6.392   5.275
 6353SOL    HW231091   4.166   6.249   5.349
 6354SOL     OW31092   5.311   6.365   5.394
 6354SOL    HW131093   5.219   6.403   5.389
 6354SOL    HW231094   5.371   6.412   5.329
 6355SOL     OW31095   4.737   5.691   5.494
 6355SOL    HW131096   4.743   5.776   5.442
 6355SOL    HW231097   4.769   5.615   5.437
 6356SOL     OW31098   4.228   5.636   5.464
 6356SOL    HW131099   4.186   5.579   5.394
 6356SOL    HW231100   4.162   5.705   5.496
 6357SOL     OW31101   5.452   6.521   5.578
 6357SOL    HW131102   5.406   6.514   5.489
 6357SOL    HW231103   5.390   6.565   5.644
 6358SOL     OW31104   4.747   6.352   4.690
 6358SOL    HW131105   4.762   6.373   4.786
 6358SOL    HW231106   4.717   6.257   4.681
 6359SOL     OW31107   4.704   7.159   5.424
 6359SOL    HW131108   4.684   7.203   5.336
 6359SOL    HW231109   4.743   7.068   5.408
 6360SOL     OW31110   4.074   6.484   5.528
 6360SOL    HW131111   4.150   6.528   5.576
 6360SOL    HW231112   4.109   6.437   5.446
 6361SOL     OW31113   5.027   6.424   3.766
 6361SOL    HW131114   5.061   6.331   3.781
 6361SOL    HW231115   5.045   6.451   3.671
 6362SOL     OW31116   4.063   6.095   4.730
 6362SOL    HW131117   4.011   6.012   4.713
 6362SOL    HW231118   4.140   6.100   4.666
 6363SOL     OW31119   4.862   5.966   5.402
 6363SOL    HW131120   4.817   6.029   5.466
 6363SOL    HW231121   4.955   5.997   5.385
 6364SOL     OW31122   3.732   6.912   3.924
 6364SOL    HW131123   3.639   6.933   3.893
 6364SOL    HW231124   3.742   6.813   3.937
 6365SOL     OW31125   4.228   7.154   4.634
 6365SOL    HW131126   4.294   7.228   4.643
 6365SOL    HW231127   4.272   7.075   4.592
 6366SOL     OW31128   3.764   6.130   4.838
 6366SOL    HW131129   3.849   6.097   4.797
 6366SOL    HW231130   3.777   6.145   4.936
 6367SOL     OW31131   5.093   6.536   5.384
 6367SOL    HW131132   5.132   6.625   5.404
 6367SOL    HW231133   5.103   6.516   5.287
 6368SOL     OW31134   3.976   7.150   5.468
 6368SOL    HW131135   3.946   7.207   5.544
 6368SOL    HW231136   3.969   7.053   5.494
 6369SOL     OW31137   4.654   7.264   5.189
 6369SOL    HW131138   4.630   7.246   5.094
 6369SOL    HW231139   4.684   7.358   5.199
 6370SOL     OW31140   3.883   6.723   5.190
 6370SOL    HW131141   3.905   6.662   5.266
 6370SOL    HW231142   3.893   6.674   5.104
 6371SOL     OW31143   5.071   6.645   4.958
 6371SOL    HW131144   5.095   6.582   4.884
 6371SOL    HW231145   4.981   6.685   4.940
 6372SOL     OW31146   3.807   6.844   4.746
 6372SOL    HW131147   3.802   6.843   4.846
 6372SOL    HW231148   3.724   6.803   4.708
 6373SOL     OW31149   3.854   7.380   5.575
 6373SOL    HW131150   3.813   7.306   5.628
 6373SOL    HW231151   3.918   7.431   5.633
 6374SOL     OW31152   4.554   6.859   5.146
 6374SOL    HW131153   4.549   6.892   5.241
 6374SOL    HW231154   4.468   6.878   5.100
 6375SOL     OW31155   3.987   5.912   4.444
 6375SOL    HW131156   3.908   5.963   4.410
 6375SOL    HW231157   3.978   5.897   4.542
 6376SOL     OW31158   4.918   7.198   3.755
 6376SOL    HW131159   4.924   7.105   3.792
 6376SOL    HW231160   4.859   7.198   3.675
 6377SOL     OW31161   4.640   6.496   4.015
 6377SOL    HW131162   4.703   6.534   3.947
 6377SOL    HW231163   4.680   6.413   4.054
 6378SOL     OW31164   4.096   6.874   5.214
 6378SOL    HW131165   4.083   6.967   5.180
 6378SOL    HW231166   4.012   6.822   5.201
 6379SOL     OW31167   3.829   6.599   5.450
 6379SOL    HW131168   3.752   6.566   5.504
 6379SOL    HW231169   3.914   6.569   5.492
 6380SOL     OW31170   4.318   6.331   4.376
 6380SOL    HW131171   4.368   6.416   4.357
 6380SOL    HW231172   4.230   6.333   4.328
 6381SOL     OW31173   4.583   6.542   4.585
 6381SOL    HW131174   4.637   6.473   4.633
 6381SOL    HW231175   4.551   6.611   4.651
 6382SOL     OW31176   4.807   6.570   3.811
 6382SOL    HW131177   4.784   6.623   3.729
 6382SOL    HW231178   4.888   6.514   3.792
 6383SOL     OW31179   3.945   6.900   5.568
 6383SOL    HW131180   3.880   6.827   5.547
 6383SOL    HW231181   3.949   6.914   5.666
 6384SOL     OW31182   3.803   6.826   4.377
 6384SOL    HW131183   3.802   6.779   4.465
 6384SOL    HW231184   3.885   6.798   4.326
 6385SOL     OW31185   4.396   6.977   5.348
 6385SOL    HW131186   4.318   6.927   5.386
 6385SOL    HW231187   4.393   7.072   5.379
 6386SOL     OW31188   4.536   7.172   4.411
 6386SOL    HW131189   4.568   7.182   4.317
 6386SOL    HW231190   4.457   7.110   4.413
 6387SOL     OW31191   4.494   6.916   4.025
 6387SOL    HW131192   4.448   6.829   4.042
 6387SOL    HW231193   4.585   6.913   4.066
 6388SOL     OW31194   5.024   6.039   4.415
 6388SOL    HW131195   4.965   6.119   4.419
 6388SOL    HW231196   5.039   6.004   4.508
 6389SOL     OW31197   3.949   5.861   6.582
 6389SOL    HW131198   3.984   5.844   6.674
 6389SOL    HW231199   3.861   5.816   6.570
 6390SOL     OW31200   3.743   5.954   6.233
 6390SOL    HW131201   3.661   5.997   6.272
 6390SOL    HW231202   3.715   5.881   6.170
 6391SOL     OW31203   4.293   6.861   6.751
 6391SOL    HW131204   4.200   6.854   6.714
 6391SOL    HW231205   4.304   6.950   6.795
 6392SOL     OW31206   5.279   7.097   6.289
 6392SOL    HW131207   5.222   7.081   6.370
 6392SOL    HW231208   5.220   7.107   6.209
 6393SOL     OW31209   4.859   6.289   6.303
 6393SOL    HW131210   4.916   6.367   6.278
 6393SOL    HW231211   4.799   6.315   6.379
 6394SOL     OW31212   5.479   6.193   5.817
 6394SOL    HW131213   5.467   6.180   5.718
 6394SOL    HW231214   5.449   6.112   5.866
 6395SOL     OW31215   4.492   6.730   6.609
 6395SOL    HW131216   4.414   6.747   6.669
 6395SOL    HW231217   4.526   6.817   6.573
 6396SOL     OW31218   4.409   6.598   6.251
 6396SOL    HW131219   4.478   6.582   6.321
 6396SOL    HW231220   4.336   6.655   6.289
 6397SOL     OW31221   4.059   7.021   6.647
 6397SOL    HW131222   3.981   6.990   6.594
 6397SOL    HW231223   4.117   7.079   6.590
 6398SOL     OW31224   5.184   7.091   6.925
 6398SOL    HW131225   5.208   7.185   6.951
 6398SOL    HW231226   5.168   7.037   7.007
 6399SOL     OW31227   4.162   5.978   7.085
 6399SOL    HW131228   4.244   5.922   7.094
 6399SOL    HW231229   4.081   5.920   7.089
 6400SOL     OW31230   5.327   6.033   6.323
 6400SOL    HW131231   5.253   6.079   6.273
 6400SOL    HW231232   5.378   6.101   6.376
 6401SOL     OW31233   3.955   7.299   6.069
 6401SOL    HW131234   3.989   7.376   6.123
 6401SOL    HW231235   3.999   7.299   5.979
 6402SOL     OW31236   3.954   7.020   6.124
 6402SOL    HW131237   3.928   7.116   6.124
 6402SOL    HW231238   3.883   6.966   6.169
 6403SOL     OW31239   3.964   6.677   6.472
 6403SOL    HW131240   3.978   6.593   6.524
 6403SOL    HW231241   3.909   6.741   6.527
 6404SOL     OW31242   4.344   7.372   7.025
 6404SOL    HW131243   4.252   7.355   7.060
 6404SOL    HW231244   4.372   7.464   7.051
 6405SOL     OW31245   4.330   6.550   5.709
 6405SOL    HW131246   4.337   6.634   5.655
 6405SOL    HW231247   4.376   6.563   5.797
 6406SOL     OW31248   5.318   5.700   7.066
 6406SOL    HW131249   5.300   5.767   6.994
 6406SOL    HW231250   5.315   5.746   7.155
 6407SOL     OW31251   3.846   6.229   6.149
 6407SOL    HW131252   3.801   6.141   6.166
 6407SOL    HW231253   3.845   6.283   6.233
 6408SOL     OW31254   5.566   7.353   5.945
 6408SOL    HW131255   5.620   7.324   6.025
 6408SOL    HW231256   5.596   7.443   5.916
 6409SOL     OW31257   3.751   7.182   5.703
 6409SOL    HW131258   3.732   7.086   5.724
 6409SOL    HW231259   3.718   7.240   5.778
 6410SOL     OW31260   5.413   6.508   6.198
 6410SOL    HW131261   5.508   6.479   6.206
 6410SOL    HW231262   5.405   6.573   6.123
 6411SOL     OW31263   5.365   6.694   6.018
 6411SOL    HW131264   5.451   6.696   5.966
 6411SOL    HW231265   5.379   6.741   6.106
 6412SOL     OW31266   4.337   6.951   6.312
 6412SOL    HW131267   4.288   6.864   6.321
 6412SOL    HW231268   4.314   6.994   6.225
 6413SOL     OW31269   4.533   5.590   6.088
 6413SOL    HW131270   4.573   5.681   6.079
 6413SOL    HW231271   4.433   5.598   6.094
 6414SOL     OW31272   3.921   6.562   6.850
 6414SOL    HW131273   4.010   6.517   6.836
 6414SOL    HW231274   3.848   6.497   6.831
 6415SOL     OW31275   5.249   6.585   5.776
 6415SOL    HW131276   5.186   6.509   5.789
 6415SOL    HW231277   5.297   6.603   5.862
 6416SOL     OW31278   5.190   7.003   6.539
 6416SOL    HW131279   5.131   7.009   6.619
 6416SOL    HW231280   5.175   6.915   6.493
 6417SOL     OW31281   5.391   7.300   6.158
 6417SOL    HW131282   5.350   7.277   6.070
 6417SOL    HW231283   5.373   7.226   6.223
 6418SOL     OW31284   4.322   6.315   5.856
 6418SOL    HW131285   4.346   6.384   5.788
 6418SOL    HW231286   4.244   6.348   5.910
 6419SOL     OW31287   5.005   5.931   6.530
 6419SOL    HW131288   4.919   5.881   6.517
 6419SOL    HW231289   5.067   5.877   6.586
 6420SOL     OW31290   5.300   7.248   5.893
 6420SOL    HW131291   5.389   7.294   5.896
 6420SOL    HW231292   5.279   7.224   5.798
 6421SOL     OW31293   4.531   6.191   7.051
 6421SOL    HW131294   4.484   6.188   7.140
 6421SOL    HW231295   4.480   6.136   6.985
 6422SOL     OW31296   4.715   5.996   6.828
 6422SOL    HW131297   4.638   6.030   6.882
 6422SOL    HW231298   4.681   5.945   6.749
 6423SOL     OW31299   4.765   6.287   6.015
 6423SOL    HW131300   4.791   6.283   6.111
 6423SOL    HW231301   4.680   6.236   6.001
 6424SOL     OW31302   3.800   6.397   6.375
 6424SOL    HW131303   3.899   6.385   6.384
 6424SOL    HW231304   3.776   6.492   6.396
 6425SOL     OW31305   3.854   7.407   7.157
 6425SOL    HW131306   3.844   7.392   7.256
 6425SOL    HW231307   3.768   7.443   7.121
 6426SOL     OW31308   5.086   6.730   6.131
 6426SOL    HW131309   5.169   6.701   6.083
 6426SOL    HW231310   5.037   6.797   6.075
 6427SOL     OW31311   4.274   5.782   6.471
 6427SOL    HW131312   4.269   5.777   6.571
 6427SOL    HW231313   4.276   5.878   6.442
 6428SOL     OW31314   4.732   7.042   6.063
 6428SOL    HW131315   4.686   7.114   6.011
 6428SOL    HW231316   4.728   7.062   6.161
 6429SOL     OW31317   4.075   7.387   6.439
 6429SOL    HW131318   4.125   7.301   6.445
 6429SOL    HW231319   4.140   7.464   6.436
 6430SOL     OW31320   5.519   6.652   6.459
 6430SOL    HW131321   5.457   6.637   6.383
 6430SOL    HW231322   5.467   6.663   6.544
 6431SOL     OW31323   4.045   6.529   5.828
 6431SOL    HW131324   4.127   6.568   5.786
 6431SOL    HW231325   4.018   6.447   5.779
 6432SOL     OW31326   5.182   6.321   6.314
 6432SOL    HW131327   5.177   6.256   6.389
 6432SOL    HW231328   5.262   6.380   6.327
 6433SOL     OW31329   4.835   7.362   5.823
 6433SOL    HW131330   4.775   7.300   5.873
 6433SOL    HW231331   4.866   7.318   5.738
 6434SOL     OW31332   3.926   5.871   7.084
 6434SOL    HW131333   3.846   5.931   7.071
 6434SOL    HW231334   3.916   5.822   7.170
 6435SOL     OW31335   4.188   7.329   5.909
 6435SOL    HW131336   4.221   7.368   5.995
 6435SOL    HW231337   4.264   7.322   5.844
 6436SOL     OW31338   3.973   7.371   6.827
 6436SOL    HW131339   4.030   7.306   6.877
 6436SOL    HW231340   3.957   7.338   6.734
 6437SOL     OW31341   4.664   7.284   6.490
 6437SOL    HW131342   4.744   7.227   6.511
 6437SOL    HW231343   4.615   7.244   6.413
 6438SOL     OW31344   4.106   6.286   6.066
 6438SOL    HW131345   4.151   6.196   6.063
 6438SOL    HW231346   4.012   6.275   6.099
 6439SOL     OW31347   4.612   7.100   6.781
 6439SOL    HW131348   4.589   7.075   6.687
 6439SOL    HW231349   4.673   7.031   6.820
 6440SOL     OW31350   4.527   6.988   6.510
 6440SOL    HW131351   4.617   7.002   6.468
 6440SOL    HW231352   4.456   6.990   6.439
 6441SOL     OW31353   4.646   6.089   6.485
 6441SOL    HW131354   4.621   6.080   6.389
 6441SOL    HW231355   4.694   6.007   6.516
 6442SOL     OW31356   4.263   5.650   6.098
 6442SOL    HW131357   4.182   5.651   6.156
 6442SOL    HW231358   4.266   5.733   6.043
 6443SOL     OW31359   5.158   6.774   5.627
 6443SOL    HW131360   5.190   6.698   5.684
 6443SOL    HW231361   5.066   6.801   5.657
 6444SOL     OW31362   4.021   5.621   5.757
 6444SOL    HW131363   4.070   5.705   5.736
 6444SOL    HW231364   4.083   5.556   5.802
 6445SOL     OW31365   4.951   7.156   6.379
 6445SOL    HW131366   4.972   7.230   6.314
 6445SOL    HW231367   5.019   7.156   6.452
 6446SOL     OW31368   4.183   6.738   6.327
 6446SOL    HW131369   4.112   6.711   6.392
 6446SOL    HW231370   4.157   6.710   6.234
 6447SOL     OW31371   4.995   7.383   6.177
 6447SOL    HW131372   5.039   7.447   6.113
 6447SOL    HW231373   4.945   7.435   6.247
 6448SOL     OW31374   3.802   6.142   6.972
 6448SOL    HW131375   3.894   6.141   6.931
 6448SOL    HW231376   3.796   6.216   7.039
 6449SOL     OW31377   4.285   5.808   6.733
 6449SOL    HW131378   4.323   5.724   6.770
 6449SOL    HW231379   4.197   5.827   6.777
 6450SOL     OW31380   4.590   6.040   6.228
 6450SOL    HW131381   4.558   6.112   6.166
 6450SOL    HW231382   4.614   5.959   6.175
 6451SOL     OW31383   4.741   5.625   6.339
 6451SOL    HW131384   4.669   5.630   6.270
 6451SOL    HW231385   4.717   5.556   6.408
 6452SOL     OW31386   5.153   6.759   6.453
 6452SOL    HW131387   5.098   6.675   6.446
 6452SOL    HW231388   5.179   6.788   6.361
 6453SOL     OW31389   5.190   6.176   6.578
 6453SOL    HW131390   5.160   6.081   6.585
 6453SOL    HW231391   5.263   6.192   6.644
 6454SOL     OW31392   5.581   6.419   5.963
 6454SOL    HW131393   5.623   6.355   6.027
 6454SOL    HW231394   5.543   6.368   5.885
 6455SOL     OW31395   4.212   6.971   5.760
 6455SOL    HW131396   4.125   6.956   5.807
 6455SOL    HW231397   4.195   6.997   5.665
 6456SOL     OW31398   5.388   6.866   6.243
 6456SOL    HW131399   5.487   6.874   6.257
 6456SOL    HW231400   5.343   6.950   6.274
 6457SOL     OW31401   5.114   6.161   5.664
 6457SOL    HW131402   5.060   6.140   5.745
 6457SOL    HW231403   5.205   6.120   5.673
 6458SOL     OW31404   4.251   5.842   5.914
 6458SOL    HW131405   4.278   5.783   5.839
 6458SOL    HW231406   4.251   5.937   5.883
 6459SOL     OW31407   4.788   6.933   6.926
 6459SOL    HW131408   4.708   6.910   6.981
 6459SOL    HW231409   4.871   6.907   6.975
 6460SOL     OW31410   4.835   6.781   6.686
 6460SOL    HW131411   4.795   6.825   6.767
 6460SOL    HW231412   4.794   6.818   6.603
 6461SOL     OW31413   5.362   6.685   6.665
 6461SOL    HW131414   5.367   6.766   6.724
 6461SOL    HW231415   5.276   6.687   6.614
 6462SOL     OW31416   4.639   5.675   6.988
 6462SOL    HW131417   4.664   5.655   6.893
 6462SOL    HW231418   4.711   5.731   7.030
 6463SOL     OW31419   4.429   6.636   5.954
 6463SOL    HW131420   4.415   6.643   6.053
 6463SOL    HW231421   4.513   6.585   5.936
 6464SOL     OW31422   4.134   6.399   6.837
 6464SOL    HW131423   4.220   6.411   6.887
 6464SOL    HW231424   4.092   6.312   6.864
 6465SOL     OW31425   4.998   5.972   6.848
 6465SOL    HW131426   5.019   6.046   6.912
 6465SOL    HW231427   4.909   5.989   6.805
 6466SOL     OW31428   3.788   7.150   6.917
 6466SOL    HW131429   3.742   7.232   6.883
 6466SOL    HW231430   3.886   7.169   6.926
 6467SOL     OW31431   4.091   6.686   6.087
 6467SOL    HW131432   4.084   6.769   6.031
 6467SOL    HW231433   4.095   6.606   6.027
 6468SOL     OW31434   4.290   6.123   6.451
 6468SOL    HW131435   4.302   6.189   6.377
 6468SOL    HW231436   4.336   6.157   6.534
 6469SOL     OW31437   4.976   6.934   5.974
 6469SOL    HW131438   5.026   7.011   6.014
 6469SOL    HW231439   4.881   6.936   6.006
 6470SOL     OW31440   4.996   7.031   6.728
 6470SOL    HW131441   5.043   7.044   6.815
 6470SOL    HW231442   4.930   6.957   6.737
 6471SOL     OW31443   5.306   6.225   6.058
 6471SOL    HW131444   5.275   6.286   6.131
 6471SOL    HW231445   5.356   6.277   5.989
 6472SOL     OW31446   4.078   7.096   6.915
 6472SOL    HW131447   4.057   7.052   6.828
 6472SOL    HW231448   4.175   7.122   6.918
 6473SOL     OW31449   4.126   6.337   7.184
 6473SOL    HW131450   4.194   6.392   7.137
 6473SOL    HW231451   4.166   6.249   7.211
 6474SOL     OW31452   5.311   6.365   7.256
 6474SOL    HW131453   5.219   6.403   7.251
 6474SOL    HW231454   5.371   6.412   7.191
 6475SOL     OW31455   4.297   6.456   6.615
 6475SOL    HW131456   4.341   6.545   6.606
 6475SOL    HW231457   4.234   6.456   6.692
 6476SOL     OW31458   5.084   6.448   6.631
 6476SOL    HW131459   5.009   6.448   6.565
 6476SOL    HW231460   5.121   6.356   6.640
 6477SOL     OW31461   4.933   6.111   5.861
 6477SOL    HW131462   4.946   6.027   5.915
 6477SOL    HW231463   4.904   6.185   5.921
 6478SOL     OW31464   4.031   5.799   6.817
 6478SOL    HW131465   4.008   5.836   6.907
 6478SOL    HW231466   4.001   5.704   6.811
 6479SOL     OW31467   3.761   6.896   6.868
 6479SOL    HW131468   3.814   6.847   6.936
 6479SOL    HW231469   3.783   6.994   6.873
 6480SOL     OW31470   4.456   6.220   6.650
 6480SOL    HW131471   4.515   6.194   6.574
 6480SOL    HW231472   4.428   6.316   6.639
 6481SOL     OW31473   4.031   5.649   6.204
 6481SOL    HW131474   4.020   5.743   6.237
 6481SOL    HW231475   4.026   5.586   6.281
 6482SOL     OW31476   4.747   6.352   6.552
 6482SOL    HW131477   4.762   6.373   6.648
 6482SOL    HW231478   4.717   6.257   6.543
 6483SOL     OW31479   4.704   7.159   7.286
 6483SOL    HW131480   4.684   7.203   7.198
 6483SOL    HW231481   4.743   7.068   7.270
 6484SOL     OW31482   5.264   5.860   5.711
 6484SOL    HW131483   5.203   5.785   5.734
 6484SOL    HW231484   5.286   5.912   5.794
 6485SOL     OW31485   5.027   6.424   5.628
 6485SOL    HW131486   5.061   6.331   5.643
 6485SOL    HW231487   5.045   6.451   5.533
 6486SOL     OW31488   4.792   6.919   6.435
 6486SOL    HW131489   4.799   6.835   6.380
 6486SOL    HW231490   4.854   6.988   6.399
 6487SOL     OW31491   4.043   6.396   6.535
 6487SOL    HW131492   4.136   6.432   6.540
 6487SOL    HW231493   4.037   6.311   6.587
 6488SOL     OW31494   4.063   6.095   6.592
 6488SOL    HW131495   4.011   6.012   6.575
 6488SOL    HW231496   4.140   6.100   6.528
 6489SOL     OW31497   4.862   5.966   7.264
 6489SOL    HW131498   4.817   6.029   7.328
 6489SOL    HW231499   4.955   5.997   7.247
 6490SOL     OW31500   4.884   5.793   7.063
 6490SOL    HW131501   4.884   5.857   7.140
 6490SOL    HW231502   4.912   5.841   6.980
 6491SOL     OW31503   3.732   6.912   5.786
 6491SOL    HW131504   3.639   6.933   5.755
 6491SOL    HW231505   3.742   6.813   5.799
 6492SOL     OW31506   3.812   7.387   6.513
 6492SOL    HW131507   3.770   7.301   6.486
 6492SOL    HW231508   3.906   7.390   6.479
 6493SOL     OW31509   4.228   7.154   6.496
 6493SOL    HW131510   4.294   7.228   6.505
 6493SOL    HW231511   4.272   7.075   6.454
 6494SOL     OW31512   4.726   6.382   6.824
 6494SOL    HW131513   4.767   6.350   6.910
 6494SOL    HW231514   4.630   6.355   6.821
 6495SOL     OW31515   3.764   6.130   6.700
 6495SOL    HW131516   3.849   6.097   6.659
 6495SOL    HW231517   3.777   6.145   6.798
 6496SOL     OW31518   4.539   6.158   5.911
 6496SOL    HW131519   4.546   6.069   5.865
 6496SOL    HW231520   4.445   6.192   5.903
 6497SOL     OW31521   5.381   6.190   6.792
 6497SOL    HW131522   5.343   6.121   6.854
 6497SOL    HW231523   5.463   6.154   6.748
 6498SOL     OW31524   4.395   6.050   6.855
 6498SOL    HW131525   4.361   5.961   6.825
 6498SOL    HW231526   4.421   6.104   6.775
 6499SOL     OW31527   4.654   7.264   7.051
 6499SOL    HW131528   4.630   7.246   6.956
 6499SOL    HW231529   4.684   7.358   7.061
 6500SOL     OW31530   4.197   6.086   5.777
 6500SOL    HW131531   4.258   6.166   5.781
 6500SOL    HW231532   4.102   6.117   5.784
 6501SOL     OW31533   3.883   6.723   7.052
 6501SOL    HW131534   3.905   6.662   7.128
 6501SOL    HW231535   3.893   6.674   6.966
 6502SOL     OW31536   5.071   6.645   6.820
 6502SOL    HW131537   5.095   6.582   6.746
 6502SOL    HW231538   4.981   6.685   6.802
 6503SOL     OW31539   5.026   6.441   5.895
 6503SOL    HW131540   4.940   6.410   5.937
 6503SOL    HW231541   5.022   6.427   5.796
 6504SOL     OW31542   5.483   7.333   6.740
 6504SOL    HW131543   5.544   7.363   6.667
 6504SOL    HW231544   5.445   7.244   6.718
 6505SOL     OW31545   4.976   7.317   6.714
 6505SOL    HW131546   5.060   7.322   6.660
 6505SOL    HW231547   4.953   7.221   6.732
 6506SOL     OW31548   3.807   6.844   6.608
 6506SOL    HW131549   3.802   6.843   6.708
 6506SOL    HW231550   3.724   6.803   6.570
 6507SOL     OW31551   5.112   7.159   6.063
 6507SOL    HW131552   5.179   7.171   5.989
 6507SOL    HW231553   5.072   7.248   6.086
 6508SOL     OW31554   5.004   6.513   6.258
 6508SOL    HW131555   5.064   6.432   6.260
 6508SOL    HW231556   5.044   6.582   6.198
 6509SOL     OW31557   5.374   7.306   6.980
 6509SOL    HW131558   5.427   7.316   6.896
 6509SOL    HW231559   5.347   7.396   7.014
 6510SOL     OW31560   5.565   5.761   6.549
 6510SOL    HW131561   5.604   5.676   6.513
 6510SOL    HW231562   5.467   5.763   6.530
 6511SOL     OW31563   3.987   5.912   6.306
 6511SOL    HW131564   3.908   5.963   6.272
 6511SOL    HW231565   3.978   5.897   6.404
 6512SOL     OW31566   4.918   7.198   5.617
 6512SOL    HW131567   4.924   7.105   5.654
 6512SOL    HW231568   4.859   7.198   5.537
 6513SOL     OW31569   4.546   6.588   6.958
 6513SOL    HW131570   4.586   6.587   6.866
 6513SOL    HW231571   4.556   6.680   6.998
 6514SOL     OW31572   4.640   6.496   5.877
 6514SOL    HW131573   4.703   6.534   5.809
 6514SOL    HW231574   4.680   6.413   5.916
 6515SOL     OW31575   4.096   6.874   7.076
 6515SOL    HW131576   4.083   6.967   7.042
 6515SOL    HW231577   4.012   6.822   7.063
 6516SOL     OW31578   5.338   6.878   6.875
 6516SOL    HW131579   5.398   6.881   6.955
 6516SOL    HW231580   5.263   6.942   6.888
 6517SOL     OW31581   4.763   6.684   6.282
 6517SOL    HW131582   4.693   6.637   6.336
 6517SOL    HW231583   4.822   6.616   6.239
 6518SOL     OW31584   4.738   5.822   6.557
 6518SOL    HW131585   4.730   5.786   6.464
 6518SOL    HW231586   4.736   5.746   6.622
 6519SOL     OW31587   4.314   7.073   6.077
 6519SOL    HW131588   4.356   7.015   6.007
 6519SOL    HW231589   4.270   7.152   6.033
 6520SOL     OW31590   5.433   5.971   6.967
 6520SOL    HW131591   5.506   6.040   6.971
 6520SOL    HW231592   5.461   5.896   6.908
 6521SOL     OW31593   3.979   6.934   5.876
 6521SOL    HW131594   3.883   6.935   5.849
 6521SOL    HW231595   3.991   6.987   5.960
 6522SOL     OW31596   3.799   5.931   5.619
 6522SOL    HW131597   3.707   5.903   5.590
 6522SOL    HW231598   3.830   6.008   5.563
 6523SOL     OW31599   5.164   6.442   6.984
 6523SOL    HW131600   5.107   6.494   6.921
 6523SOL    HW231601   5.260   6.454   6.960
 6524SOL     OW31602   3.796   5.752   5.904
 6524SOL    HW131603   3.779   5.835   5.850
 6524SOL    HW231604   3.886   5.715   5.882
 6525SOL     OW31605   4.907   6.921   5.705
 6525SOL    HW131606   4.808   6.910   5.707
 6525SOL    HW231607   4.941   6.936   5.798
 6526SOL     OW31608   4.337   6.428   7.017
 6526SOL    HW131609   4.393   6.509   7.000
 6526SOL    HW231610   4.396   6.348   7.020
 6527SOL     OW31611   5.217   7.353   6.545
 6527SOL    HW131612   5.250   7.417   6.476
 6527SOL    HW231613   5.283   7.347   6.620
 6528SOL     OW31614   4.114   7.327   7.146
 6528SOL    HW131615   4.023   7.368   7.144
 6528SOL    HW231616   4.107   7.233   7.178
 6529SOL     OW31617   5.398   6.469   6.840
 6529SOL    HW131618   5.371   6.380   6.803
 6529SOL    HW231619   5.399   6.537   6.767
 6530SOL     OW31620   4.949   5.911   6.035
 6530SOL    HW131621   5.014   5.837   6.024
 6530SOL    HW231622   4.969   5.961   6.119
 6531SOL     OW31623   4.318   6.331   6.238
 6531SOL    HW131624   4.368   6.416   6.219
 6531SOL    HW231625   4.230   6.333   6.190
 6532SOL     OW31626   5.501   5.928   7.228
 6532SOL    HW131627   5.484   5.959   7.134
 6532SOL    HW231628   5.417   5.891   7.266
 6533SOL     OW31629   5.454   6.520   7.103
 6533SOL    HW131630   5.492   6.611   7.118
 6533SOL    HW231631   5.446   6.503   7.004
 6534SOL     OW31632   4.385   7.376   6.539
 6534SOL    HW131633   4.339   7.464   6.526
 6534SOL    HW231634   4.484   7.388   6.532
 6535SOL     OW31635   4.583   6.542   6.447
 6535SOL    HW131636   4.637   6.473   6.495
 6535SOL    HW231637   4.551   6.611   6.513
 6536SOL     OW31638   4.807   6.570   5.673
 6536SOL    HW131639   4.784   6.623   5.591
 6536SOL    HW231640   4.888   6.514   5.654
 6537SOL     OW31641   5.585   7.155   6.437
 6537SOL    HW131642   5.514   7.143   6.367
 6537SOL    HW231643   5.586   7.076   6.497
 6538SOL     OW31644   3.803   6.826   6.239
 6538SOL    HW131645   3.802   6.779   6.327
 6538SOL    HW231646   3.885   6.798   6.188
 6539SOL     OW31647   5.548   5.778   6.813
 6539SOL    HW131648   5.544   5.688   6.857
 6539SOL    HW231649   5.551   5.767   6.714
 6540SOL     OW31650   4.152   6.010   6.106
 6540SOL    HW131651   4.182   5.938   6.044
 6540SOL    HW231652   4.113   5.970   6.189
 6541SOL     OW31653   5.429   7.073   6.690
 6541SOL    HW131654   5.336   7.048   6.663
 6541SOL    HW231655   5.455   7.023   6.772
 6542SOL     OW31656   4.041   6.133   6.866
 6542SOL    HW131657   4.079   6.074   6.938
 6542SOL    HW231658   4.081   6.107   6.778
 6543SOL     OW31659   4.536   7.172   6.273
 6543SOL    HW131660   4.568   7.182   6.179
 6543SOL    HW231661   4.457   7.110   6.275
 6544SOL     OW31662   5.148   5.800   6.698
 6544SOL    HW131663   5.200   5.735   6.753
 6544SOL    HW231664   5.099   5.863   6.759
 6545SOL     OW31665   4.725   5.620   6.740
 6545SOL    HW131666   4.662   5.548   6.709
 6545SOL    HW231667   4.818   5.584   6.740
 6546SOL     OW31668   4.494   6.916   5.887
 6546SOL    HW131669   4.448   6.829   5.904
 6546SOL    HW231670   4.585   6.913   5.928
 6547SOL     OW31671   4.342   7.153   6.870
 6547SOL    HW131672   4.337   7.235   6.927
 6547SOL    HW231673   4.431   7.150   6.825
 6548SOL     OW31674   5.076   5.638   5.754
 6548SOL    HW131675   5.111   5.597   5.670
 6548SOL    HW231676   4.986   5.600   5.774
 6549SOL     OW31677   5.024   6.039   6.277
 6549SOL    HW131678   4.965   6.119   6.281
 6549SOL    HW231679   5.039   6.004   6.370
 6550SOL     OW31680   5.317   5.807   6.468
 6550SOL    HW131681   5.233   5.806   6.522
 6550SOL    HW231682   5.319   5.890   6.412
 6551SOL     OW31683   3.763   6.663   5.886
 6551SOL    HW131684   3.862   6.652   5.877
 6551SOL    HW231685   3.723   6.577   5.918
 6552SOL     OW31686   3.954   8.076   0.113
 6552SOL    HW131687   3.861   8.074   0.150
 6552SOL    HW231688   3.955   8.037   0.021
 6553SOL     OW31689   3.949   7.723   0.996
 6553SOL    HW131690   3.984   7.706   1.088
 6553SOL    HW231691   3.861   7.678   0.984
 6554SOL     OW31692   3.743   7.816   0.647
 6554SOL    HW131693   3.661   7.859   0.686
 6554SOL    HW231694   3.715   7.743   0.584
 6555SOL     OW31695   4.859   8.151   0.717
 6555SOL    HW131696   4.916   8.229   0.692
 6555SOL    HW231697   4.799   8.177   0.793
 6556SOL     OW31698   5.479   8.055   0.231
 6556SOL    HW131699   5.467   8.042   0.132
 6556SOL    HW231700   5.449   7.974   0.280
 6557SOL     OW31701   4.492   8.592   1.023
 6557SOL    HW131702   4.414   8.609   1.083
 6557SOL    HW231703   4.526   8.679   0.987
 6558SOL     OW31704   4.409   8.460   0.665
 6558SOL    HW131705   4.478   8.444   0.735
 6558SOL    HW231706   4.336   8.517   0.703
 6559SOL     OW31707   4.162   7.840   1.499
 6559SOL    HW131708   4.244   7.784   1.508
 6559SOL    HW231709   4.081   7.782   1.503
 6560SOL     OW31710   5.327   7.895   0.737
 6560SOL    HW131711   5.253   7.941   0.687
 6560SOL    HW231712   5.378   7.963   0.790
 6561SOL     OW31713   3.964   8.539   0.886
 6561SOL    HW131714   3.978   8.455   0.938
 6561SOL    HW231715   3.909   8.603   0.941
 6562SOL     OW31716   5.318   7.562   1.480
 6562SOL    HW131717   5.300   7.629   1.408
 6562SOL    HW231718   5.315   7.608   1.569
 6563SOL     OW31719   3.846   8.091   0.563
 6563SOL    HW131720   3.801   8.003   0.580
 6563SOL    HW231721   3.845   8.145   0.647
 6564SOL     OW31722   3.837   8.185   1.597
 6564SOL    HW131723   3.925   8.172   1.642
 6564SOL    HW231724   3.824   8.282   1.575
 6565SOL     OW31725   4.533   7.452   0.502
 6565SOL    HW131726   4.573   7.543   0.493
 6565SOL    HW231727   4.433   7.460   0.508
 6566SOL     OW31728   3.921   8.424   1.264
 6566SOL    HW131729   4.010   8.379   1.250
 6566SOL    HW231730   3.848   8.359   1.245
 6567SOL     OW31731   5.249   8.447   0.190
 6567SOL    HW131732   5.186   8.371   0.203
 6567SOL    HW231733   5.297   8.465   0.276
 6568SOL     OW31734   4.041   7.699   1.801
 6568SOL    HW131735   4.112   7.770   1.807
 6568SOL    HW231736   3.953   7.738   1.829
 6569SOL     OW31737   4.322   8.177   0.270
 6569SOL    HW131738   4.346   8.246   0.202
 6569SOL    HW231739   4.244   8.210   0.324
 6570SOL     OW31740   5.005   7.793   0.944
 6570SOL    HW131741   4.919   7.743   0.931
 6570SOL    HW231742   5.067   7.739   1.000
 6571SOL     OW31743   4.531   8.053   1.465
 6571SOL    HW131744   4.484   8.050   1.554
 6571SOL    HW231745   4.480   7.998   1.399
 6572SOL     OW31746   5.118   7.917   1.674
 6572SOL    HW131747   5.098   7.960   1.762
 6572SOL    HW231748   5.196   7.855   1.683
 6573SOL     OW31749   4.697   8.338   1.572
 6573SOL    HW131750   4.743   8.254   1.543
 6573SOL    HW231751   4.641   8.372   1.497
 6574SOL     OW31752   4.715   7.858   1.242
 6574SOL    HW131753   4.638   7.892   1.296
 6574SOL    HW231754   4.681   7.807   1.163
 6575SOL     OW31755   4.765   8.149   0.429
 6575SOL    HW131756   4.791   8.145   0.525
 6575SOL    HW231757   4.680   8.098   0.415
 6576SOL     OW31758   3.800   8.259   0.789
 6576SOL    HW131759   3.899   8.247   0.798
 6576SOL    HW231760   3.776   8.354   0.810
 6577SOL     OW31761   4.589   7.796   0.195
 6577SOL    HW131762   4.648   7.859   0.146
 6577SOL    HW231763   4.608   7.702   0.166
 6578SOL     OW31764   5.443   8.033   1.831
 6578SOL    HW131765   5.417   8.122   1.795
 6578SOL    HW231766   5.441   7.965   1.758
 6579SOL     OW31767   4.274   7.644   0.885
 6579SOL    HW131768   4.269   7.639   0.985
 6579SOL    HW231769   4.276   7.740   0.856
 6580SOL     OW31770   5.182   8.183   0.728
 6580SOL    HW131771   5.177   8.118   0.803
 6580SOL    HW231772   5.262   8.242   0.741
 6581SOL     OW31773   3.926   7.733   1.498
 6581SOL    HW131774   3.846   7.793   1.485
 6581SOL    HW231775   3.916   7.684   1.584
 6582SOL     OW31776   5.124   7.555   0.426
 6582SOL    HW131777   5.100   7.518   0.336
 6582SOL    HW231778   5.223   7.571   0.430
 6583SOL     OW31779   4.106   8.148   0.480
 6583SOL    HW131780   4.151   8.058   0.477
 6583SOL    HW231781   4.012   8.137   0.513
 6584SOL     OW31782   4.338   7.570   0.117
 6584SOL    HW131783   4.436   7.548   0.124
 6584SOL    HW231784   4.307   7.553   0.024
 6585SOL     OW31785   5.075   8.038   1.433
 6585SOL    HW131786   5.103   7.995   1.518
 6585SOL    HW231787   5.100   8.134   1.434
 6586SOL     OW31788   4.646   7.951   0.899
 6586SOL    HW131789   4.621   7.942   0.803
 6586SOL    HW231790   4.694   7.869   0.930
 6587SOL     OW31791   4.263   7.512   0.512
 6587SOL    HW131792   4.182   7.513   0.570
 6587SOL    HW231793   4.266   7.595   0.457
 6588SOL     OW31794   4.021   7.483   0.171
 6588SOL    HW131795   4.070   7.567   0.150
 6588SOL    HW231796   4.083   7.418   0.216
 6589SOL     OW31797   4.659   7.684   0.480
 6589SOL    HW131798   4.611   7.725   0.402
 6589SOL    HW231799   4.758   7.682   0.461
 6590SOL     OW31800   4.800   8.131   1.464
 6590SOL    HW131801   4.720   8.070   1.467
 6590SOL    HW231802   4.881   8.078   1.440
 6591SOL     OW31803   4.756   7.997   0.016
 6591SOL    HW131804   4.715   8.079  -0.023
 6591SOL    HW231805   4.820   8.023   0.089
 6592SOL     OW31806   3.802   8.004   1.386
 6592SOL    HW131807   3.894   8.003   1.345
 6592SOL    HW231808   3.796   8.078   1.453
 6593SOL     OW31809   4.285   7.670   1.147
 6593SOL    HW131810   4.323   7.586   1.184
 6593SOL    HW231811   4.197   7.689   1.191
 6594SOL     OW31812   4.590   7.902   0.642
 6594SOL    HW131813   4.558   7.974   0.580
 6594SOL    HW231814   4.614   7.821   0.589
 6595SOL     OW31815   4.741   7.487   0.753
 6595SOL    HW131816   4.669   7.492   0.684
 6595SOL    HW231817   4.717   7.418   0.822
 6596SOL     OW31818   5.190   8.038   0.992
 6596SOL    HW131819   5.160   7.943   0.999
 6596SOL    HW231820   5.263   8.054   1.058
 6597SOL     OW31821   5.581   8.281   0.377
 6597SOL    HW131822   5.623   8.217   0.441
 6597SOL    HW231823   5.543   8.230   0.299
 6598SOL     OW31824   5.114   8.023   0.078
 6598SOL    HW131825   5.060   8.002   0.159
 6598SOL    HW231826   5.205   7.982   0.087
 6599SOL     OW31827   4.251   7.704   0.328
 6599SOL    HW131828   4.278   7.645   0.253
 6599SOL    HW231829   4.251   7.799   0.297
 6600SOL     OW31830   5.362   8.547   1.079
 6600SOL    HW131831   5.367   8.628   1.138
 6600SOL    HW231832   5.276   8.549   1.028
 6601SOL     OW31833   4.639   7.537   1.402
 6601SOL    HW131834   4.664   7.517   1.307
 6601SOL    HW231835   4.711   7.593   1.444
 6602SOL     OW31836   4.134   8.261   1.251
 6602SOL    HW131837   4.220   8.273   1.301
 6602SOL    HW231838   4.092   8.174   1.278
 6603SOL     OW31839   4.998   7.834   1.262
 6603SOL    HW131840   5.019   7.908   1.326
 6603SOL    HW231841   4.909   7.851   1.219
 6604SOL     OW31842   4.290   7.985   0.865
 6604SOL    HW131843   4.302   8.051   0.791
 6604SOL    HW231844   4.336   8.019   0.948
 6605SOL     OW31845   5.306   8.087   0.472
 6605SOL    HW131846   5.275   8.148   0.545
 6605SOL    HW231847   5.356   8.139   0.403
 6606SOL     OW31848   4.126   8.199   1.598
 6606SOL    HW131849   4.194   8.254   1.551
 6606SOL    HW231850   4.166   8.111   1.625
 6607SOL     OW31851   5.311   8.227   1.670
 6607SOL    HW131852   5.219   8.265   1.665
 6607SOL    HW231853   5.371   8.274   1.605
 6608SOL     OW31854   4.737   7.553   1.770
 6608SOL    HW131855   4.743   7.638   1.718
 6608SOL    HW231856   4.769   7.477   1.713
 6609SOL     OW31857   4.228   7.498   1.740
 6609SOL    HW131858   4.186   7.441   1.670
 6609SOL    HW231859   4.162   7.567   1.772
 6610SOL     OW31860   4.297   8.318   1.029
 6610SOL    HW131861   4.341   8.407   1.020
 6610SOL    HW231862   4.234   8.318   1.106
 6611SOL     OW31863   5.084   8.310   1.045
 6611SOL    HW131864   5.009   8.310   0.979
 6611SOL    HW231865   5.121   8.218   1.054
 6612SOL     OW31866   4.933   7.973   0.275
 6612SOL    HW131867   4.946   7.889   0.329
 6612SOL    HW231868   4.904   8.047   0.335
 6613SOL     OW31869   4.031   7.661   1.231
 6613SOL    HW131870   4.008   7.698   1.321
 6613SOL    HW231871   4.001   7.566   1.225
 6614SOL     OW31872   4.456   8.082   1.064
 6614SOL    HW131873   4.515   8.056   0.988
 6614SOL    HW231874   4.428   8.178   1.053
 6615SOL     OW31875   5.452   8.383   1.854
 6615SOL    HW131876   5.406   8.376   1.765
 6615SOL    HW231877   5.390   8.427   1.920
 6616SOL     OW31878   4.031   7.511   0.618
 6616SOL    HW131879   4.020   7.605   0.651
 6616SOL    HW231880   4.026   7.448   0.695
 6617SOL     OW31881   5.346   7.815   0.374
 6617SOL    HW131882   5.348   7.739   0.438
 6617SOL    HW231883   5.298   7.892   0.414
 6618SOL     OW31884   4.747   8.214   0.966
 6618SOL    HW131885   4.762   8.235   1.062
 6618SOL    HW231886   4.717   8.119   0.957
 6619SOL     OW31887   4.074   8.346   1.804
 6619SOL    HW131888   4.150   8.390   1.852
 6619SOL    HW231889   4.109   8.299   1.722
 6620SOL     OW31890   5.264   7.722   0.125
 6620SOL    HW131891   5.203   7.647   0.148
 6620SOL    HW231892   5.286   7.774   0.208
 6621SOL     OW31893   5.027   8.286   0.042
 6621SOL    HW131894   5.061   8.193   0.057
 6621SOL    HW231895   5.045   8.313  -0.053
 6622SOL     OW31896   4.043   8.258   0.949
 6622SOL    HW131897   4.136   8.294   0.954
 6622SOL    HW231898   4.037   8.173   1.001
 6623SOL     OW31899   4.063   7.957   1.006
 6623SOL    HW131900   4.011   7.874   0.989
 6623SOL    HW231901   4.140   7.962   0.942
 6624SOL     OW31902   4.862   7.828   1.678
 6624SOL    HW131903   4.817   7.891   1.742
 6624SOL    HW231904   4.955   7.859   1.661
 6625SOL     OW31905   4.884   7.655   1.477
 6625SOL    HW131906   4.884   7.719   1.554
 6625SOL    HW231907   4.912   7.703   1.394
 6626SOL     OW31908   4.726   8.244   1.238
 6626SOL    HW131909   4.767   8.212   1.324
 6626SOL    HW231910   4.630   8.217   1.235
 6627SOL     OW31911   3.764   7.992   1.114
 6627SOL    HW131912   3.849   7.959   1.073
 6627SOL    HW231913   3.777   8.007   1.212
 6628SOL     OW31914   5.093   8.398   1.660
 6628SOL    HW131915   5.132   8.487   1.680
 6628SOL    HW231916   5.103   8.378   1.563
 6629SOL     OW31917   4.539   8.020   0.325
 6629SOL    HW131918   4.546   7.931   0.279
 6629SOL    HW231919   4.445   8.054   0.317
 6630SOL     OW31920   5.381   8.052   1.206
 6630SOL    HW131921   5.343   7.983   1.268
 6630SOL    HW231922   5.463   8.016   1.162
 6631SOL     OW31923   4.395   7.912   1.269
 6631SOL    HW131924   4.361   7.823   1.239
 6631SOL    HW231925   4.421   7.966   1.189
 6632SOL     OW31926   4.197   7.948   0.191
 6632SOL    HW131927   4.258   8.028   0.195
 6632SOL    HW231928   4.102   7.979   0.198
 6633SOL     OW31929   3.883   8.585   1.466
 6633SOL    HW131930   3.905   8.524   1.542
 6633SOL    HW231931   3.893   8.536   1.380
 6634SOL     OW31932   5.071   8.507   1.234
 6634SOL    HW131933   5.095   8.444   1.160
 6634SOL    HW231934   4.981   8.547   1.216
 6635SOL     OW31935   5.026   8.303   0.309
 6635SOL    HW131936   4.940   8.272   0.351
 6635SOL    HW231937   5.022   8.289   0.210
 6636SOL     OW31938   4.627   7.534   0.133
 6636SOL    HW131939   4.678   7.535   0.047
 6636SOL    HW231940   4.683   7.492   0.204
 6637SOL     OW31941   5.450   7.583   0.523
 6637SOL    HW131942   5.523   7.566   0.456
 6637SOL    HW231943   5.419   7.496   0.561
 6638SOL     OW31944   5.004   8.375   0.672
 6638SOL    HW131945   5.064   8.294   0.674
 6638SOL    HW231946   5.044   8.444   0.612
 6639SOL     OW31947   5.565   7.623   0.963
 6639SOL    HW131948   5.604   7.538   0.927
 6639SOL    HW231949   5.467   7.625   0.944
 6640SOL     OW31950   3.987   7.774   0.720
 6640SOL    HW131951   3.908   7.825   0.686
 6640SOL    HW231952   3.978   7.759   0.818
 6641SOL     OW31953   4.640   8.358   0.291
 6641SOL    HW131954   4.703   8.396   0.223
 6641SOL    HW231955   4.680   8.275   0.330
 6642SOL     OW31956   4.738   7.684   0.971
 6642SOL    HW131957   4.730   7.648   0.878
 6642SOL    HW231958   4.736   7.608   1.036
 6643SOL     OW31959   5.433   7.833   1.381
 6643SOL    HW131960   5.506   7.902   1.385
 6643SOL    HW231961   5.461   7.758   1.322
 6644SOL     OW31962   3.829   8.461   1.726
 6644SOL    HW131963   3.752   8.428   1.780
 6644SOL    HW231964   3.914   8.431   1.768
 6645SOL     OW31965   4.396   7.651   1.489
 6645SOL    HW131966   4.486   7.635   1.449
 6645SOL    HW231967   4.404   7.656   1.588
 6646SOL     OW31968   5.164   8.304   1.398
 6646SOL    HW131969   5.107   8.356   1.335
 6646SOL    HW231970   5.260   8.316   1.374
 6647SOL     OW31971   3.796   7.614   0.318
 6647SOL    HW131972   3.779   7.697   0.264
 6647SOL    HW231973   3.886   7.577   0.296
 6648SOL     OW31974   4.337   8.290   1.431
 6648SOL    HW131975   4.393   8.371   1.414
 6648SOL    HW231976   4.396   8.210   1.434
 6649SOL     OW31977   4.440   8.013   1.708
 6649SOL    HW131978   4.459   8.078   1.782
 6649SOL    HW231979   4.500   7.933   1.717
 6650SOL     OW31980   5.398   8.331   1.254
 6650SOL    HW131981   5.371   8.242   1.217
 6650SOL    HW231982   5.399   8.399   1.181
 6651SOL     OW31983   4.949   7.773   0.449
 6651SOL    HW131984   5.014   7.699   0.438
 6651SOL    HW231985   4.969   7.823   0.533
 6652SOL     OW31986   4.318   8.193   0.652
 6652SOL    HW131987   4.368   8.278   0.633
 6652SOL    HW231988   4.230   8.195   0.604
 6653SOL     OW31989   5.501   7.790   1.642
 6653SOL    HW131990   5.484   7.821   1.548
 6653SOL    HW231991   5.417   7.753   1.680
 6654SOL     OW31992   5.454   8.382   1.517
 6654SOL    HW131993   5.492   8.473   1.532
 6654SOL    HW231994   5.446   8.365   1.418
 6655SOL     OW31995   4.807   8.432   0.087
 6655SOL    HW131996   4.784   8.485   0.005
 6655SOL    HW231997   4.888   8.376   0.068
 6656SOL     OW31998   5.548   7.640   1.227
 6656SOL    HW131999   5.544   7.550   1.271
 6656SOL    HW232000   5.551   7.629   1.128
 6657SOL     OW32001   4.152   7.872   0.520
 6657SOL    HW132002   4.182   7.800   0.458
 6657SOL    HW232003   4.113   7.832   0.603
 6658SOL     OW32004   4.041   7.995   1.280
 6658SOL    HW132005   4.079   7.936   1.352
 6658SOL    HW232006   4.081   7.969   1.192
 6659SOL     OW32007   5.148   7.662   1.112
 6659SOL    HW132008   5.200   7.597   1.167
 6659SOL    HW232009   5.099   7.725   1.173
 6660SOL     OW32010   4.725   7.482   1.154
 6660SOL    HW132011   4.662   7.410   1.123
 6660SOL    HW232012   4.818   7.446   1.154
 6661SOL     OW32013   5.076   7.500   0.168
 6661SOL    HW132014   5.111   7.459   0.084
 6661SOL    HW232015   4.986   7.462   0.188
 6662SOL     OW32016   5.024   7.901   0.691
 6662SOL    HW132017   4.965   7.981   0.695
 6662SOL    HW232018   5.039   7.866   0.784
 6663SOL     OW32019   5.317   7.669   0.882
 6663SOL    HW132020   5.233   7.668   0.936
 6663SOL    HW232021   5.319   7.752   0.826
 6664SOL     OW32022   3.964   8.539   2.748
 6664SOL    HW132023   3.978   8.455   2.800
 6664SOL    HW232024   3.909   8.603   2.803
 6665SOL     OW32025   5.318   7.562   3.342
 6665SOL    HW132026   5.300   7.629   3.270
 6665SOL    HW232027   5.315   7.608   3.431
 6666SOL     OW32028   5.249   8.447   2.052
 6666SOL    HW132029   5.186   8.371   2.065
 6666SOL    HW232030   5.297   8.465   2.138
 6667SOL     OW32031   4.041   7.699   3.663
 6667SOL    HW132032   4.112   7.770   3.669
 6667SOL    HW232033   3.953   7.738   3.691
 6668SOL     OW32034   4.322   8.177   2.132
 6668SOL    HW132035   4.346   8.246   2.064
 6668SOL    HW232036   4.244   8.210   2.186
 6669SOL     OW32037   5.005   7.793   2.806
 6669SOL    HW132038   4.919   7.743   2.793
 6669SOL    HW232039   5.067   7.739   2.862
 6670SOL     OW32040   4.697   8.338   3.434
 6670SOL    HW132041   4.743   8.254   3.405
 6670SOL    HW232042   4.641   8.372   3.359
 6671SOL     OW32043   4.715   7.858   3.104
 6671SOL    HW132044   4.638   7.892   3.158
 6671SOL    HW232045   4.681   7.807   3.025
 6672SOL     OW32046   3.926   7.733   3.360
 6672SOL    HW132047   3.846   7.793   3.347
 6672SOL    HW232048   3.916   7.684   3.446
 6673SOL     OW32049   4.106   8.148   2.342
 6673SOL    HW132050   4.151   8.058   2.339
 6673SOL    HW232051   4.012   8.137   2.375
 6674SOL     OW32052   4.338   7.570   1.979
 6674SOL    HW132053   4.436   7.548   1.986
 6674SOL    HW232054   4.307   7.553   1.886
 6675SOL     OW32055   4.646   7.951   2.761
 6675SOL    HW132056   4.621   7.942   2.665
 6675SOL    HW232057   4.694   7.869   2.792
 6676SOL     OW32058   4.021   7.483   2.033
 6676SOL    HW132059   4.070   7.567   2.012
 6676SOL    HW232060   4.083   7.418   2.078
 6677SOL     OW32061   4.800   8.131   3.326
 6677SOL    HW132062   4.720   8.070   3.329
 6677SOL    HW232063   4.881   8.078   3.302
 6678SOL     OW32064   3.802   8.004   3.248
 6678SOL    HW132065   3.894   8.003   3.207
 6678SOL    HW232066   3.796   8.078   3.315
 6679SOL     OW32067   4.285   7.670   3.009
 6679SOL    HW132068   4.323   7.586   3.046
 6679SOL    HW232069   4.197   7.689   3.053
 6680SOL     OW32070   4.590   7.902   2.504
 6680SOL    HW132071   4.558   7.974   2.442
 6680SOL    HW232072   4.614   7.821   2.451
 6681SOL     OW32073   5.190   8.038   2.854
 6681SOL    HW132074   5.160   7.943   2.861
 6681SOL    HW232075   5.263   8.054   2.920
 6682SOL     OW32076   5.581   8.281   2.239
 6682SOL    HW132077   5.623   8.217   2.303
 6682SOL    HW232078   5.543   8.230   2.161
 6683SOL     OW32079   4.251   7.704   2.190
 6683SOL    HW132080   4.278   7.645   2.115
 6683SOL    HW232081   4.251   7.799   2.159
 6684SOL     OW32082   5.362   8.547   2.941
 6684SOL    HW132083   5.367   8.628   3.000
 6684SOL    HW232084   5.276   8.549   2.890
 6685SOL     OW32085   5.306   8.087   2.334
 6685SOL    HW132086   5.275   8.148   2.407
 6685SOL    HW232087   5.356   8.139   2.265
 6686SOL     OW32088   4.126   8.199   3.460
 6686SOL    HW132089   4.194   8.254   3.413
 6686SOL    HW232090   4.166   8.111   3.487
 6687SOL     OW32091   4.737   7.553   3.632
 6687SOL    HW132092   4.743   7.638   3.580
 6687SOL    HW232093   4.769   7.477   3.575
 6688SOL     OW32094   4.228   7.498   3.602
 6688SOL    HW132095   4.186   7.441   3.532
 6688SOL    HW232096   4.162   7.567   3.634
 6689SOL     OW32097   4.031   7.661   3.093
 6689SOL    HW132098   4.008   7.698   3.183
 6689SOL    HW232099   4.001   7.566   3.087
 6690SOL     OW32100   5.452   8.383   3.716
 6690SOL    HW132101   5.406   8.376   3.627
 6690SOL    HW232102   5.390   8.427   3.782
 6691SOL     OW32103   3.913   7.968   3.584
 6691SOL    HW132104   3.972   7.928   3.514
 6691SOL    HW232105   3.855   8.039   3.543
 6692SOL     OW32106   4.539   8.020   2.187
 6692SOL    HW132107   4.546   7.931   2.141
 6692SOL    HW232108   4.445   8.054   2.179
 6693SOL     OW32109   4.395   7.912   3.131
 6693SOL    HW132110   4.361   7.823   3.101
 6693SOL    HW232111   4.421   7.966   3.051
 6694SOL     OW32112   5.071   8.507   3.096
 6694SOL    HW132113   5.095   8.444   3.022
 6694SOL    HW232114   4.981   8.547   3.078
 6695SOL     OW32115   5.026   8.303   2.171
 6695SOL    HW132116   4.940   8.272   2.213
 6695SOL    HW232117   5.022   8.289   2.072
 6696SOL     OW32118   5.565   7.623   2.825
 6696SOL    HW132119   5.604   7.538   2.789
 6696SOL    HW232120   5.467   7.625   2.806
 6697SOL     OW32121   4.949   7.773   2.311
 6697SOL    HW132122   5.014   7.699   2.300
 6697SOL    HW232123   4.969   7.823   2.395
 6698SOL     OW32124   4.318   8.193   2.514
 6698SOL    HW132125   4.368   8.278   2.495
 6698SOL    HW232126   4.230   8.195   2.466
 6699SOL     OW32127   5.548   7.640   3.089
 6699SOL    HW132128   5.544   7.550   3.133
 6699SOL    HW232129   5.551   7.629   2.990
 6700SOL     OW32130   4.152   7.872   2.382
 6700SOL    HW132131   4.182   7.800   2.320
 6700SOL    HW232132   4.113   7.832   2.465
 6701SOL     OW32133   3.949   7.723   4.720
 6701SOL    HW132134   3.984   7.706   4.812
 6701SOL    HW232135   3.861   7.678   4.708
 6702SOL     OW32136   3.846   8.091   4.287
 6702SOL    HW132137   3.801   8.003   4.304
 6702SOL    HW232138   3.845   8.145   4.371
 6703SOL     OW32139   4.533   7.452   4.226
 6703SOL    HW132140   4.573   7.543   4.217
 6703SOL    HW232141   4.433   7.460   4.232
 6704SOL     OW32142   4.041   7.699   5.525
 6704SOL    HW132143   4.112   7.770   5.531
 6704SOL    HW232144   3.953   7.738   5.553
 6705SOL     OW32145   4.531   8.053   5.189
 6705SOL    HW132146   4.484   8.050   5.278
 6705SOL    HW232147   4.480   7.998   5.123
 6706SOL     OW32148   5.118   7.917   5.398
 6706SOL    HW132149   5.098   7.960   5.486
 6706SOL    HW232150   5.196   7.855   5.407
 6707SOL     OW32151   4.715   7.858   4.966
 6707SOL    HW132152   4.638   7.892   5.020
 6707SOL    HW232153   4.681   7.807   4.887
 6708SOL     OW32154   4.765   8.149   4.153
 6708SOL    HW132155   4.791   8.145   4.249
 6708SOL    HW232156   4.680   8.098   4.139
 6709SOL     OW32157   3.800   8.259   4.513
 6709SOL    HW132158   3.899   8.247   4.522
 6709SOL    HW232159   3.776   8.354   4.534
 6710SOL     OW32160   4.589   7.796   3.919
 6710SOL    HW132161   4.648   7.859   3.870
 6710SOL    HW232162   4.608   7.702   3.890
 6711SOL     OW32163   3.926   7.733   5.222
 6711SOL    HW132164   3.846   7.793   5.209
 6711SOL    HW232165   3.916   7.684   5.308
 6712SOL     OW32166   5.124   7.555   4.150
 6712SOL    HW132167   5.100   7.518   4.060
 6712SOL    HW232168   5.223   7.571   4.154
 6713SOL     OW32169   4.505   7.712   5.473
 6713SOL    HW132170   4.572   7.651   5.516
 6713SOL    HW232171   4.432   7.731   5.538
 6714SOL     OW32172   5.075   8.038   5.157
 6714SOL    HW132173   5.103   7.995   5.242
 6714SOL    HW232174   5.100   8.134   5.158
 6715SOL     OW32175   4.263   7.512   4.236
 6715SOL    HW132176   4.182   7.513   4.294
 6715SOL    HW232177   4.266   7.595   4.181
 6716SOL     OW32178   4.800   8.131   5.188
 6716SOL    HW132179   4.720   8.070   5.191
 6716SOL    HW232180   4.881   8.078   5.164
 6717SOL     OW32181   3.802   8.004   5.110
 6717SOL    HW132182   3.894   8.003   5.069
 6717SOL    HW232183   3.796   8.078   5.177
 6718SOL     OW32184   5.114   8.023   3.802
 6718SOL    HW132185   5.060   8.002   3.883
 6718SOL    HW232186   5.205   7.982   3.811
 6719SOL     OW32187   4.639   7.537   5.126
 6719SOL    HW132188   4.664   7.517   5.031
 6719SOL    HW232189   4.711   7.593   5.168
 6720SOL     OW32190   4.290   7.985   4.589
 6720SOL    HW132191   4.302   8.051   4.515
 6720SOL    HW232192   4.336   8.019   4.672
 6721SOL     OW32193   4.126   8.199   5.322
 6721SOL    HW132194   4.194   8.254   5.275
 6721SOL    HW232195   4.166   8.111   5.349
 6722SOL     OW32196   4.737   7.553   5.494
 6722SOL    HW132197   4.743   7.638   5.442
 6722SOL    HW232198   4.769   7.477   5.437
 6723SOL     OW32199   4.228   7.498   5.464
 6723SOL    HW132200   4.186   7.441   5.394
 6723SOL    HW232201   4.162   7.567   5.496
 6724SOL     OW32202   4.031   7.661   4.955
 6724SOL    HW132203   4.008   7.698   5.045
 6724SOL    HW232204   4.001   7.566   4.949
 6725SOL     OW32205   5.452   8.383   5.578
 6725SOL    HW132206   5.406   8.376   5.489
 6725SOL    HW232207   5.390   8.427   5.644
 6726SOL     OW32208   4.074   8.346   5.528
 6726SOL    HW132209   4.150   8.390   5.576
 6726SOL    HW232210   4.109   8.299   5.446
 6727SOL     OW32211   5.027   8.286   3.766
 6727SOL    HW132212   5.061   8.193   3.781
 6727SOL    HW232213   5.045   8.313   3.671
 6728SOL     OW32214   4.862   7.828   5.402
 6728SOL    HW132215   4.817   7.891   5.466
 6728SOL    HW232216   4.955   7.859   5.385
 6729SOL     OW32217   5.093   8.398   5.384
 6729SOL    HW132218   5.132   8.487   5.404
 6729SOL    HW232219   5.103   8.378   5.287
 6730SOL     OW32220   5.071   8.507   4.958
 6730SOL    HW132221   5.095   8.444   4.884
 6730SOL    HW232222   4.981   8.547   4.940
 6731SOL     OW32223   3.987   7.774   4.444
 6731SOL    HW132224   3.908   7.825   4.410
 6731SOL    HW232225   3.978   7.759   4.542
 6732SOL     OW32226   3.829   8.461   5.450
 6732SOL    HW132227   3.752   8.428   5.504
 6732SOL    HW232228   3.914   8.431   5.492
 6733SOL     OW32229   4.396   7.651   5.213
 6733SOL    HW132230   4.486   7.635   5.173
 6733SOL    HW232231   4.404   7.656   5.312
 6734SOL     OW32232   3.799   7.793   3.757
 6734SOL    HW132233   3.707   7.765   3.728
 6734SOL    HW232234   3.830   7.870   3.701
 6735SOL     OW32235   4.337   8.290   5.155
 6735SOL    HW132236   4.393   8.371   5.138
 6735SOL    HW232237   4.396   8.210   5.158
 6736SOL     OW32238   4.440   8.013   5.432
 6736SOL    HW132239   4.459   8.078   5.506
 6736SOL    HW232240   4.500   7.933   5.441
 6737SOL     OW32241   4.152   7.872   4.244
 6737SOL    HW132242   4.182   7.800   4.182
 6737SOL    HW232243   4.113   7.832   4.327
 6738SOL     OW32244   3.949   7.723   6.582
 6738SOL    HW132245   3.984   7.706   6.674
 6738SOL    HW232246   3.861   7.678   6.570
 6739SOL     OW32247   3.743   7.816   6.233
 6739SOL    HW132248   3.661   7.859   6.272
 6739SOL    HW232249   3.715   7.743   6.170
 6740SOL     OW32250   4.859   8.151   6.303
 6740SOL    HW132251   4.916   8.229   6.278
 6740SOL    HW232252   4.799   8.177   6.379
 6741SOL     OW32253   4.492   8.592   6.609
 6741SOL    HW132254   4.414   8.609   6.669
 6741SOL    HW232255   4.526   8.679   6.573
 6742SOL     OW32256   4.409   8.460   6.251
 6742SOL    HW132257   4.478   8.444   6.321
 6742SOL    HW232258   4.336   8.517   6.289
 6743SOL     OW32259   4.162   7.840   7.085
 6743SOL    HW132260   4.244   7.784   7.094
 6743SOL    HW232261   4.081   7.782   7.089
 6744SOL     OW32262   5.327   7.895   6.323
 6744SOL    HW132263   5.253   7.941   6.273
 6744SOL    HW232264   5.378   7.963   6.376
 6745SOL     OW32265   3.964   8.539   6.472
 6745SOL    HW132266   3.978   8.455   6.524
 6745SOL    HW232267   3.909   8.603   6.527
 6746SOL     OW32268   5.318   7.562   7.066
 6746SOL    HW132269   5.300   7.629   6.994
 6746SOL    HW232270   5.315   7.608   7.155
 6747SOL     OW32271   3.846   8.091   6.149
 6747SOL    HW132272   3.801   8.003   6.166
 6747SOL    HW232273   3.845   8.145   6.233
 6748SOL     OW32274   4.533   7.452   6.088
 6748SOL    HW132275   4.573   7.543   6.079
 6748SOL    HW232276   4.433   7.460   6.094
 6749SOL     OW32277   3.921   8.424   6.850
 6749SOL    HW132278   4.010   8.379   6.836
 6749SOL    HW232279   3.848   8.359   6.831
 6750SOL     OW32280   5.249   8.447   5.776
 6750SOL    HW132281   5.186   8.371   5.789
 6750SOL    HW232282   5.297   8.465   5.862
 6751SOL     OW32283   4.322   8.177   5.856
 6751SOL    HW132284   4.346   8.246   5.788
 6751SOL    HW232285   4.244   8.210   5.910
 6752SOL     OW32286   5.005   7.793   6.530
 6752SOL    HW132287   4.919   7.743   6.517
 6752SOL    HW232288   5.067   7.739   6.586
 6753SOL     OW32289   4.531   8.053   7.051
 6753SOL    HW132290   4.484   8.050   7.140
 6753SOL    HW232291   4.480   7.998   6.985
 6754SOL     OW32292   4.715   7.858   6.828
 6754SOL    HW132293   4.638   7.892   6.882
 6754SOL    HW232294   4.681   7.807   6.749
 6755SOL     OW32295   4.765   8.149   6.015
 6755SOL    HW132296   4.791   8.145   6.111
 6755SOL    HW232297   4.680   8.098   6.001
 6756SOL     OW32298   3.800   8.259   6.375
 6756SOL    HW132299   3.899   8.247   6.384
 6756SOL    HW232300   3.776   8.354   6.396
 6757SOL     OW32301   4.589   7.796   5.781
 6757SOL    HW132302   4.648   7.859   5.732
 6757SOL    HW232303   4.608   7.702   5.752
 6758SOL     OW32304   4.274   7.644   6.471
 6758SOL    HW132305   4.269   7.639   6.571
 6758SOL    HW232306   4.276   7.740   6.442
 6759SOL     OW32307   5.182   8.183   6.314
 6759SOL    HW132308   5.177   8.118   6.389
 6759SOL    HW232309   5.262   8.242   6.327
 6760SOL     OW32310   3.926   7.733   7.084
 6760SOL    HW132311   3.846   7.793   7.071
 6760SOL    HW232312   3.916   7.684   7.170
 6761SOL     OW32313   5.124   7.555   6.012
 6761SOL    HW132314   5.100   7.518   5.922
 6761SOL    HW232315   5.223   7.571   6.016
 6762SOL     OW32316   4.106   8.148   6.066
 6762SOL    HW132317   4.151   8.058   6.063
 6762SOL    HW232318   4.012   8.137   6.099
 6763SOL     OW32319   4.338   7.570   5.703
 6763SOL    HW132320   4.436   7.548   5.710
 6763SOL    HW232321   4.307   7.553   5.610
 6764SOL     OW32322   4.646   7.951   6.485
 6764SOL    HW132323   4.621   7.942   6.389
 6764SOL    HW232324   4.694   7.869   6.516
 6765SOL     OW32325   4.263   7.512   6.098
 6765SOL    HW132326   4.182   7.513   6.156
 6765SOL    HW232327   4.266   7.595   6.043
 6766SOL     OW32328   4.021   7.483   5.757
 6766SOL    HW132329   4.070   7.567   5.736
 6766SOL    HW232330   4.083   7.418   5.802
 6767SOL     OW32331   4.659   7.684   6.066
 6767SOL    HW132332   4.611   7.725   5.988
 6767SOL    HW232333   4.758   7.682   6.047
 6768SOL     OW32334   4.756   7.997   5.602
 6768SOL    HW132335   4.715   8.079   5.563
 6768SOL    HW232336   4.820   8.023   5.675
 6769SOL     OW32337   3.802   8.004   6.972
 6769SOL    HW132338   3.894   8.003   6.931
 6769SOL    HW232339   3.796   8.078   7.039
 6770SOL     OW32340   4.285   7.670   6.733
 6770SOL    HW132341   4.323   7.586   6.770
 6770SOL    HW232342   4.197   7.689   6.777
 6771SOL     OW32343   4.590   7.902   6.228
 6771SOL    HW132344   4.558   7.974   6.166
 6771SOL    HW232345   4.614   7.821   6.175
 6772SOL     OW32346   4.741   7.487   6.339
 6772SOL    HW132347   4.669   7.492   6.270
 6772SOL    HW232348   4.717   7.418   6.408
 6773SOL     OW32349   5.190   8.038   6.578
 6773SOL    HW132350   5.160   7.943   6.585
 6773SOL    HW232351   5.263   8.054   6.644
 6774SOL     OW32352   5.581   8.281   5.963
 6774SOL    HW132353   5.623   8.217   6.027
 6774SOL    HW232354   5.543   8.230   5.885
 6775SOL     OW32355   5.114   8.023   5.664
 6775SOL    HW132356   5.060   8.002   5.745
 6775SOL    HW232357   5.205   7.982   5.673
 6776SOL     OW32358   4.251   7.704   5.914
 6776SOL    HW132359   4.278   7.645   5.839
 6776SOL    HW232360   4.251   7.799   5.883
 6777SOL     OW32361   5.362   8.547   6.665
 6777SOL    HW132362   5.367   8.628   6.724
 6777SOL    HW232363   5.276   8.549   6.614
 6778SOL     OW32364   4.639   7.537   6.988
 6778SOL    HW132365   4.664   7.517   6.893
 6778SOL    HW232366   4.711   7.593   7.030
 6779SOL     OW32367   4.134   8.261   6.837
 6779SOL    HW132368   4.220   8.273   6.887
 6779SOL    HW232369   4.092   8.174   6.864
 6780SOL     OW32370   4.998   7.834   6.848
 6780SOL    HW132371   5.019   7.908   6.912
 6780SOL    HW232372   4.909   7.851   6.805
 6781SOL     OW32373   4.290   7.985   6.451
 6781SOL    HW132374   4.302   8.051   6.377
 6781SOL    HW232375   4.336   8.019   6.534
 6782SOL     OW32376   5.306   8.087   6.058
 6782SOL    HW132377   5.275   8.148   6.131
 6782SOL    HW232378   5.356   8.139   5.989
 6783SOL     OW32379   4.126   8.199   7.184
 6783SOL    HW132380   4.194   8.254   7.137
 6783SOL    HW232381   4.166   8.111   7.211
 6784SOL     OW32382   5.311   8.227   7.256
 6784SOL    HW132383   5.219   8.265   7.251
 6784SOL    HW232384   5.371   8.274   7.191
 6785SOL     OW32385   4.297   8.318   6.615
 6785SOL    HW132386   4.341   8.407   6.606
 6785SOL    HW232387   4.234   8.318   6.692
 6786SOL     OW32388   5.084   8.310   6.631
 6786SOL    HW132389   5.009   8.310   6.565
 6786SOL    HW232390   5.121   8.218   6.640
 6787SOL     OW32391   4.933   7.973   5.861
 6787SOL    HW132392   4.946   7.889   5.915
 6787SOL    HW232393   4.904   8.047   5.921
 6788SOL     OW32394   4.031   7.661   6.817
 6788SOL    HW132395   4.008   7.698   6.907
 6788SOL    HW232396   4.001   7.566   6.811
 6789SOL     OW32397   4.456   8.082   6.650
 6789SOL    HW132398   4.515   8.056   6.574
 6789SOL    HW232399   4.428   8.178   6.639
 6790SOL     OW32400   4.031   7.511   6.204
 6790SOL    HW132401   4.020   7.605   6.237
 6790SOL    HW232402   4.026   7.448   6.281
 6791SOL     OW32403   5.346   7.815   5.960
 6791SOL    HW132404   5.348   7.739   6.024
 6791SOL    HW232405   5.298   7.892   6.000
 6792SOL     OW32406   4.747   8.214   6.552
 6792SOL    HW132407   4.762   8.235   6.648
 6792SOL    HW232408   4.717   8.119   6.543
 6793SOL     OW32409   5.264   7.722   5.711
 6793SOL    HW132410   5.203   7.647   5.734
 6793SOL    HW232411   5.286   7.774   5.794
 6794SOL     OW32412   4.043   8.258   6.535
 6794SOL    HW132413   4.136   8.294   6.540
 6794SOL    HW232414   4.037   8.173   6.587
 6795SOL     OW32415   4.063   7.957   6.592
 6795SOL    HW132416   4.011   7.874   6.575
 6795SOL    HW232417   4.140   7.962   6.528
 6796SOL     OW32418   4.862   7.828   7.264
 6796SOL    HW132419   4.817   7.891   7.328
 6796SOL    HW232420   4.955   7.859   7.247
 6797SOL     OW32421   4.884   7.655   7.063
 6797SOL    HW132422   4.884   7.719   7.140
 6797SOL    HW232423   4.912   7.703   6.980
 6798SOL     OW32424   4.726   8.244   6.824
 6798SOL    HW132425   4.767   8.212   6.910
 6798SOL    HW232426   4.630   8.217   6.821
 6799SOL     OW32427   3.764   7.992   6.700
 6799SOL    HW132428   3.849   7.959   6.659
 6799SOL    HW232429   3.777   8.007   6.798
 6800SOL     OW32430   4.539   8.020   5.911
 6800SOL    HW132431   4.546   7.931   5.865
 6800SOL    HW232432   4.445   8.054   5.903
 6801SOL     OW32433   5.381   8.052   6.792
 6801SOL    HW132434   5.343   7.983   6.854
 6801SOL    HW232435   5.463   8.016   6.748
 6802SOL     OW32436   4.395   7.912   6.855
 6802SOL    HW132437   4.361   7.823   6.825
 6802SOL    HW232438   4.421   7.966   6.775
 6803SOL     OW32439   4.197   7.948   5.777
 6803SOL    HW132440   4.258   8.028   5.781
 6803SOL    HW232441   4.102   7.979   5.784
 6804SOL     OW32442   3.883   8.585   7.052
 6804SOL    HW132443   3.905   8.524   7.128
 6804SOL    HW232444   3.893   8.536   6.966
 6805SOL     OW32445   5.071   8.507   6.820
 6805SOL    HW132446   5.095   8.444   6.746
 6805SOL    HW232447   4.981   8.547   6.802
 6806SOL     OW32448   5.026   8.303   5.895
 6806SOL    HW132449   4.940   8.272   5.937
 6806SOL    HW232450   5.022   8.289   5.796
 6807SOL     OW32451   5.450   7.583   6.109
 6807SOL    HW132452   5.523   7.566   6.042
 6807SOL    HW232453   5.419   7.496   6.147
 6808SOL     OW32454   5.004   8.375   6.258
 6808SOL    HW132455   5.064   8.294   6.260
 6808SOL    HW232456   5.044   8.444   6.198
 6809SOL     OW32457   5.565   7.623   6.549
 6809SOL    HW132458   5.604   7.538   6.513
 6809SOL    HW232459   5.467   7.625   6.530
 6810SOL     OW32460   3.987   7.774   6.306
 6810SOL    HW132461   3.908   7.825   6.272
 6810SOL    HW232462   3.978   7.759   6.404
 6811SOL     OW32463   4.640   8.358   5.877
 6811SOL    HW132464   4.703   8.396   5.809
 6811SOL    HW232465   4.680   8.275   5.916
 6812SOL     OW32466   4.738   7.684   6.557
 6812SOL    HW132467   4.730   7.648   6.464
 6812SOL    HW232468   4.736   7.608   6.622
 6813SOL     OW32469   5.433   7.833   6.967
 6813SOL    HW132470   5.506   7.902   6.971
 6813SOL    HW232471   5.461   7.758   6.908
 6814SOL     OW32472   5.164   8.304   6.984
 6814SOL    HW132473   5.107   8.356   6.921
 6814SOL    HW232474   5.260   8.316   6.960
 6815SOL     OW32475   3.796   7.614   5.904
 6815SOL    HW132476   3.779   7.697   5.850
 6815SOL    HW232477   3.886   7.577   5.882
 6816SOL     OW32478   4.337   8.290   7.017
 6816SOL    HW132479   4.393   8.371   7.000
 6816SOL    HW232480   4.396   8.210   7.020
 6817SOL     OW32481   5.398   8.331   6.840
 6817SOL    HW132482   5.371   8.242   6.803
 6817SOL    HW232483   5.399   8.399   6.767
 6818SOL     OW32484   4.949   7.773   6.035
 6818SOL    HW132485   5.014   7.699   6.024
 6818SOL    HW232486   4.969   7.823   6.119
 6819SOL     OW32487   4.318   8.193   6.238
 6819SOL    HW132488   4.368   8.278   6.219
 6819SOL    HW232489   4.230   8.195   6.190
 6820SOL     OW32490   5.501   7.790   7.228
 6820SOL    HW132491   5.484   7.821   7.134
 6820SOL    HW232492   5.417   7.753   7.266
 6821SOL     OW32493   5.454   8.382   7.103
 6821SOL    HW132494   5.492   8.473   7.118
 6821SOL    HW232495   5.446   8.365   7.004
 6822SOL     OW32496   5.548   7.640   6.813
 6822SOL    HW132497   5.544   7.550   6.857
 6822SOL    HW232498   5.551   7.629   6.714
 6823SOL     OW32499   4.152   7.872   6.106
 6823SOL    HW132500   4.182   7.800   6.044
 6823SOL    HW232501   4.113   7.832   6.189
 6824SOL     OW32502   4.041   7.995   6.866
 6824SOL    HW132503   4.079   7.936   6.938
 6824SOL    HW232504   4.081   7.969   6.778
 6825SOL     OW32505   5.148   7.662   6.698
 6825SOL    HW132506   5.200   7.597   6.753
 6825SOL    HW232507   5.099   7.725   6.759
 6826SOL     OW32508   4.725   7.482   6.740
 6826SOL    HW132509   4.662   7.410   6.709
 6826SOL    HW232510   4.818   7.446   6.740
 6827SOL     OW32511   5.024   7.901   6.277
 6827SOL    HW132512   4.965   7.981   6.281
 6827SOL    HW232513   5.039   7.866   6.370
 6828SOL     OW32514   5.317   7.669   6.468
 6828SOL    HW132515   5.233   7.668   6.522
 6828SOL    HW232516   5.319   7.752   6.412
 6829SOL     OW32517   5.816   0.628   0.113
 6829SOL    HW132518   5.723   0.626   0.150
 6829SOL    HW232519   5.817   0.589   0.021
 6830SOL     OW32520   5.811   0.275   0.996
 6830SOL    HW132521   5.846   0.258   1.088
 6830SOL    HW232522   5.723   0.230   0.984
 6831SOL     OW32523   5.605   0.368   0.647
 6831SOL    HW132524   5.523   0.411   0.686
 6831SOL    HW232525   5.577   0.295   0.584
 6832SOL     OW32526   6.155   1.275   1.165
 6832SOL    HW132527   6.062   1.268   1.128
 6832SOL    HW232528   6.166   1.364   1.209
 6833SOL     OW32529   7.141   1.511   0.703
 6833SOL    HW132530   7.084   1.495   0.784
 6833SOL    HW232531   7.082   1.521   0.623
 6834SOL     OW32532   6.721   0.703   0.717
 6834SOL    HW132533   6.778   0.781   0.692
 6834SOL    HW232534   6.661   0.729   0.793
 6835SOL     OW32535   7.341   0.607   0.231
 6835SOL    HW132536   7.329   0.594   0.132
 6835SOL    HW232537   7.311   0.526   0.280
 6836SOL     OW32538   6.354   1.144   1.023
 6836SOL    HW132539   6.276   1.161   1.083
 6836SOL    HW232540   6.388   1.231   0.987
 6837SOL     OW32541   6.436   0.798   1.823
 6837SOL    HW132542   6.432   0.874   1.888
 6837SOL    HW232543   6.458   0.834   1.732
 6838SOL     OW32544   6.271   1.012   0.665
 6838SOL    HW132545   6.340   0.996   0.735
 6838SOL    HW232546   6.198   1.069   0.703
 6839SOL     OW32547   5.921   1.435   1.061
 6839SOL    HW132548   5.843   1.404   1.008
 6839SOL    HW232549   5.979   1.493   1.004
 6840SOL     OW32550   7.046   1.505   1.339
 6840SOL    HW132551   7.070   1.599   1.365
 6840SOL    HW232552   7.030   1.451   1.421
 6841SOL     OW32553   7.189   0.447   0.737
 6841SOL    HW132554   7.115   0.493   0.687
 6841SOL    HW232555   7.240   0.515   0.790
 6842SOL     OW32556   5.817   1.713   0.483
 6842SOL    HW132557   5.851   1.790   0.537
 6842SOL    HW232558   5.861   1.713   0.393
 6843SOL     OW32559   6.713   1.341   1.690
 6843SOL    HW132560   6.760   1.341   1.778
 6843SOL    HW232561   6.665   1.254   1.679
 6844SOL     OW32562   5.816   1.434   0.538
 6844SOL    HW132563   5.790   1.530   0.538
 6844SOL    HW232564   5.745   1.380   0.583
 6845SOL     OW32565   5.826   1.091   0.886
 6845SOL    HW132566   5.840   1.007   0.938
 6845SOL    HW232567   5.771   1.155   0.941
 6846SOL     OW32568   6.206   1.786   1.439
 6846SOL    HW132569   6.114   1.769   1.474
 6846SOL    HW232570   6.234   1.878   1.465
 6847SOL     OW32571   6.192   0.964   0.123
 6847SOL    HW132572   6.199   1.048   0.069
 6847SOL    HW232573   6.238   0.977   0.211
 6848SOL     OW32574   7.180   0.114   1.480
 6848SOL    HW132575   7.162   0.181   1.408
 6848SOL    HW232576   7.177   0.160   1.569
 6849SOL     OW32577   5.708   0.643   0.563
 6849SOL    HW132578   5.663   0.555   0.580
 6849SOL    HW232579   5.707   0.697   0.647
 6850SOL     OW32580   7.428   1.767   0.359
 6850SOL    HW132581   7.482   1.738   0.439
 6850SOL    HW232582   7.458   1.857   0.330
 6851SOL     OW32583   5.613   1.596   0.117
 6851SOL    HW132584   5.594   1.500   0.138
 6851SOL    HW232585   5.580   1.654   0.192
 6852SOL     OW32586   7.275   0.922   0.612
 6852SOL    HW132587   7.370   0.893   0.620
 6852SOL    HW232588   7.267   0.987   0.537
 6853SOL     OW32589   7.227   1.108   0.432
 6853SOL    HW132590   7.313   1.110   0.380
 6853SOL    HW232591   7.241   1.155   0.520
 6854SOL     OW32592   5.699   0.737   1.597
 6854SOL    HW132593   5.787   0.724   1.642
 6854SOL    HW232594   5.686   0.834   1.575
 6855SOL     OW32595   6.199   1.365   0.726
 6855SOL    HW132596   6.150   1.278   0.735
 6855SOL    HW232597   6.176   1.408   0.639
 6856SOL     OW32598   6.879   1.228   1.423
 6856SOL    HW132599   6.916   1.155   1.365
 6856SOL    HW232600   6.931   1.233   1.508
 6857SOL     OW32601   6.395   0.004   0.502
 6857SOL    HW132602   6.435   0.095   0.493
 6857SOL    HW232603   6.295   0.012   0.508
 6858SOL     OW32604   5.783   0.976   1.264
 6858SOL    HW132605   5.872   0.931   1.250
 6858SOL    HW232606   5.710   0.911   1.245
 6859SOL     OW32607   7.111   0.999   0.190
 6859SOL    HW132608   7.048   0.923   0.203
 6859SOL    HW232609   7.159   1.017   0.276
 6860SOL     OW32610   6.773   1.792   1.616
 6860SOL    HW132611   6.797   1.852   1.540
 6860SOL    HW232612   6.780   1.697   1.586
 6861SOL     OW32613   5.903   0.251   1.801
 6861SOL    HW132614   5.974   0.322   1.807
 6861SOL    HW232615   5.815   0.290   1.829
 6862SOL     OW32616   7.253   1.714   0.572
 6862SOL    HW132617   7.212   1.691   0.484
 6862SOL    HW232618   7.235   1.640   0.637
 6863SOL     OW32619   6.184   0.729   0.270
 6863SOL    HW132620   6.208   0.798   0.202
 6863SOL    HW232621   6.106   0.762   0.324
 6864SOL     OW32622   6.867   0.345   0.944
 6864SOL    HW132623   6.781   0.295   0.931
 6864SOL    HW232624   6.929   0.291   1.000
 6865SOL     OW32625   7.162   1.662   0.307
 6865SOL    HW132626   7.251   1.708   0.310
 6865SOL    HW232627   7.141   1.638   0.212
 6866SOL     OW32628   6.393   0.605   1.465
 6866SOL    HW132629   6.346   0.602   1.554
 6866SOL    HW232630   6.342   0.550   1.399
 6867SOL     OW32631   6.559   0.890   1.572
 6867SOL    HW132632   6.605   0.806   1.543
 6867SOL    HW232633   6.503   0.924   1.497
 6868SOL     OW32634   6.577   0.410   1.242
 6868SOL    HW132635   6.500   0.444   1.296
 6868SOL    HW232636   6.543   0.359   1.163
 6869SOL     OW32637   6.627   0.701   0.429
 6869SOL    HW132638   6.653   0.697   0.525
 6869SOL    HW232639   6.542   0.650   0.415
 6870SOL     OW32640   5.662   0.811   0.789
 6870SOL    HW132641   5.761   0.799   0.798
 6870SOL    HW232642   5.638   0.906   0.810
 6871SOL     OW32643   6.451   0.348   0.195
 6871SOL    HW132644   6.510   0.411   0.146
 6871SOL    HW232645   6.470   0.254   0.166
 6872SOL     OW32646   6.948   1.144   0.545
 6872SOL    HW132647   7.031   1.115   0.497
 6872SOL    HW232648   6.899   1.211   0.489
 6873SOL     OW32649   6.136   0.196   0.885
 6873SOL    HW132650   6.131   0.191   0.985
 6873SOL    HW232651   6.138   0.292   0.856
 6874SOL     OW32652   6.594   1.456   0.477
 6874SOL    HW132653   6.548   1.528   0.425
 6874SOL    HW232654   6.590   1.476   0.575
 6875SOL     OW32655   5.937   1.801   0.853
 6875SOL    HW132656   5.987   1.715   0.859
 6875SOL    HW232657   6.002   1.878   0.850
 6876SOL     OW32658   6.813   1.550   1.506
 6876SOL    HW132659   6.819   1.473   1.570
 6876SOL    HW232660   6.761   1.524   1.426
 6877SOL     OW32661   5.907   0.943   0.242
 6877SOL    HW132662   5.989   0.982   0.200
 6877SOL    HW232663   5.880   0.861   0.193
 6878SOL     OW32664   7.044   0.735   0.728
 6878SOL    HW132665   7.039   0.670   0.803
 6878SOL    HW232666   7.124   0.794   0.741
 6879SOL     OW32667   6.047   1.266   1.727
 6879SOL    HW132668   5.997   1.267   1.641
 6879SOL    HW232669   5.984   1.248   1.803
 6880SOL     OW32670   6.697   1.776   0.237
 6880SOL    HW132671   6.637   1.714   0.287
 6880SOL    HW232672   6.728   1.732   0.152
 6881SOL     OW32673   5.788   0.285   1.498
 6881SOL    HW132674   5.708   0.345   1.485
 6881SOL    HW232675   5.778   0.236   1.584
 6882SOL     OW32676   7.218   1.377   0.081
 6882SOL    HW132677   7.186   1.471   0.071
 6882SOL    HW232678   7.142   1.314   0.069
 6883SOL     OW32679   6.050   1.743   0.323
 6883SOL    HW132680   6.083   1.782   0.409
 6883SOL    HW232681   6.126   1.736   0.258
 6884SOL     OW32682   6.986   0.107   0.426
 6884SOL    HW132683   6.962   0.070   0.336
 6884SOL    HW232684   7.085   0.123   0.430
 6885SOL     OW32685   5.835   1.785   1.241
 6885SOL    HW132686   5.892   1.720   1.291
 6885SOL    HW232687   5.819   1.752   1.148
 6886SOL     OW32688   6.526   1.698   0.904
 6886SOL    HW132689   6.606   1.641   0.925
 6886SOL    HW232690   6.477   1.658   0.827
 6887SOL     OW32691   5.968   0.700   0.480
 6887SOL    HW132692   6.013   0.610   0.477
 6887SOL    HW232693   5.874   0.689   0.513
 6888SOL     OW32694   7.133   0.222   1.729
 6888SOL    HW132695   7.128   0.259   1.821
 6888SOL    HW232696   7.061   0.153   1.717
 6889SOL     OW32697   6.200   0.122   0.117
 6889SOL    HW132698   6.298   0.100   0.124
 6889SOL    HW232699   6.169   0.105   0.024
 6890SOL     OW32700   6.474   1.514   1.195
 6890SOL    HW132701   6.451   1.489   1.101
 6890SOL    HW232702   6.535   1.445   1.234
 6891SOL     OW32703   6.389   1.402   0.924
 6891SOL    HW132704   6.479   1.416   0.882
 6891SOL    HW232705   6.318   1.404   0.853
 6892SOL     OW32706   6.508   0.503   0.899
 6892SOL    HW132707   6.483   0.494   0.803
 6892SOL    HW232708   6.556   0.421   0.930
 6893SOL     OW32709   6.125   0.064   0.512
 6893SOL    HW132710   6.044   0.065   0.570
 6893SOL    HW232711   6.128   0.147   0.457
 6894SOL     OW32712   7.020   1.188   0.041
 6894SOL    HW132713   7.052   1.112   0.098
 6894SOL    HW232714   6.928   1.215   0.071
 6895SOL     OW32715   5.883   0.035   0.171
 6895SOL    HW132716   5.932   0.119   0.150
 6895SOL    HW232717   5.945  -0.030   0.216
 6896SOL     OW32718   6.521   0.236   0.480
 6896SOL    HW132719   6.473   0.277   0.402
 6896SOL    HW232720   6.620   0.234   0.461
 6897SOL     OW32721   6.662   0.683   1.464
 6897SOL    HW132722   6.582   0.622   1.467
 6897SOL    HW232723   6.743   0.630   1.440
 6898SOL     OW32724   6.813   1.570   0.793
 6898SOL    HW132725   6.834   1.644   0.728
 6898SOL    HW232726   6.881   1.570   0.866
 6899SOL     OW32727   6.045   1.152   0.741
 6899SOL    HW132728   5.974   1.125   0.806
 6899SOL    HW232729   6.019   1.124   0.648
 6900SOL     OW32730   6.857   1.797   0.591
 6900SOL    HW132731   6.901   1.861   0.527
 6900SOL    HW232732   6.807   1.849   0.661
 6901SOL     OW32733   6.618   0.549   0.016
 6901SOL    HW132734   6.577   0.631  -0.023
 6901SOL    HW232735   6.682   0.575   0.089
 6902SOL     OW32736   5.664   0.556   1.386
 6902SOL    HW132737   5.756   0.555   1.345
 6902SOL    HW232738   5.658   0.630   1.453
 6903SOL     OW32739   6.147   0.222   1.147
 6903SOL    HW132740   6.185   0.138   1.184
 6903SOL    HW232741   6.059   0.241   1.191
 6904SOL     OW32742   6.452   0.454   0.642
 6904SOL    HW132743   6.420   0.526   0.580
 6904SOL    HW232744   6.476   0.373   0.589
 6905SOL     OW32745   6.603   0.039   0.753
 6905SOL    HW132746   6.531   0.044   0.684
 6905SOL    HW232747   6.579  -0.030   0.822
 6906SOL     OW32748   7.015   1.173   0.867
 6906SOL    HW132749   6.960   1.089   0.860
 6906SOL    HW232750   7.041   1.202   0.775
 6907SOL     OW32751   7.443   0.833   0.377
 6907SOL    HW132752   7.485   0.769   0.441
 6907SOL    HW232753   7.405   0.782   0.299
 6908SOL     OW32754   6.074   1.385   0.174
 6908SOL    HW132755   5.987   1.370   0.221
 6908SOL    HW232756   6.057   1.411   0.079
 6909SOL     OW32757   7.250   1.280   0.657
 6909SOL    HW132758   7.349   1.288   0.671
 6909SOL    HW232759   7.205   1.364   0.688
 6910SOL     OW32760   6.976   0.575   0.078
 6910SOL    HW132761   6.922   0.554   0.159
 6910SOL    HW232762   7.067   0.534   0.087
 6911SOL     OW32763   6.113   0.256   0.328
 6911SOL    HW132764   6.140   0.197   0.253
 6911SOL    HW232765   6.113   0.351   0.297
 6912SOL     OW32766   6.650   1.347   1.340
 6912SOL    HW132767   6.570   1.324   1.395
 6912SOL    HW232768   6.733   1.321   1.389
 6913SOL     OW32769   6.697   1.195   1.100
 6913SOL    HW132770   6.657   1.239   1.181
 6913SOL    HW232771   6.656   1.232   1.017
 6914SOL     OW32772   6.501   0.089   1.402
 6914SOL    HW132773   6.526   0.069   1.307
 6914SOL    HW232774   6.573   0.145   1.444
 6915SOL     OW32775   6.566   1.116   1.719
 6915SOL    HW132776   6.467   1.122   1.729
 6915SOL    HW232777   6.589   1.036   1.663
 6916SOL     OW32778   6.291   1.050   0.368
 6916SOL    HW132779   6.277   1.057   0.467
 6916SOL    HW232780   6.375   0.999   0.350
 6917SOL     OW32781   5.996   0.813   1.251
 6917SOL    HW132782   6.082   0.825   1.301
 6917SOL    HW232783   5.954   0.726   1.278
 6918SOL     OW32784   5.953   1.100   0.501
 6918SOL    HW132785   5.946   1.183   0.445
 6918SOL    HW232786   5.957   1.020   0.441
 6919SOL     OW32787   6.152   0.537   0.865
 6919SOL    HW132788   6.164   0.603   0.791
 6919SOL    HW232789   6.198   0.571   0.948
 6920SOL     OW32790   6.838   1.348   0.388
 6920SOL    HW132791   6.888   1.425   0.428
 6920SOL    HW232792   6.743   1.350   0.420
 6921SOL     OW32793   6.858   1.445   1.142
 6921SOL    HW132794   6.905   1.458   1.229
 6921SOL    HW232795   6.792   1.371   1.151
 6922SOL     OW32796   7.168   0.639   0.472
 6922SOL    HW132797   7.137   0.700   0.545
 6922SOL    HW232798   7.218   0.691   0.403
 6923SOL     OW32799   5.940   1.510   1.329
 6923SOL    HW132800   5.919   1.466   1.242
 6923SOL    HW232801   6.037   1.536   1.332
 6924SOL     OW32802   5.988   0.751   1.598
 6924SOL    HW132803   6.056   0.806   1.551
 6924SOL    HW232804   6.028   0.663   1.625
 6925SOL     OW32805   6.090   0.050   1.740
 6925SOL    HW132806   6.048  -0.007   1.670
 6925SOL    HW232807   6.024   0.119   1.772
 6926SOL     OW32808   6.159   0.870   1.029
 6926SOL    HW132809   6.203   0.959   1.020
 6926SOL    HW232810   6.096   0.870   1.106
 6927SOL     OW32811   6.795   0.525   0.275
 6927SOL    HW132812   6.808   0.441   0.329
 6927SOL    HW232813   6.766   0.599   0.335
 6928SOL     OW32814   5.893   0.213   1.231
 6928SOL    HW132815   5.870   0.250   1.321
 6928SOL    HW232816   5.863   0.118   1.225
 6929SOL     OW32817   5.623   1.310   1.282
 6929SOL    HW132818   5.676   1.261   1.350
 6929SOL    HW232819   5.645   1.408   1.287
 6930SOL     OW32820   6.318   0.634   1.064
 6930SOL    HW132821   6.377   0.608   0.988
 6930SOL    HW232822   6.290   0.730   1.053
 6931SOL     OW32823   5.893   0.063   0.618
 6931SOL    HW132824   5.882   0.157   0.651
 6931SOL    HW232825   5.888   0.000   0.695
 6932SOL     OW32826   7.208   0.367   0.374
 6932SOL    HW132827   7.210   0.291   0.438
 6932SOL    HW232828   7.160   0.444   0.414
 6933SOL     OW32829   6.609   0.766   0.966
 6933SOL    HW132830   6.624   0.787   1.062
 6933SOL    HW232831   6.579   0.671   0.957
 6934SOL     OW32832   6.566   1.573   1.700
 6934SOL    HW132833   6.546   1.617   1.612
 6934SOL    HW232834   6.605   1.482   1.684
 6935SOL     OW32835   7.445   1.518   1.605
 6935SOL    HW132836   7.459   1.545   1.510
 6935SOL    HW232837   7.528   1.540   1.658
 6936SOL     OW32838   7.126   0.274   0.125
 6936SOL    HW132839   7.065   0.199   0.148
 6936SOL    HW232840   7.148   0.326   0.208
 6937SOL     OW32841   6.889   0.838   0.042
 6937SOL    HW132842   6.923   0.745   0.057
 6937SOL    HW232843   6.907   0.865  -0.053
 6938SOL     OW32844   6.654   1.333   0.849
 6938SOL    HW132845   6.661   1.249   0.794
 6938SOL    HW232846   6.716   1.402   0.813
 6939SOL     OW32847   5.905   0.810   0.949
 6939SOL    HW132848   5.998   0.846   0.954
 6939SOL    HW232849   5.899   0.725   1.001
 6940SOL     OW32850   5.925   0.509   1.006
 6940SOL    HW132851   5.873   0.426   0.989
 6940SOL    HW232852   6.002   0.514   0.942
 6941SOL     OW32853   5.594   1.326   0.200
 6941SOL    HW132854   5.501   1.347   0.169
 6941SOL    HW232855   5.604   1.227   0.213
 6942SOL     OW32856   5.674   1.801   0.927
 6942SOL    HW132857   5.632   1.715   0.900
 6942SOL    HW232858   5.768   1.804   0.893
 6943SOL     OW32859   6.090   1.568   0.910
 6943SOL    HW132860   6.156   1.642   0.919
 6943SOL    HW232861   6.134   1.489   0.868
 6944SOL     OW32862   6.588   0.796   1.238
 6944SOL    HW132863   6.629   0.764   1.324
 6944SOL    HW232864   6.492   0.769   1.235
 6945SOL     OW32865   5.626   0.544   1.114
 6945SOL    HW132866   5.711   0.511   1.073
 6945SOL    HW232867   5.639   0.559   1.212
 6946SOL     OW32868   5.775   0.520   1.722
 6946SOL    HW132869   5.834   0.480   1.652
 6946SOL    HW232870   5.717   0.591   1.681
 6947SOL     OW32871   6.955   0.950   1.660
 6947SOL    HW132872   6.994   1.039   1.680
 6947SOL    HW232873   6.965   0.930   1.563
 6948SOL     OW32874   6.401   0.572   0.325
 6948SOL    HW132875   6.408   0.483   0.279
 6948SOL    HW232876   6.307   0.606   0.317
 6949SOL     OW32877   5.838   1.564   1.744
 6949SOL    HW132878   5.808   1.621   1.820
 6949SOL    HW232879   5.831   1.467   1.770
 6950SOL     OW32880   6.257   0.464   1.269
 6950SOL    HW132881   6.223   0.375   1.239
 6950SOL    HW232882   6.283   0.518   1.189
 6951SOL     OW32883   6.516   1.678   1.465
 6951SOL    HW132884   6.492   1.660   1.370
 6951SOL    HW232885   6.546   1.772   1.475
 6952SOL     OW32886   6.059   0.500   0.191
 6952SOL    HW132887   6.120   0.580   0.195
 6952SOL    HW232888   5.964   0.531   0.198
 6953SOL     OW32889   5.745   1.137   1.466
 6953SOL    HW132890   5.767   1.076   1.542
 6953SOL    HW232891   5.755   1.088   1.380
 6954SOL     OW32892   6.933   1.059   1.234
 6954SOL    HW132893   6.957   0.996   1.160
 6954SOL    HW232894   6.843   1.099   1.216
 6955SOL     OW32895   6.888   0.855   0.309
 6955SOL    HW132896   6.802   0.824   0.351
 6955SOL    HW232897   6.884   0.841   0.210
 6956SOL     OW32898   7.345   1.747   1.154
 6956SOL    HW132899   7.406   1.777   1.081
 6956SOL    HW232900   7.307   1.658   1.132
 6957SOL     OW32901   6.838   1.731   1.128
 6957SOL    HW132902   6.922   1.736   1.074
 6957SOL    HW232903   6.815   1.635   1.146
 6958SOL     OW32904   5.669   1.258   1.022
 6958SOL    HW132905   5.664   1.257   1.122
 6958SOL    HW232906   5.586   1.217   0.984
 6959SOL     OW32907   6.274   1.662   1.716
 6959SOL    HW132908   6.218   1.743   1.725
 6959SOL    HW232909   6.326   1.666   1.630
 6960SOL     OW32910   6.489   0.086   0.133
 6960SOL    HW132911   6.540   0.087   0.047
 6960SOL    HW232912   6.545   0.044   0.204
 6961SOL     OW32913   7.312   0.135   0.523
 6961SOL    HW132914   7.385   0.118   0.456
 6961SOL    HW232915   7.281   0.048   0.561
 6962SOL     OW32916   6.974   1.573   0.477
 6962SOL    HW132917   7.041   1.585   0.403
 6962SOL    HW232918   6.934   1.662   0.500
 6963SOL     OW32919   5.716   1.794   1.851
 6963SOL    HW132920   5.675   1.720   1.904
 6963SOL    HW232921   5.780   1.845   1.909
 6964SOL     OW32922   6.866   0.927   0.672
 6964SOL    HW132923   6.926   0.846   0.674
 6964SOL    HW232924   6.906   0.996   0.612
 6965SOL     OW32925   6.416   1.273   1.422
 6965SOL    HW132926   6.411   1.306   1.517
 6965SOL    HW232927   6.330   1.292   1.376
 6966SOL     OW32928   6.258   1.616   0.154
 6966SOL    HW132929   6.267   1.626   0.055
 6966SOL    HW232930   6.218   1.527   0.175
 6967SOL     OW32931   7.236   1.720   1.394
 6967SOL    HW132932   7.289   1.730   1.310
 6967SOL    HW232933   7.209   1.810   1.428
 6968SOL     OW32934   7.427   0.175   0.963
 6968SOL    HW132935   7.466   0.090   0.927
 6968SOL    HW232936   7.329   0.177   0.944
 6969SOL     OW32937   5.849   0.326   0.720
 6969SOL    HW132938   5.770   0.377   0.686
 6969SOL    HW232939   5.840   0.311   0.818
 6970SOL     OW32940   6.780   1.612   0.031
 6970SOL    HW132941   6.786   1.519   0.068
 6970SOL    HW232942   6.721   1.612  -0.049
 6971SOL     OW32943   6.408   1.002   1.372
 6971SOL    HW132944   6.448   1.001   1.280
 6971SOL    HW232945   6.418   1.094   1.412
 6972SOL     OW32946   6.502   0.910   0.291
 6972SOL    HW132947   6.565   0.948   0.223
 6972SOL    HW232948   6.542   0.827   0.330
 6973SOL     OW32949   7.090   1.607   0.044
 6973SOL    HW132950   6.998   1.644   0.051
 6973SOL    HW232951   7.128   1.627  -0.046
 6974SOL     OW32952   5.958   1.288   1.490
 6974SOL    HW132953   5.945   1.381   1.456
 6974SOL    HW232954   5.874   1.236   1.477
 6975SOL     OW32955   6.625   1.098   0.696
 6975SOL    HW132956   6.555   1.051   0.750
 6975SOL    HW232957   6.684   1.030   0.653
 6976SOL     OW32958   6.600   0.236   0.971
 6976SOL    HW132959   6.592   0.200   0.878
 6976SOL    HW232960   6.598   0.160   1.036
 6977SOL     OW32961   6.176   1.487   0.491
 6977SOL    HW132962   6.218   1.429   0.421
 6977SOL    HW232963   6.132   1.566   0.447
 6978SOL     OW32964   7.295   0.385   1.381
 6978SOL    HW132965   7.368   0.454   1.385
 6978SOL    HW232966   7.323   0.310   1.322
 6979SOL     OW32967   5.841   1.348   0.290
 6979SOL    HW132968   5.745   1.349   0.263
 6979SOL    HW232969   5.853   1.401   0.374
 6980SOL     OW32970   5.691   1.013   1.726
 6980SOL    HW132971   5.614   0.980   1.780
 6980SOL    HW232972   5.776   0.983   1.768
 6981SOL     OW32973   5.658   0.166   0.318
 6981SOL    HW132974   5.641   0.249   0.264
 6981SOL    HW232975   5.748   0.129   0.296
 6982SOL     OW32976   6.769   1.335   0.119
 6982SOL    HW132977   6.670   1.324   0.121
 6982SOL    HW232978   6.803   1.350   0.212
 6983SOL     OW32979   6.199   0.842   1.431
 6983SOL    HW132980   6.255   0.923   1.414
 6983SOL    HW232981   6.258   0.762   1.434
 6984SOL     OW32982   7.079   1.767   0.959
 6984SOL    HW132983   7.112   1.831   0.890
 6984SOL    HW232984   7.145   1.761   1.034
 6985SOL     OW32985   7.036   1.220   1.633
 6985SOL    HW132986   7.027   1.210   1.732
 6985SOL    HW232987   7.132   1.213   1.607
 6986SOL     OW32988   5.976   1.741   1.560
 6986SOL    HW132989   5.885   1.782   1.558
 6986SOL    HW232990   5.969   1.647   1.592
 6987SOL     OW32991   6.811   0.325   0.449
 6987SOL    HW132992   6.876   0.251   0.438
 6987SOL    HW232993   6.831   0.375   0.533
 6988SOL     OW32994   6.180   0.745   0.652
 6988SOL    HW132995   6.230   0.830   0.633
 6988SOL    HW232996   6.092   0.747   0.604
 6989SOL     OW32997   7.316   0.934   1.517
 6989SOL    HW132998   7.354   1.025   1.532
 6989SOL    HW232999   7.308   0.917   1.418
 6990SOL     OW33000   6.445   1.374   0.016
 6990SOL    HW133001   6.399   1.389   0.104
 6990SOL    HW233002   6.489   1.459  -0.014
 6991SOL     OW33003   6.247   1.790   0.953
 6991SOL    HW133004   6.201   1.878   0.940
 6991SOL    HW233005   6.346   1.802   0.946
 6992SOL     OW33006   6.445   0.956   0.861
 6992SOL    HW133007   6.499   0.887   0.909
 6992SOL    HW233008   6.413   1.025   0.927
 6993SOL     OW33009   6.669   0.984   0.087
 6993SOL    HW133010   6.646   1.037   0.005
 6993SOL    HW233011   6.750   0.928   0.068
 6994SOL     OW33012   7.447   1.569   0.851
 6994SOL    HW133013   7.376   1.557   0.781
 6994SOL    HW233014   7.448   1.490   0.911
 6995SOL     OW33015   5.807   1.314   1.844
 6995SOL    HW133016   5.742   1.241   1.823
 6995SOL    HW233017   5.811   1.328   1.942
 6996SOL     OW33018   5.665   1.240   0.653
 6996SOL    HW133019   5.664   1.193   0.741
 6996SOL    HW233020   5.747   1.212   0.602
 6997SOL     OW33021   6.258   1.391   1.624
 6997SOL    HW133022   6.180   1.341   1.662
 6997SOL    HW233023   6.255   1.486   1.655
 6998SOL     OW33024   7.410   0.192   1.227
 6998SOL    HW133025   7.406   0.102   1.271
 6998SOL    HW233026   7.413   0.181   1.128
 6999SOL     OW33027   6.014   0.424   0.520
 6999SOL    HW133028   6.044   0.352   0.458
 6999SOL    HW233029   5.975   0.384   0.603
 7000SOL     OW33030   5.903   0.547   1.280
 7000SOL    HW133031   5.941   0.488   1.352
 7000SOL    HW233032   5.943   0.521   1.192
 7001SOL     OW33033   6.398   1.586   0.687
 7001SOL    HW133034   6.430   1.596   0.593
 7001SOL    HW233035   6.319   1.524   0.689
 7002SOL     OW33036   7.010   0.214   1.112
 7002SOL    HW133037   7.062   0.149   1.167
 7002SOL    HW233038   6.961   0.277   1.173
 7003SOL     OW33039   6.587   0.034   1.154
 7003SOL    HW133040   6.524  -0.038   1.123
 7003SOL    HW233041   6.680  -0.002   1.154
 7004SOL     OW33042   6.356   1.330   0.301
 7004SOL    HW133043   6.310   1.243   0.318
 7004SOL    HW233044   6.447   1.327   0.342
 7005SOL     OW33045   6.204   1.567   1.284
 7005SOL    HW133046   6.199   1.649   1.341
 7005SOL    HW233047   6.293   1.564   1.239
 7006SOL     OW33048   6.938   0.052   0.168
 7006SOL    HW133049   6.973   0.011   0.084
 7006SOL    HW233050   6.848   0.014   0.188
 7007SOL     OW33051   6.886   0.453   0.691
 7007SOL    HW133052   6.827   0.533   0.695
 7007SOL    HW233053   6.901   0.418   0.784
 7008SOL     OW33054   7.179   0.221   0.882
 7008SOL    HW133055   7.095   0.220   0.936
 7008SOL    HW233056   7.181   0.304   0.826
 7009SOL     OW33057   5.625   1.077   0.300
 7009SOL    HW133058   5.724   1.066   0.291
 7009SOL    HW233059   5.585   0.991   0.332
 7010SOL     OW33060   6.461   1.646   0.337
 7010SOL    HW133061   6.384   1.611   0.283
 7010SOL    HW233062   6.429   1.717   0.399
 7011SOL     OW33063   5.816   0.628   1.975
 7011SOL    HW133064   5.723   0.626   2.012
 7011SOL    HW233065   5.817   0.589   1.883
 7012SOL     OW33066   5.811   0.275   2.858
 7012SOL    HW133067   5.846   0.258   2.950
 7012SOL    HW233068   5.723   0.230   2.846
 7013SOL     OW33069   5.817   1.713   2.345
 7013SOL    HW133070   5.851   1.790   2.399
 7013SOL    HW233071   5.861   1.713   2.255
 7014SOL     OW33072   5.816   1.434   2.400
 7014SOL    HW133073   5.790   1.530   2.400
 7014SOL    HW233074   5.745   1.380   2.445
 7015SOL     OW33075   6.192   0.964   1.985
 7015SOL    HW133076   6.199   1.048   1.931
 7015SOL    HW233077   6.238   0.977   2.073
 7016SOL     OW33078   5.708   0.643   2.425
 7016SOL    HW133079   5.663   0.555   2.442
 7016SOL    HW233080   5.707   0.697   2.509
 7017SOL     OW33081   6.199   1.365   2.588
 7017SOL    HW133082   6.150   1.278   2.597
 7017SOL    HW233083   6.176   1.408   2.501
 7018SOL     OW33084   6.184   0.729   2.132
 7018SOL    HW133085   6.208   0.798   2.064
 7018SOL    HW233086   6.106   0.762   2.186
 7019SOL     OW33087   6.980   0.469   3.536
 7019SOL    HW133088   6.960   0.512   3.624
 7019SOL    HW233089   7.058   0.407   3.545
 7020SOL     OW33090   6.559   0.890   3.434
 7020SOL    HW133091   6.605   0.806   3.405
 7020SOL    HW233092   6.503   0.924   3.359
 7021SOL     OW33093   7.305   0.585   3.693
 7021SOL    HW133094   7.279   0.674   3.657
 7021SOL    HW233095   7.303   0.517   3.620
 7022SOL     OW33096   6.594   1.456   2.339
 7022SOL    HW133097   6.548   1.528   2.287
 7022SOL    HW233098   6.590   1.476   2.437
 7023SOL     OW33099   5.937   1.801   2.715
 7023SOL    HW133100   5.987   1.715   2.721
 7023SOL    HW233101   6.002   1.878   2.712
 7024SOL     OW33102   6.813   1.550   3.368
 7024SOL    HW133103   6.819   1.473   3.432
 7024SOL    HW233104   6.761   1.524   3.288
 7025SOL     OW33105   6.047   1.266   3.589
 7025SOL    HW133106   5.997   1.267   3.503
 7025SOL    HW233107   5.984   1.248   3.665
 7026SOL     OW33108   6.697   1.776   2.099
 7026SOL    HW133109   6.637   1.714   2.149
 7026SOL    HW233110   6.728   1.732   2.014
 7027SOL     OW33111   5.788   0.285   3.360
 7027SOL    HW133112   5.708   0.345   3.347
 7027SOL    HW233113   5.778   0.236   3.446
 7028SOL     OW33114   6.050   1.743   2.185
 7028SOL    HW133115   6.083   1.782   2.271
 7028SOL    HW233116   6.126   1.736   2.120
 7029SOL     OW33117   6.526   1.698   2.766
 7029SOL    HW133118   6.606   1.641   2.787
 7029SOL    HW233119   6.477   1.658   2.689
 7030SOL     OW33120   5.968   0.700   2.342
 7030SOL    HW133121   6.013   0.610   2.339
 7030SOL    HW233122   5.874   0.689   2.375
 7031SOL     OW33123   7.133   0.222   3.591
 7031SOL    HW133124   7.128   0.259   3.683
 7031SOL    HW233125   7.061   0.153   3.579
 7032SOL     OW33126   6.367   0.264   3.611
 7032SOL    HW133127   6.434   0.203   3.654
 7032SOL    HW233128   6.294   0.283   3.676
 7033SOL     OW33129   7.020   1.188   1.903
 7033SOL    HW133130   7.052   1.112   1.960
 7033SOL    HW233131   6.928   1.215   1.933
 7034SOL     OW33132   5.883   0.035   2.033
 7034SOL    HW133133   5.932   0.119   2.012
 7034SOL    HW233134   5.945  -0.030   2.078
 7035SOL     OW33135   6.813   1.570   2.655
 7035SOL    HW133136   6.834   1.644   2.590
 7035SOL    HW233137   6.881   1.570   2.728
 7036SOL     OW33138   6.045   1.152   2.603
 7036SOL    HW133139   5.974   1.125   2.668
 7036SOL    HW233140   6.019   1.124   2.510
 7037SOL     OW33141   6.857   1.797   2.453
 7037SOL    HW133142   6.901   1.861   2.389
 7037SOL    HW233143   6.807   1.849   2.523
 7038SOL     OW33144   6.113   0.256   2.190
 7038SOL    HW133145   6.140   0.197   2.115
 7038SOL    HW233146   6.113   0.351   2.159
 7039SOL     OW33147   7.340   1.223   3.450
 7039SOL    HW133148   7.431   1.184   3.437
 7039SOL    HW233149   7.348   1.319   3.474
 7040SOL     OW33150   7.178   1.629   3.487
 7040SOL    HW133151   7.205   1.663   3.397
 7040SOL    HW233152   7.257   1.591   3.533
 7041SOL     OW33153   7.224   1.099   2.941
 7041SOL    HW133154   7.229   1.180   3.000
 7041SOL    HW233155   7.138   1.101   2.890
 7042SOL     OW33156   6.566   1.116   3.581
 7042SOL    HW133157   6.467   1.122   3.591
 7042SOL    HW233158   6.589   1.036   3.525
 7043SOL     OW33159   6.860   0.386   3.124
 7043SOL    HW133160   6.881   0.460   3.188
 7043SOL    HW233161   6.771   0.403   3.081
 7044SOL     OW33162   6.566   1.573   3.562
 7044SOL    HW133163   6.546   1.617   3.474
 7044SOL    HW233164   6.605   1.482   3.546
 7045SOL     OW33165   7.445   1.518   3.467
 7045SOL    HW133166   7.459   1.545   3.372
 7045SOL    HW233167   7.528   1.540   3.520
 7046SOL     OW33168   5.936   0.898   3.666
 7046SOL    HW133169   6.012   0.942   3.714
 7046SOL    HW233170   5.971   0.851   3.584
 7047SOL     OW33171   7.126   0.274   1.987
 7047SOL    HW133172   7.065   0.199   2.010
 7047SOL    HW233173   7.148   0.326   2.070
 7048SOL     OW33174   6.654   1.333   2.711
 7048SOL    HW133175   6.661   1.249   2.656
 7048SOL    HW233176   6.716   1.402   2.675
 7049SOL     OW33177   5.594   1.326   2.062
 7049SOL    HW133178   5.501   1.347   2.031
 7049SOL    HW233179   5.604   1.227   2.075
 7050SOL     OW33180   6.059   0.500   2.053
 7050SOL    HW133181   6.120   0.580   2.057
 7050SOL    HW233182   5.964   0.531   2.060
 7051SOL     OW33183   5.669   1.258   2.884
 7051SOL    HW133184   5.664   1.257   2.984
 7051SOL    HW233185   5.586   1.217   2.846
 7052SOL     OW33186   6.274   1.662   3.578
 7052SOL    HW133187   6.218   1.743   3.587
 7052SOL    HW233188   6.326   1.666   3.492
 7053SOL     OW33189   5.849   0.326   2.582
 7053SOL    HW133190   5.770   0.377   2.548
 7053SOL    HW233191   5.840   0.311   2.680
 7054SOL     OW33192   6.780   1.612   1.893
 7054SOL    HW133193   6.786   1.519   1.930
 7054SOL    HW233194   6.721   1.612   1.813
 7055SOL     OW33195   6.408   1.002   3.234
 7055SOL    HW133196   6.448   1.001   3.142
 7055SOL    HW233197   6.418   1.094   3.274
 7056SOL     OW33198   7.090   1.607   1.906
 7056SOL    HW133199   6.998   1.644   1.913
 7056SOL    HW233200   7.128   1.627   1.816
 7057SOL     OW33201   6.176   1.487   2.353
 7057SOL    HW133202   6.218   1.429   2.283
 7057SOL    HW233203   6.132   1.566   2.309
 7058SOL     OW33204   7.295   0.385   3.243
 7058SOL    HW133205   7.368   0.454   3.247
 7058SOL    HW233206   7.323   0.310   3.184
 7059SOL     OW33207   6.769   1.335   1.981
 7059SOL    HW133208   6.670   1.324   1.983
 7059SOL    HW233209   6.803   1.350   2.074
 7060SOL     OW33210   6.302   0.565   3.570
 7060SOL    HW133211   6.321   0.630   3.644
 7060SOL    HW233212   6.362   0.485   3.579
 7061SOL     OW33213   5.976   1.741   3.422
 7061SOL    HW133214   5.885   1.782   3.420
 7061SOL    HW233215   5.969   1.647   3.454
 7062SOL     OW33216   7.260   0.883   3.116
 7062SOL    HW133217   7.233   0.794   3.079
 7062SOL    HW233218   7.261   0.951   3.043
 7063SOL     OW33219   7.363   0.342   3.504
 7063SOL    HW133220   7.346   0.373   3.410
 7063SOL    HW233221   7.279   0.305   3.542
 7064SOL     OW33222   6.445   0.956   2.723
 7064SOL    HW133223   6.499   0.887   2.771
 7064SOL    HW233224   6.413   1.025   2.789
 7065SOL     OW33225   7.447   1.569   2.713
 7065SOL    HW133226   7.376   1.557   2.643
 7065SOL    HW233227   7.448   1.490   2.773
 7066SOL     OW33228   5.665   1.240   2.515
 7066SOL    HW133229   5.664   1.193   2.603
 7066SOL    HW233230   5.747   1.212   2.464
 7067SOL     OW33231   6.258   1.391   3.486
 7067SOL    HW133232   6.180   1.341   3.524
 7067SOL    HW233233   6.255   1.486   3.517
 7068SOL     OW33234   7.010   0.214   2.974
 7068SOL    HW133235   7.062   0.149   3.029
 7068SOL    HW233236   6.961   0.277   3.035
 7069SOL     OW33237   6.938   0.052   2.030
 7069SOL    HW133238   6.973   0.011   1.946
 7069SOL    HW233239   6.848   0.014   2.050
 7070SOL     OW33240   6.461   1.646   2.199
 7070SOL    HW133241   6.384   1.611   2.145
 7070SOL    HW233242   6.429   1.717   2.261
 7071SOL     OW33243   5.605   0.368   4.371
 7071SOL    HW133244   5.523   0.411   4.410
 7071SOL    HW233245   5.577   0.295   4.308
 7072SOL     OW33246   5.817   1.713   4.207
 7072SOL    HW133247   5.851   1.790   4.261
 7072SOL    HW233248   5.861   1.713   4.117
 7073SOL     OW33249   6.713   1.341   5.414
 7073SOL    HW133250   6.760   1.341   5.502
 7073SOL    HW233251   6.665   1.254   5.403
 7074SOL     OW33252   5.816   1.434   4.262
 7074SOL    HW133253   5.790   1.530   4.262
 7074SOL    HW233254   5.745   1.380   4.307
 7075SOL     OW33255   5.826   1.091   4.610
 7075SOL    HW133256   5.840   1.007   4.662
 7075SOL    HW233257   5.771   1.155   4.665
 7076SOL     OW33258   6.206   1.786   5.163
 7076SOL    HW133259   6.114   1.769   5.198
 7076SOL    HW233260   6.234   1.878   5.189
 7077SOL     OW33261   7.428   1.767   4.083
 7077SOL    HW133262   7.482   1.738   4.163
 7077SOL    HW233263   7.458   1.857   4.054
 7078SOL     OW33264   7.275   0.922   4.336
 7078SOL    HW133265   7.370   0.893   4.344
 7078SOL    HW233266   7.267   0.987   4.261
 7079SOL     OW33267   7.227   1.108   4.156
 7079SOL    HW133268   7.313   1.110   4.104
 7079SOL    HW233269   7.241   1.155   4.244
 7080SOL     OW33270   5.903   0.251   5.525
 7080SOL    HW133271   5.974   0.322   5.531
 7080SOL    HW233272   5.815   0.290   5.553
 7081SOL     OW33273   7.253   1.714   4.296
 7081SOL    HW133274   7.212   1.691   4.208
 7081SOL    HW233275   7.235   1.640   4.361
 7082SOL     OW33276   7.162   1.662   4.031
 7082SOL    HW133277   7.251   1.708   4.034
 7082SOL    HW233278   7.141   1.638   3.936
 7083SOL     OW33279   6.451   0.348   3.919
 7083SOL    HW133280   6.510   0.411   3.870
 7083SOL    HW233281   6.470   0.254   3.890
 7084SOL     OW33282   6.136   0.196   4.609
 7084SOL    HW133283   6.131   0.191   4.709
 7084SOL    HW233284   6.138   0.292   4.580
 7085SOL     OW33285   5.907   0.943   3.966
 7085SOL    HW133286   5.989   0.982   3.924
 7085SOL    HW233287   5.880   0.861   3.917
 7086SOL     OW33288   6.697   1.776   3.961
 7086SOL    HW133289   6.637   1.714   4.011
 7086SOL    HW233290   6.728   1.732   3.876
 7087SOL     OW33291   6.050   1.743   4.047
 7087SOL    HW133292   6.083   1.782   4.133
 7087SOL    HW233293   6.126   1.736   3.982
 7088SOL     OW33294   6.526   1.698   4.628
 7088SOL    HW133295   6.606   1.641   4.649
 7088SOL    HW233296   6.477   1.658   4.551
 7089SOL     OW33297   6.045   1.152   4.465
 7089SOL    HW133298   5.974   1.125   4.530
 7089SOL    HW233299   6.019   1.124   4.372
 7090SOL     OW33300   6.618   0.549   3.740
 7090SOL    HW133301   6.577   0.631   3.701
 7090SOL    HW233302   6.682   0.575   3.813
 7091SOL     OW33303   5.664   0.556   5.110
 7091SOL    HW133304   5.756   0.555   5.069
 7091SOL    HW233305   5.658   0.630   5.177
 7092SOL     OW33306   7.443   0.833   4.101
 7092SOL    HW133307   7.485   0.769   4.165
 7092SOL    HW233308   7.405   0.782   4.023
 7093SOL     OW33309   6.074   1.385   3.898
 7093SOL    HW133310   5.987   1.370   3.945
 7093SOL    HW233311   6.057   1.411   3.803
 7094SOL     OW33312   6.113   0.256   4.052
 7094SOL    HW133313   6.140   0.197   3.977
 7094SOL    HW233314   6.113   0.351   4.021
 7095SOL     OW33315   6.860   0.386   4.986
 7095SOL    HW133316   6.881   0.460   5.050
 7095SOL    HW233317   6.771   0.403   4.943
 7096SOL     OW33318   6.152   0.537   4.589
 7096SOL    HW133319   6.164   0.603   4.515
 7096SOL    HW233320   6.198   0.571   4.672
 7097SOL     OW33321   6.838   1.348   4.112
 7097SOL    HW133322   6.888   1.425   4.152
 7097SOL    HW233323   6.743   1.350   4.144
 7098SOL     OW33324   5.940   1.510   5.053
 7098SOL    HW133325   5.919   1.466   4.966
 7098SOL    HW233326   6.037   1.536   5.056
 7099SOL     OW33327   5.988   0.751   5.322
 7099SOL    HW133328   6.056   0.806   5.275
 7099SOL    HW233329   6.028   0.663   5.349
 7100SOL     OW33330   6.090   0.050   5.464
 7100SOL    HW133331   6.048  -0.007   5.394
 7100SOL    HW233332   6.024   0.119   5.496
 7101SOL     OW33333   5.893   0.213   4.955
 7101SOL    HW133334   5.870   0.250   5.045
 7101SOL    HW233335   5.863   0.118   4.949
 7102SOL     OW33336   6.318   0.634   4.788
 7102SOL    HW133337   6.377   0.608   4.712
 7102SOL    HW233338   6.290   0.730   4.777
 7103SOL     OW33339   7.314   0.935   5.578
 7103SOL    HW133340   7.268   0.928   5.489
 7103SOL    HW233341   7.252   0.979   5.644
 7104SOL     OW33342   6.609   0.766   4.690
 7104SOL    HW133343   6.624   0.787   4.786
 7104SOL    HW233344   6.579   0.671   4.681
 7105SOL     OW33345   5.936   0.898   5.528
 7105SOL    HW133346   6.012   0.942   5.576
 7105SOL    HW233347   5.971   0.851   5.446
 7106SOL     OW33348   6.889   0.838   3.766
 7106SOL    HW133349   6.923   0.745   3.781
 7106SOL    HW233350   6.907   0.865   3.671
 7107SOL     OW33351   5.905   0.810   4.673
 7107SOL    HW133352   5.998   0.846   4.678
 7107SOL    HW233353   5.899   0.725   4.725
 7108SOL     OW33354   6.724   0.380   5.402
 7108SOL    HW133355   6.679   0.443   5.466
 7108SOL    HW233356   6.817   0.411   5.385
 7109SOL     OW33357   5.594   1.326   3.924
 7109SOL    HW133358   5.501   1.347   3.893
 7109SOL    HW233359   5.604   1.227   3.937
 7110SOL     OW33360   5.626   0.544   4.838
 7110SOL    HW133361   5.711   0.511   4.797
 7110SOL    HW233362   5.639   0.559   4.936
 7111SOL     OW33363   6.401   0.572   4.049
 7111SOL    HW133364   6.408   0.483   4.003
 7111SOL    HW233365   6.307   0.606   4.041
 7112SOL     OW33366   6.059   0.500   3.915
 7112SOL    HW133367   6.120   0.580   3.919
 7112SOL    HW233368   5.964   0.531   3.922
 7113SOL     OW33369   6.933   1.059   4.958
 7113SOL    HW133370   6.957   0.996   4.884
 7113SOL    HW233371   6.843   1.099   4.940
 7114SOL     OW33372   6.838   1.731   4.852
 7114SOL    HW133373   6.922   1.736   4.798
 7114SOL    HW233374   6.815   1.635   4.870
 7115SOL     OW33375   6.258   1.616   3.878
 7115SOL    HW133376   6.267   1.626   3.779
 7115SOL    HW233377   6.218   1.527   3.899
 7116SOL     OW33378   7.427   0.175   4.687
 7116SOL    HW133379   7.466   0.090   4.651
 7116SOL    HW233380   7.329   0.177   4.668
 7117SOL     OW33381   7.090   1.607   3.768
 7117SOL    HW133382   6.998   1.644   3.775
 7117SOL    HW233383   7.128   1.627   3.678
 7118SOL     OW33384   6.625   1.098   4.420
 7118SOL    HW133385   6.555   1.051   4.474
 7118SOL    HW233386   6.684   1.030   4.377
 7119SOL     OW33387   6.600   0.236   4.695
 7119SOL    HW133388   6.592   0.200   4.602
 7119SOL    HW233389   6.598   0.160   4.760
 7120SOL     OW33390   5.658   0.166   4.042
 7120SOL    HW133391   5.641   0.249   3.988
 7120SOL    HW233392   5.748   0.129   4.020
 7121SOL     OW33393   7.079   1.767   4.683
 7121SOL    HW133394   7.112   1.831   4.614
 7121SOL    HW233395   7.145   1.761   4.758
 7122SOL     OW33396   6.180   0.745   4.376
 7122SOL    HW133397   6.230   0.830   4.357
 7122SOL    HW233398   6.092   0.747   4.328
 7123SOL     OW33399   6.445   1.374   3.740
 7123SOL    HW133400   6.399   1.389   3.828
 7123SOL    HW233401   6.489   1.459   3.710
 7124SOL     OW33402   6.445   0.956   4.585
 7124SOL    HW133403   6.499   0.887   4.633
 7124SOL    HW233404   6.413   1.025   4.651
 7125SOL     OW33405   5.665   1.240   4.377
 7125SOL    HW133406   5.664   1.193   4.465
 7125SOL    HW233407   5.747   1.212   4.326
 7126SOL     OW33408   7.291   1.487   4.828
 7126SOL    HW133409   7.198   1.462   4.801
 7126SOL    HW233410   7.317   1.437   4.910
 7127SOL     OW33411   5.903   0.547   5.004
 7127SOL    HW133412   5.941   0.488   5.076
 7127SOL    HW233413   5.943   0.521   4.916
 7128SOL     OW33414   7.010   0.214   4.836
 7128SOL    HW133415   7.062   0.149   4.891
 7128SOL    HW233416   6.961   0.277   4.897
 7129SOL     OW33417   5.625   1.077   4.024
 7129SOL    HW133418   5.724   1.066   4.015
 7129SOL    HW233419   5.585   0.991   4.056
 7130SOL     OW33420   6.461   1.646   4.061
 7130SOL    HW133421   6.384   1.611   4.007
 7130SOL    HW233422   6.429   1.717   4.123
 7131SOL     OW33423   5.816   0.628   5.699
 7131SOL    HW133424   5.723   0.626   5.736
 7131SOL    HW233425   5.817   0.589   5.607
 7132SOL     OW33426   5.811   0.275   6.582
 7132SOL    HW133427   5.846   0.258   6.674
 7132SOL    HW233428   5.723   0.230   6.570
 7133SOL     OW33429   5.605   0.368   6.233
 7133SOL    HW133430   5.523   0.411   6.272
 7133SOL    HW233431   5.577   0.295   6.170
 7134SOL     OW33432   6.155   1.275   6.751
 7134SOL    HW133433   6.062   1.268   6.714
 7134SOL    HW233434   6.166   1.364   6.795
 7135SOL     OW33435   7.141   1.511   6.289
 7135SOL    HW133436   7.084   1.495   6.370
 7135SOL    HW233437   7.082   1.521   6.209
 7136SOL     OW33438   6.721   0.703   6.303
 7136SOL    HW133439   6.778   0.781   6.278
 7136SOL    HW233440   6.661   0.729   6.379
 7137SOL     OW33441   7.341   0.607   5.817
 7137SOL    HW133442   7.329   0.594   5.718
 7137SOL    HW233443   7.311   0.526   5.866
 7138SOL     OW33444   6.354   1.144   6.609
 7138SOL    HW133445   6.276   1.161   6.669
 7138SOL    HW233446   6.388   1.231   6.573
 7139SOL     OW33447   6.271   1.012   6.251
 7139SOL    HW133448   6.340   0.996   6.321
 7139SOL    HW233449   6.198   1.069   6.289
 7140SOL     OW33450   5.921   1.435   6.647
 7140SOL    HW133451   5.843   1.404   6.594
 7140SOL    HW233452   5.979   1.493   6.590
 7141SOL     OW33453   7.046   1.505   6.925
 7141SOL    HW133454   7.070   1.599   6.951
 7141SOL    HW233455   7.030   1.451   7.007
 7142SOL     OW33456   6.024   0.392   7.085
 7142SOL    HW133457   6.106   0.336   7.094
 7142SOL    HW233458   5.943   0.334   7.089
 7143SOL     OW33459   7.189   0.447   6.323
 7143SOL    HW133460   7.115   0.493   6.273
 7143SOL    HW233461   7.240   0.515   6.376
 7144SOL     OW33462   5.816   1.434   6.124
 7144SOL    HW133463   5.790   1.530   6.124
 7144SOL    HW233464   5.745   1.380   6.169
 7145SOL     OW33465   5.826   1.091   6.472
 7145SOL    HW133466   5.840   1.007   6.524
 7145SOL    HW233467   5.771   1.155   6.527
 7146SOL     OW33468   6.206   1.786   7.025
 7146SOL    HW133469   6.114   1.769   7.060
 7146SOL    HW233470   6.234   1.878   7.051
 7147SOL     OW33471   6.192   0.964   5.709
 7147SOL    HW133472   6.199   1.048   5.655
 7147SOL    HW233473   6.238   0.977   5.797
 7148SOL     OW33474   7.180   0.114   7.066
 7148SOL    HW133475   7.162   0.181   6.994
 7148SOL    HW233476   7.177   0.160   7.155
 7149SOL     OW33477   5.708   0.643   6.149
 7149SOL    HW133478   5.663   0.555   6.166
 7149SOL    HW233479   5.707   0.697   6.233
 7150SOL     OW33480   7.275   0.922   6.198
 7150SOL    HW133481   7.370   0.893   6.206
 7150SOL    HW233482   7.267   0.987   6.123
 7151SOL     OW33483   7.227   1.108   6.018
 7151SOL    HW133484   7.313   1.110   5.966
 7151SOL    HW233485   7.241   1.155   6.106
 7152SOL     OW33486   6.199   1.365   6.312
 7152SOL    HW133487   6.150   1.278   6.321
 7152SOL    HW233488   6.176   1.408   6.225
 7153SOL     OW33489   6.395   0.004   6.088
 7153SOL    HW133490   6.435   0.095   6.079
 7153SOL    HW233491   6.295   0.012   6.094
 7154SOL     OW33492   5.783   0.976   6.850
 7154SOL    HW133493   5.872   0.931   6.836
 7154SOL    HW233494   5.710   0.911   6.831
 7155SOL     OW33495   7.111   0.999   5.776
 7155SOL    HW133496   7.048   0.923   5.789
 7155SOL    HW233497   7.159   1.017   5.862
 7156SOL     OW33498   7.052   1.417   6.539
 7156SOL    HW133499   6.993   1.423   6.619
 7156SOL    HW233500   7.037   1.329   6.493
 7157SOL     OW33501   7.253   1.714   6.158
 7157SOL    HW133502   7.212   1.691   6.070
 7157SOL    HW233503   7.235   1.640   6.223
 7158SOL     OW33504   6.184   0.729   5.856
 7158SOL    HW133505   6.208   0.798   5.788
 7158SOL    HW233506   6.106   0.762   5.910
 7159SOL     OW33507   6.867   0.345   6.530
 7159SOL    HW133508   6.781   0.295   6.517
 7159SOL    HW233509   6.929   0.291   6.586
 7160SOL     OW33510   6.393   0.605   7.051
 7160SOL    HW133511   6.346   0.602   7.140
 7160SOL    HW233512   6.342   0.550   6.985
 7161SOL     OW33513   6.577   0.410   6.828
 7161SOL    HW133514   6.500   0.444   6.882
 7161SOL    HW233515   6.543   0.359   6.749
 7162SOL     OW33516   5.662   0.811   6.375
 7162SOL    HW133517   5.761   0.799   6.384
 7162SOL    HW233518   5.638   0.906   6.396
 7163SOL     OW33519   5.716   1.821   7.157
 7163SOL    HW133520   5.706   1.806   7.256
 7163SOL    HW233521   5.630   1.857   7.121
 7164SOL     OW33522   6.948   1.144   6.131
 7164SOL    HW133523   7.031   1.115   6.083
 7164SOL    HW233524   6.899   1.211   6.075
 7165SOL     OW33525   6.136   0.196   6.471
 7165SOL    HW133526   6.131   0.191   6.571
 7165SOL    HW233527   6.138   0.292   6.442
 7166SOL     OW33528   6.594   1.456   6.063
 7166SOL    HW133529   6.548   1.528   6.011
 7166SOL    HW233530   6.590   1.476   6.161
 7167SOL     OW33531   5.937   1.801   6.439
 7167SOL    HW133532   5.987   1.715   6.445
 7167SOL    HW233533   6.002   1.878   6.436
 7168SOL     OW33534   7.381   1.066   6.459
 7168SOL    HW133535   7.319   1.051   6.383
 7168SOL    HW233536   7.329   1.077   6.544
 7169SOL     OW33537   5.907   0.943   5.828
 7169SOL    HW133538   5.989   0.982   5.786
 7169SOL    HW233539   5.880   0.861   5.779
 7170SOL     OW33540   7.044   0.735   6.314
 7170SOL    HW133541   7.039   0.670   6.389
 7170SOL    HW233542   7.124   0.794   6.327
 7171SOL     OW33543   6.697   1.776   5.823
 7171SOL    HW133544   6.637   1.714   5.873
 7171SOL    HW233545   6.728   1.732   5.738
 7172SOL     OW33546   5.788   0.285   7.084
 7172SOL    HW133547   5.708   0.345   7.071
 7172SOL    HW233548   5.778   0.236   7.170
 7173SOL     OW33549   7.218   1.377   5.667
 7173SOL    HW133550   7.186   1.471   5.657
 7173SOL    HW233551   7.142   1.314   5.655
 7174SOL     OW33552   6.050   1.743   5.909
 7174SOL    HW133553   6.083   1.782   5.995
 7174SOL    HW233554   6.126   1.736   5.844
 7175SOL     OW33555   6.986   0.107   6.012
 7175SOL    HW133556   6.962   0.070   5.922
 7175SOL    HW233557   7.085   0.123   6.016
 7176SOL     OW33558   5.835   1.785   6.827
 7176SOL    HW133559   5.892   1.720   6.877
 7176SOL    HW233560   5.819   1.752   6.734
 7177SOL     OW33561   6.526   1.698   6.490
 7177SOL    HW133562   6.606   1.641   6.511
 7177SOL    HW233563   6.477   1.658   6.413
 7178SOL     OW33564   5.968   0.700   6.066
 7178SOL    HW133565   6.013   0.610   6.063
 7178SOL    HW233566   5.874   0.689   6.099
 7179SOL     OW33567   6.474   1.514   6.781
 7179SOL    HW133568   6.451   1.489   6.687
 7179SOL    HW233569   6.535   1.445   6.820
 7180SOL     OW33570   6.389   1.402   6.510
 7180SOL    HW133571   6.479   1.416   6.468
 7180SOL    HW233572   6.318   1.404   6.439
 7181SOL     OW33573   6.508   0.503   6.485
 7181SOL    HW133574   6.483   0.494   6.389
 7181SOL    HW233575   6.556   0.421   6.516
 7182SOL     OW33576   6.125   0.064   6.098
 7182SOL    HW133577   6.044   0.065   6.156
 7182SOL    HW233578   6.128   0.147   6.043
 7183SOL     OW33579   5.883   0.035   5.757
 7183SOL    HW133580   5.932   0.119   5.736
 7183SOL    HW233581   5.945  -0.030   5.802
 7184SOL     OW33582   6.813   1.570   6.379
 7184SOL    HW133583   6.834   1.644   6.314
 7184SOL    HW233584   6.881   1.570   6.452
 7185SOL     OW33585   6.045   1.152   6.327
 7185SOL    HW133586   5.974   1.125   6.392
 7185SOL    HW233587   6.019   1.124   6.234
 7186SOL     OW33588   6.618   0.549   5.602
 7186SOL    HW133589   6.577   0.631   5.563
 7186SOL    HW233590   6.682   0.575   5.675
 7187SOL     OW33591   5.664   0.556   6.972
 7187SOL    HW133592   5.756   0.555   6.931
 7187SOL    HW233593   5.658   0.630   7.039
 7188SOL     OW33594   6.147   0.222   6.733
 7188SOL    HW133595   6.185   0.138   6.770
 7188SOL    HW233596   6.059   0.241   6.777
 7189SOL     OW33597   6.603   0.039   6.339
 7189SOL    HW133598   6.531   0.044   6.270
 7189SOL    HW233599   6.579  -0.030   6.408
 7190SOL     OW33600   7.015   1.173   6.453
 7190SOL    HW133601   6.960   1.089   6.446
 7190SOL    HW233602   7.041   1.202   6.361
 7191SOL     OW33603   7.052   0.590   6.578
 7191SOL    HW133604   7.022   0.495   6.585
 7191SOL    HW233605   7.125   0.606   6.644
 7192SOL     OW33606   7.443   0.833   5.963
 7192SOL    HW133607   7.485   0.769   6.027
 7192SOL    HW233608   7.405   0.782   5.885
 7193SOL     OW33609   6.074   1.385   5.760
 7193SOL    HW133610   5.987   1.370   5.807
 7193SOL    HW233611   6.057   1.411   5.665
 7194SOL     OW33612   7.250   1.280   6.243
 7194SOL    HW133613   7.349   1.288   6.257
 7194SOL    HW233614   7.205   1.364   6.274
 7195SOL     OW33615   6.976   0.575   5.664
 7195SOL    HW133616   6.922   0.554   5.745
 7195SOL    HW233617   7.067   0.534   5.673
 7196SOL     OW33618   6.113   0.256   5.914
 7196SOL    HW133619   6.140   0.197   5.839
 7196SOL    HW233620   6.113   0.351   5.883
 7197SOL     OW33621   6.650   1.347   6.926
 7197SOL    HW133622   6.570   1.324   6.981
 7197SOL    HW233623   6.733   1.321   6.975
 7198SOL     OW33624   6.697   1.195   6.686
 7198SOL    HW133625   6.657   1.239   6.767
 7198SOL    HW233626   6.656   1.232   6.603
 7199SOL     OW33627   7.224   1.099   6.665
 7199SOL    HW133628   7.229   1.180   6.724
 7199SOL    HW233629   7.138   1.101   6.614
 7200SOL     OW33630   6.501   0.089   6.988
 7200SOL    HW133631   6.526   0.069   6.893
 7200SOL    HW233632   6.573   0.145   7.030
 7201SOL     OW33633   6.291   1.050   5.954
 7201SOL    HW133634   6.277   1.057   6.053
 7201SOL    HW233635   6.375   0.999   5.936
 7202SOL     OW33636   5.996   0.813   6.837
 7202SOL    HW133637   6.082   0.825   6.887
 7202SOL    HW233638   5.954   0.726   6.864
 7203SOL     OW33639   6.860   0.386   6.848
 7203SOL    HW133640   6.881   0.460   6.912
 7203SOL    HW233641   6.771   0.403   6.805
 7204SOL     OW33642   5.650   1.564   6.917
 7204SOL    HW133643   5.604   1.646   6.883
 7204SOL    HW233644   5.748   1.583   6.926
 7205SOL     OW33645   5.953   1.100   6.087
 7205SOL    HW133646   5.946   1.183   6.031
 7205SOL    HW233647   5.957   1.020   6.027
 7206SOL     OW33648   6.152   0.537   6.451
 7206SOL    HW133649   6.164   0.603   6.377
 7206SOL    HW233650   6.198   0.571   6.534
 7207SOL     OW33651   6.858   1.445   6.728
 7207SOL    HW133652   6.905   1.458   6.815
 7207SOL    HW233653   6.792   1.371   6.737
 7208SOL     OW33654   7.168   0.639   6.058
 7208SOL    HW133655   7.137   0.700   6.131
 7208SOL    HW233656   7.218   0.691   5.989
 7209SOL     OW33657   5.940   1.510   6.915
 7209SOL    HW133658   5.919   1.466   6.828
 7209SOL    HW233659   6.037   1.536   6.918
 7210SOL     OW33660   5.988   0.751   7.184
 7210SOL    HW133661   6.056   0.806   7.137
 7210SOL    HW233662   6.028   0.663   7.211
 7211SOL     OW33663   7.173   0.779   7.256
 7211SOL    HW133664   7.081   0.817   7.251
 7211SOL    HW233665   7.233   0.826   7.191
 7212SOL     OW33666   6.159   0.870   6.615
 7212SOL    HW133667   6.203   0.959   6.606
 7212SOL    HW233668   6.096   0.870   6.692
 7213SOL     OW33669   6.946   0.862   6.631
 7213SOL    HW133670   6.871   0.862   6.565
 7213SOL    HW233671   6.983   0.770   6.640
 7214SOL     OW33672   5.893   0.213   6.817
 7214SOL    HW133673   5.870   0.250   6.907
 7214SOL    HW233674   5.863   0.118   6.811
 7215SOL     OW33675   5.623   1.310   6.868
 7215SOL    HW133676   5.676   1.261   6.936
 7215SOL    HW233677   5.645   1.408   6.873
 7216SOL     OW33678   6.318   0.634   6.650
 7216SOL    HW133679   6.377   0.608   6.574
 7216SOL    HW233680   6.290   0.730   6.639
 7217SOL     OW33681   5.893   0.063   6.204
 7217SOL    HW133682   5.882   0.157   6.237
 7217SOL    HW233683   5.888   0.000   6.281
 7218SOL     OW33684   7.208   0.367   5.960
 7218SOL    HW133685   7.210   0.291   6.024
 7218SOL    HW233686   7.160   0.444   6.000
 7219SOL     OW33687   6.609   0.766   6.552
 7219SOL    HW133688   6.624   0.787   6.648
 7219SOL    HW233689   6.579   0.671   6.543
 7220SOL     OW33690   6.566   1.573   7.286
 7220SOL    HW133691   6.546   1.617   7.198
 7220SOL    HW233692   6.605   1.482   7.270
 7221SOL     OW33693   7.126   0.274   5.711
 7221SOL    HW133694   7.065   0.199   5.734
 7221SOL    HW233695   7.148   0.326   5.794
 7222SOL     OW33696   6.654   1.333   6.435
 7222SOL    HW133697   6.661   1.249   6.380
 7222SOL    HW233698   6.716   1.402   6.399
 7223SOL     OW33699   5.905   0.810   6.535
 7223SOL    HW133700   5.998   0.846   6.540
 7223SOL    HW233701   5.899   0.725   6.587
 7224SOL     OW33702   5.925   0.509   6.592
 7224SOL    HW133703   5.873   0.426   6.575
 7224SOL    HW233704   6.002   0.514   6.528
 7225SOL     OW33705   6.724   0.380   7.264
 7225SOL    HW133706   6.679   0.443   7.328
 7225SOL    HW233707   6.817   0.411   7.247
 7226SOL     OW33708   6.746   0.207   7.063
 7226SOL    HW133709   6.746   0.271   7.140
 7226SOL    HW233710   6.774   0.255   6.980
 7227SOL     OW33711   5.594   1.326   5.786
 7227SOL    HW133712   5.501   1.347   5.755
 7227SOL    HW233713   5.604   1.227   5.799
 7228SOL     OW33714   5.674   1.801   6.513
 7228SOL    HW133715   5.632   1.715   6.486
 7228SOL    HW233716   5.768   1.804   6.479
 7229SOL     OW33717   6.090   1.568   6.496
 7229SOL    HW133718   6.156   1.642   6.505
 7229SOL    HW233719   6.134   1.489   6.454
 7230SOL     OW33720   6.588   0.796   6.824
 7230SOL    HW133721   6.629   0.764   6.910
 7230SOL    HW233722   6.492   0.769   6.821
 7231SOL     OW33723   5.626   0.544   6.700
 7231SOL    HW133724   5.711   0.511   6.659
 7231SOL    HW233725   5.639   0.559   6.798
 7232SOL     OW33726   7.243   0.604   6.792
 7232SOL    HW133727   7.205   0.535   6.854
 7232SOL    HW233728   7.325   0.568   6.748
 7233SOL     OW33729   6.257   0.464   6.855
 7233SOL    HW133730   6.223   0.375   6.825
 7233SOL    HW233731   6.283   0.518   6.775
 7234SOL     OW33732   6.516   1.678   7.051
 7234SOL    HW133733   6.492   1.660   6.956
 7234SOL    HW233734   6.546   1.772   7.061
 7235SOL     OW33735   6.059   0.500   5.777
 7235SOL    HW133736   6.120   0.580   5.781
 7235SOL    HW233737   5.964   0.531   5.784
 7236SOL     OW33738   5.745   1.137   7.052
 7236SOL    HW133739   5.767   1.076   7.128
 7236SOL    HW233740   5.755   1.088   6.966
 7237SOL     OW33741   6.933   1.059   6.820
 7237SOL    HW133742   6.957   0.996   6.746
 7237SOL    HW233743   6.843   1.099   6.802
 7238SOL     OW33744   6.888   0.855   5.895
 7238SOL    HW133745   6.802   0.824   5.937
 7238SOL    HW233746   6.884   0.841   5.796
 7239SOL     OW33747   7.345   1.747   6.740
 7239SOL    HW133748   7.406   1.777   6.667
 7239SOL    HW233749   7.307   1.658   6.718
 7240SOL     OW33750   6.838   1.731   6.714
 7240SOL    HW133751   6.922   1.736   6.660
 7240SOL    HW233752   6.815   1.635   6.732
 7241SOL     OW33753   5.669   1.258   6.608
 7241SOL    HW133754   5.664   1.257   6.708
 7241SOL    HW233755   5.586   1.217   6.570
 7242SOL     OW33756   7.312   0.135   6.109
 7242SOL    HW133757   7.385   0.118   6.042
 7242SOL    HW233758   7.281   0.048   6.147
 7243SOL     OW33759   6.974   1.573   6.063
 7243SOL    HW133760   7.041   1.585   5.989
 7243SOL    HW233761   6.934   1.662   6.086
 7244SOL     OW33762   6.866   0.927   6.258
 7244SOL    HW133763   6.926   0.846   6.260
 7244SOL    HW233764   6.906   0.996   6.198
 7245SOL     OW33765   7.236   1.720   6.980
 7245SOL    HW133766   7.289   1.730   6.896
 7245SOL    HW233767   7.209   1.810   7.014
 7246SOL     OW33768   7.427   0.175   6.549
 7246SOL    HW133769   7.466   0.090   6.513
 7246SOL    HW233770   7.329   0.177   6.530
 7247SOL     OW33771   5.849   0.326   6.306
 7247SOL    HW133772   5.770   0.377   6.272
 7247SOL    HW233773   5.840   0.311   6.404
 7248SOL     OW33774   6.780   1.612   5.617
 7248SOL    HW133775   6.786   1.519   5.654
 7248SOL    HW233776   6.721   1.612   5.537
 7249SOL     OW33777   6.408   1.002   6.958
 7249SOL    HW133778   6.448   1.001   6.866
 7249SOL    HW233779   6.418   1.094   6.998
 7250SOL     OW33780   7.090   1.607   5.630
 7250SOL    HW133781   6.998   1.644   5.637
 7250SOL    HW233782   7.128   1.627   5.540
 7251SOL     OW33783   5.958   1.288   7.076
 7251SOL    HW133784   5.945   1.381   7.042
 7251SOL    HW233785   5.874   1.236   7.063
 7252SOL     OW33786   7.200   1.292   6.875
 7252SOL    HW133787   7.260   1.295   6.955
 7252SOL    HW233788   7.125   1.356   6.888
 7253SOL     OW33789   6.625   1.098   6.282
 7253SOL    HW133790   6.555   1.051   6.336
 7253SOL    HW233791   6.684   1.030   6.239
 7254SOL     OW33792   6.600   0.236   6.557
 7254SOL    HW133793   6.592   0.200   6.464
 7254SOL    HW233794   6.598   0.160   6.622
 7255SOL     OW33795   7.295   0.385   6.967
 7255SOL    HW133796   7.368   0.454   6.971
 7255SOL    HW233797   7.323   0.310   6.908
 7256SOL     OW33798   5.841   1.348   5.876
 7256SOL    HW133799   5.745   1.349   5.849
 7256SOL    HW233800   5.853   1.401   5.960
 7257SOL     OW33801   5.661   0.345   5.619
 7257SOL    HW133802   5.569   0.317   5.590
 7257SOL    HW233803   5.692   0.422   5.563
 7258SOL     OW33804   7.026   0.856   6.984
 7258SOL    HW133805   6.969   0.908   6.921
 7258SOL    HW233806   7.122   0.868   6.960
 7259SOL     OW33807   5.658   0.166   5.904
 7259SOL    HW133808   5.641   0.249   5.850
 7259SOL    HW233809   5.748   0.129   5.882
 7260SOL     OW33810   6.199   0.842   7.017
 7260SOL    HW133811   6.255   0.923   7.000
 7260SOL    HW233812   6.258   0.762   7.020
 7261SOL     OW33813   7.079   1.767   6.545
 7261SOL    HW133814   7.112   1.831   6.476
 7261SOL    HW233815   7.145   1.761   6.620
 7262SOL     OW33816   5.976   1.741   7.146
 7262SOL    HW133817   5.885   1.782   7.144
 7262SOL    HW233818   5.969   1.647   7.178
 7263SOL     OW33819   7.260   0.883   6.840
 7263SOL    HW133820   7.233   0.794   6.803
 7263SOL    HW233821   7.261   0.951   6.767
 7264SOL     OW33822   6.180   0.745   6.238
 7264SOL    HW133823   6.230   0.830   6.219
 7264SOL    HW233824   6.092   0.747   6.190
 7265SOL     OW33825   7.363   0.342   7.228
 7265SOL    HW133826   7.346   0.373   7.134
 7265SOL    HW233827   7.279   0.305   7.266
 7266SOL     OW33828   7.316   0.934   7.103
 7266SOL    HW133829   7.354   1.025   7.118
 7266SOL    HW233830   7.308   0.917   7.004
 7267SOL     OW33831   6.247   1.790   6.539
 7267SOL    HW133832   6.201   1.878   6.526
 7267SOL    HW233833   6.346   1.802   6.532
 7268SOL     OW33834   6.445   0.956   6.447
 7268SOL    HW133835   6.499   0.887   6.495
 7268SOL    HW233836   6.413   1.025   6.513
 7269SOL     OW33837   7.447   1.569   6.437
 7269SOL    HW133838   7.376   1.557   6.367
 7269SOL    HW233839   7.448   1.490   6.497
 7270SOL     OW33840   5.665   1.240   6.239
 7270SOL    HW133841   5.664   1.193   6.327
 7270SOL    HW233842   5.747   1.212   6.188
 7271SOL     OW33843   7.410   0.192   6.813
 7271SOL    HW133844   7.406   0.102   6.857
 7271SOL    HW233845   7.413   0.181   6.714
 7272SOL     OW33846   6.014   0.424   6.106
 7272SOL    HW133847   6.044   0.352   6.044
 7272SOL    HW233848   5.975   0.384   6.189
 7273SOL     OW33849   7.291   1.487   6.690
 7273SOL    HW133850   7.198   1.462   6.663
 7273SOL    HW233851   7.317   1.437   6.772
 7274SOL     OW33852   5.903   0.547   6.866
 7274SOL    HW133853   5.941   0.488   6.938
 7274SOL    HW233854   5.943   0.521   6.778
 7275SOL     OW33855   7.010   0.214   6.698
 7275SOL    HW133856   7.062   0.149   6.753
 7275SOL    HW233857   6.961   0.277   6.759
 7276SOL     OW33858   6.587   0.034   6.740
 7276SOL    HW133859   6.524  -0.038   6.709
 7276SOL    HW233860   6.680  -0.002   6.740
 7277SOL     OW33861   6.204   1.567   6.870
 7277SOL    HW133862   6.199   1.649   6.927
 7277SOL    HW233863   6.293   1.564   6.825
 7278SOL     OW33864   6.938   0.052   5.754
 7278SOL    HW133865   6.973   0.011   5.670
 7278SOL    HW233866   6.848   0.014   5.774
 7279SOL     OW33867   6.886   0.453   6.277
 7279SOL    HW133868   6.827   0.533   6.281
 7279SOL    HW233869   6.901   0.418   6.370
 7280SOL     OW33870   7.179   0.221   6.468
 7280SOL    HW133871   7.095   0.220   6.522
 7280SOL    HW233872   7.181   0.304   6.412
 7281SOL     OW33873   5.625   1.077   5.886
 7281SOL    HW133874   5.724   1.066   5.877
 7281SOL    HW233875   5.585   0.991   5.918
 7282SOL     OW33876   6.461   1.646   5.923
 7282SOL    HW133877   6.384   1.611   5.869
 7282SOL    HW233878   6.429   1.717   5.985
 7283SOL     OW33879   5.816   2.490   0.113
 7283SOL    HW133880   5.723   2.488   0.150
 7283SOL    HW233881   5.817   2.451   0.021
 7284SOL     OW33882   5.811   2.137   0.996
 7284SOL    HW133883   5.846   2.120   1.088
 7284SOL    HW233884   5.723   2.092   0.984
 7285SOL     OW33885   5.605   2.230   0.647
 7285SOL    HW133886   5.523   2.273   0.686
 7285SOL    HW233887   5.577   2.157   0.584
 7286SOL     OW33888   6.155   3.137   1.165
 7286SOL    HW133889   6.062   3.130   1.128
 7286SOL    HW233890   6.166   3.226   1.209
 7287SOL     OW33891   7.141   3.373   0.703
 7287SOL    HW133892   7.084   3.357   0.784
 7287SOL    HW233893   7.082   3.383   0.623
 7288SOL     OW33894   6.721   2.565   0.717
 7288SOL    HW133895   6.778   2.643   0.692
 7288SOL    HW233896   6.661   2.591   0.793
 7289SOL     OW33897   7.341   2.469   0.231
 7289SOL    HW133898   7.329   2.456   0.132
 7289SOL    HW233899   7.311   2.388   0.280
 7290SOL     OW33900   6.354   3.006   1.023
 7290SOL    HW133901   6.276   3.023   1.083
 7290SOL    HW233902   6.388   3.093   0.987
 7291SOL     OW33903   6.271   2.874   0.665
 7291SOL    HW133904   6.340   2.858   0.735
 7291SOL    HW233905   6.198   2.931   0.703
 7292SOL     OW33906   6.272   3.023   1.803
 7292SOL    HW133907   6.332   3.102   1.817
 7292SOL    HW233908   6.186   3.054   1.762
 7293SOL     OW33909   5.921   3.297   1.061
 7293SOL    HW133910   5.843   3.266   1.008
 7293SOL    HW233911   5.979   3.355   1.004
 7294SOL     OW33912   7.046   3.367   1.339
 7294SOL    HW133913   7.070   3.461   1.365
 7294SOL    HW233914   7.030   3.313   1.421
 7295SOL     OW33915   6.024   2.254   1.499
 7295SOL    HW133916   6.106   2.198   1.508
 7295SOL    HW233917   5.943   2.196   1.503
 7296SOL     OW33918   7.189   2.309   0.737
 7296SOL    HW133919   7.115   2.355   0.687
 7296SOL    HW233920   7.240   2.377   0.790
 7297SOL     OW33921   5.817   3.575   0.483
 7297SOL    HW133922   5.851   3.652   0.537
 7297SOL    HW233923   5.861   3.575   0.393
 7298SOL     OW33924   5.816   3.296   0.538
 7298SOL    HW133925   5.790   3.392   0.538
 7298SOL    HW233926   5.745   3.242   0.583
 7299SOL     OW33927   5.826   2.953   0.886
 7299SOL    HW133928   5.840   2.869   0.938
 7299SOL    HW233929   5.771   3.017   0.941
 7300SOL     OW33930   6.206   3.648   1.439
 7300SOL    HW133931   6.114   3.631   1.474
 7300SOL    HW233932   6.234   3.740   1.465
 7301SOL     OW33933   6.192   2.826   0.123
 7301SOL    HW133934   6.199   2.910   0.069
 7301SOL    HW233935   6.238   2.839   0.211
 7302SOL     OW33936   7.180   1.976   1.480
 7302SOL    HW133937   7.162   2.043   1.408
 7302SOL    HW233938   7.177   2.022   1.569
 7303SOL     OW33939   5.708   2.505   0.563
 7303SOL    HW133940   5.663   2.417   0.580
 7303SOL    HW233941   5.707   2.559   0.647
 7304SOL     OW33942   7.428   3.629   0.359
 7304SOL    HW133943   7.482   3.600   0.439
 7304SOL    HW233944   7.458   3.719   0.330
 7305SOL     OW33945   5.613   3.458   0.117
 7305SOL    HW133946   5.594   3.362   0.138
 7305SOL    HW233947   5.580   3.516   0.192
 7306SOL     OW33948   7.275   2.784   0.612
 7306SOL    HW133949   7.370   2.755   0.620
 7306SOL    HW233950   7.267   2.849   0.537
 7307SOL     OW33951   7.227   2.970   0.432
 7307SOL    HW133952   7.313   2.972   0.380
 7307SOL    HW233953   7.241   3.017   0.520
 7308SOL     OW33954   5.699   2.599   1.597
 7308SOL    HW133955   5.787   2.586   1.642
 7308SOL    HW233956   5.686   2.696   1.575
 7309SOL     OW33957   6.199   3.227   0.726
 7309SOL    HW133958   6.150   3.140   0.735
 7309SOL    HW233959   6.176   3.270   0.639
 7310SOL     OW33960   6.395   1.866   0.502
 7310SOL    HW133961   6.435   1.957   0.493
 7310SOL    HW233962   6.295   1.874   0.508
 7311SOL     OW33963   5.783   2.838   1.264
 7311SOL    HW133964   5.872   2.793   1.250
 7311SOL    HW233965   5.710   2.773   1.245
 7312SOL     OW33966   7.111   2.861   0.190
 7312SOL    HW133967   7.048   2.785   0.203
 7312SOL    HW233968   7.159   2.879   0.276
 7313SOL     OW33969   6.773   3.654   1.616
 7313SOL    HW133970   6.797   3.714   1.540
 7313SOL    HW233971   6.780   3.559   1.586
 7314SOL     OW33972   5.903   2.113   1.801
 7314SOL    HW133973   5.974   2.184   1.807
 7314SOL    HW233974   5.815   2.152   1.829
 7315SOL     OW33975   7.052   3.279   0.953
 7315SOL    HW133976   6.993   3.285   1.033
 7315SOL    HW233977   7.037   3.191   0.907
 7316SOL     OW33978   7.253   3.576   0.572
 7316SOL    HW133979   7.212   3.553   0.484
 7316SOL    HW233980   7.235   3.502   0.637
 7317SOL     OW33981   6.184   2.591   0.270
 7317SOL    HW133982   6.208   2.660   0.202
 7317SOL    HW233983   6.106   2.624   0.324
 7318SOL     OW33984   6.867   2.207   0.944
 7318SOL    HW133985   6.781   2.157   0.931
 7318SOL    HW233986   6.929   2.153   1.000
 7319SOL     OW33987   7.162   3.524   0.307
 7319SOL    HW133988   7.251   3.570   0.310
 7319SOL    HW233989   7.141   3.500   0.212
 7320SOL     OW33990   6.393   2.467   1.465
 7320SOL    HW133991   6.346   2.464   1.554
 7320SOL    HW233992   6.342   2.412   1.399
 7321SOL     OW33993   6.980   2.331   1.674
 7321SOL    HW133994   6.960   2.374   1.762
 7321SOL    HW233995   7.058   2.269   1.683
 7322SOL     OW33996   6.559   2.752   1.572
 7322SOL    HW133997   6.605   2.668   1.543
 7322SOL    HW233998   6.503   2.786   1.497
 7323SOL     OW33999   6.577   2.272   1.242
 7323SOL    HW134000   6.500   2.306   1.296
 7323SOL    HW234001   6.543   2.221   1.163
 7324SOL     OW34002   6.627   2.563   0.429
 7324SOL    HW134003   6.653   2.559   0.525
 7324SOL    HW234004   6.542   2.512   0.415
 7325SOL     OW34005   5.662   2.673   0.789
 7325SOL    HW134006   5.761   2.661   0.798
 7325SOL    HW234007   5.638   2.768   0.810
 7326SOL     OW34008   6.451   2.210   0.195
 7326SOL    HW134009   6.510   2.273   0.146
 7326SOL    HW234010   6.470   2.116   0.166
 7327SOL     OW34011   6.948   3.006   0.545
 7327SOL    HW134012   7.031   2.977   0.497
 7327SOL    HW234013   6.899   3.073   0.489
 7328SOL     OW34014   6.136   2.058   0.885
 7328SOL    HW134015   6.131   2.053   0.985
 7328SOL    HW234016   6.138   2.154   0.856
 7329SOL     OW34017   6.594   3.318   0.477
 7329SOL    HW134018   6.548   3.390   0.425
 7329SOL    HW234019   6.590   3.338   0.575
 7330SOL     OW34020   5.937   3.663   0.853
 7330SOL    HW134021   5.987   3.577   0.859
 7330SOL    HW234022   6.002   3.740   0.850
 7331SOL     OW34023   7.381   2.928   0.873
 7331SOL    HW134024   7.319   2.913   0.797
 7331SOL    HW234025   7.329   2.939   0.958
 7332SOL     OW34026   6.813   3.412   1.506
 7332SOL    HW134027   6.819   3.335   1.570
 7332SOL    HW234028   6.761   3.386   1.426
 7333SOL     OW34029   5.907   2.805   0.242
 7333SOL    HW134030   5.989   2.844   0.200
 7333SOL    HW234031   5.880   2.723   0.193
 7334SOL     OW34032   7.044   2.597   0.728
 7334SOL    HW134033   7.039   2.532   0.803
 7334SOL    HW234034   7.124   2.656   0.741
 7335SOL     OW34035   6.047   3.128   1.727
 7335SOL    HW134036   5.997   3.129   1.641
 7335SOL    HW234037   5.984   3.110   1.803
 7336SOL     OW34038   6.697   3.638   0.237
 7336SOL    HW134039   6.637   3.576   0.287
 7336SOL    HW234040   6.728   3.594   0.152
 7337SOL     OW34041   5.788   2.147   1.498
 7337SOL    HW134042   5.708   2.207   1.485
 7337SOL    HW234043   5.778   2.098   1.584
 7338SOL     OW34044   7.218   3.239   0.081
 7338SOL    HW134045   7.186   3.333   0.071
 7338SOL    HW234046   7.142   3.176   0.069
 7339SOL     OW34047   6.050   3.605   0.323
 7339SOL    HW134048   6.083   3.644   0.409
 7339SOL    HW234049   6.126   3.598   0.258
 7340SOL     OW34050   6.986   1.969   0.426
 7340SOL    HW134051   6.962   1.932   0.336
 7340SOL    HW234052   7.085   1.985   0.430
 7341SOL     OW34053   5.835   3.647   1.241
 7341SOL    HW134054   5.892   3.582   1.291
 7341SOL    HW234055   5.819   3.614   1.148
 7342SOL     OW34056   6.526   3.560   0.904
 7342SOL    HW134057   6.606   3.503   0.925
 7342SOL    HW234058   6.477   3.520   0.827
 7343SOL     OW34059   5.968   2.562   0.480
 7343SOL    HW134060   6.013   2.472   0.477
 7343SOL    HW234061   5.874   2.551   0.513
 7344SOL     OW34062   7.133   2.084   1.729
 7344SOL    HW134063   7.128   2.121   1.821
 7344SOL    HW234064   7.061   2.015   1.717
 7345SOL     OW34065   6.200   1.984   0.117
 7345SOL    HW134066   6.298   1.962   0.124
 7345SOL    HW234067   6.169   1.967   0.024
 7346SOL     OW34068   6.367   2.126   1.749
 7346SOL    HW134069   6.434   2.065   1.792
 7346SOL    HW234070   6.294   2.145   1.814
 7347SOL     OW34071   6.474   3.376   1.195
 7347SOL    HW134072   6.451   3.351   1.101
 7347SOL    HW234073   6.535   3.307   1.234
 7348SOL     OW34074   6.937   2.452   1.433
 7348SOL    HW134075   6.965   2.409   1.518
 7348SOL    HW234076   6.962   2.548   1.434
 7349SOL     OW34077   6.389   3.264   0.924
 7349SOL    HW134078   6.479   3.278   0.882
 7349SOL    HW234079   6.318   3.266   0.853
 7350SOL     OW34080   6.508   2.365   0.899
 7350SOL    HW134081   6.483   2.356   0.803
 7350SOL    HW234082   6.556   2.283   0.930
 7351SOL     OW34083   6.125   1.926   0.512
 7351SOL    HW134084   6.044   1.927   0.570
 7351SOL    HW234085   6.128   2.009   0.457
 7352SOL     OW34086   7.020   3.050   0.041
 7352SOL    HW134087   7.052   2.974   0.098
 7352SOL    HW234088   6.928   3.077   0.071
 7353SOL     OW34089   5.883   1.897   0.171
 7353SOL    HW134090   5.932   1.981   0.150
 7353SOL    HW234091   5.945   1.832   0.216
 7354SOL     OW34092   6.521   2.098   0.480
 7354SOL    HW134093   6.473   2.139   0.402
 7354SOL    HW234094   6.620   2.096   0.461
 7355SOL     OW34095   6.662   2.545   1.464
 7355SOL    HW134096   6.582   2.484   1.467
 7355SOL    HW234097   6.743   2.492   1.440
 7356SOL     OW34098   6.813   3.432   0.793
 7356SOL    HW134099   6.834   3.506   0.728
 7356SOL    HW234100   6.881   3.432   0.866
 7357SOL     OW34101   6.045   3.014   0.741
 7357SOL    HW134102   5.974   2.987   0.806
 7357SOL    HW234103   6.019   2.986   0.648
 7358SOL     OW34104   6.857   3.659   0.591
 7358SOL    HW134105   6.901   3.723   0.527
 7358SOL    HW234106   6.807   3.711   0.661
 7359SOL     OW34107   6.618   2.411   0.016
 7359SOL    HW134108   6.577   2.493  -0.023
 7359SOL    HW234109   6.682   2.437   0.089
 7360SOL     OW34110   5.664   2.418   1.386
 7360SOL    HW134111   5.756   2.417   1.345
 7360SOL    HW234112   5.658   2.492   1.453
 7361SOL     OW34113   6.147   2.084   1.147
 7361SOL    HW134114   6.185   2.000   1.184
 7361SOL    HW234115   6.059   2.103   1.191
 7362SOL     OW34116   6.452   2.316   0.642
 7362SOL    HW134117   6.420   2.388   0.580
 7362SOL    HW234118   6.476   2.235   0.589
 7363SOL     OW34119   6.603   1.901   0.753
 7363SOL    HW134120   6.531   1.906   0.684
 7363SOL    HW234121   6.579   1.832   0.822
 7364SOL     OW34122   7.015   3.035   0.867
 7364SOL    HW134123   6.960   2.951   0.860
 7364SOL    HW234124   7.041   3.064   0.775
 7365SOL     OW34125   7.052   2.452   0.992
 7365SOL    HW134126   7.022   2.357   0.999
 7365SOL    HW234127   7.125   2.468   1.058
 7366SOL     OW34128   7.443   2.695   0.377
 7366SOL    HW134129   7.485   2.631   0.441
 7366SOL    HW234130   7.405   2.644   0.299
 7367SOL     OW34131   6.074   3.247   0.174
 7367SOL    HW134132   5.987   3.232   0.221
 7367SOL    HW234133   6.057   3.273   0.079
 7368SOL     OW34134   7.250   3.142   0.657
 7368SOL    HW134135   7.349   3.150   0.671
 7368SOL    HW234136   7.205   3.226   0.688
 7369SOL     OW34137   6.976   2.437   0.078
 7369SOL    HW134138   6.922   2.416   0.159
 7369SOL    HW234139   7.067   2.396   0.087
 7370SOL     OW34140   6.113   2.118   0.328
 7370SOL    HW134141   6.140   2.059   0.253
 7370SOL    HW234142   6.113   2.213   0.297
 7371SOL     OW34143   6.650   3.209   1.340
 7371SOL    HW134144   6.570   3.186   1.395
 7371SOL    HW234145   6.733   3.183   1.389
 7372SOL     OW34146   7.178   3.491   1.625
 7372SOL    HW134147   7.205   3.525   1.535
 7372SOL    HW234148   7.257   3.453   1.671
 7373SOL     OW34149   6.697   3.057   1.100
 7373SOL    HW134150   6.657   3.101   1.181
 7373SOL    HW234151   6.656   3.094   1.017
 7374SOL     OW34152   7.224   2.961   1.079
 7374SOL    HW134153   7.229   3.042   1.138
 7374SOL    HW234154   7.138   2.963   1.028
 7375SOL     OW34155   6.501   1.951   1.402
 7375SOL    HW134156   6.526   1.931   1.307
 7375SOL    HW234157   6.573   2.007   1.444
 7376SOL     OW34158   6.291   2.912   0.368
 7376SOL    HW134159   6.277   2.919   0.467
 7376SOL    HW234160   6.375   2.861   0.350
 7377SOL     OW34161   6.860   2.248   1.262
 7377SOL    HW134162   6.881   2.322   1.326
 7377SOL    HW234163   6.771   2.265   1.219
 7378SOL     OW34164   5.650   3.426   1.331
 7378SOL    HW134165   5.604   3.508   1.297
 7378SOL    HW234166   5.748   3.445   1.340
 7379SOL     OW34167   5.953   2.962   0.501
 7379SOL    HW134168   5.946   3.045   0.445
 7379SOL    HW234169   5.957   2.882   0.441
 7380SOL     OW34170   6.152   2.399   0.865
 7380SOL    HW134171   6.164   2.465   0.791
 7380SOL    HW234172   6.198   2.433   0.948
 7381SOL     OW34173   6.838   3.210   0.388
 7381SOL    HW134174   6.888   3.287   0.428
 7381SOL    HW234175   6.743   3.212   0.420
 7382SOL     OW34176   6.858   3.307   1.142
 7382SOL    HW134177   6.905   3.320   1.229
 7382SOL    HW234178   6.792   3.233   1.151
 7383SOL     OW34179   7.168   2.501   0.472
 7383SOL    HW134180   7.137   2.562   0.545
 7383SOL    HW234181   7.218   2.553   0.403
 7384SOL     OW34182   5.940   3.372   1.329
 7384SOL    HW134183   5.919   3.328   1.242
 7384SOL    HW234184   6.037   3.398   1.332
 7385SOL     OW34185   6.599   1.967   1.770
 7385SOL    HW134186   6.605   2.052   1.718
 7385SOL    HW234187   6.631   1.891   1.713
 7386SOL     OW34188   6.090   1.912   1.740
 7386SOL    HW134189   6.048   1.855   1.670
 7386SOL    HW234190   6.024   1.981   1.772
 7387SOL     OW34191   6.159   2.732   1.029
 7387SOL    HW134192   6.203   2.821   1.020
 7387SOL    HW234193   6.096   2.732   1.106
 7388SOL     OW34194   6.946   2.724   1.045
 7388SOL    HW134195   6.871   2.724   0.979
 7388SOL    HW234196   6.983   2.632   1.054
 7389SOL     OW34197   6.795   2.387   0.275
 7389SOL    HW134198   6.808   2.303   0.329
 7389SOL    HW234199   6.766   2.461   0.335
 7390SOL     OW34200   5.893   2.075   1.231
 7390SOL    HW134201   5.870   2.112   1.321
 7390SOL    HW234202   5.863   1.980   1.225
 7391SOL     OW34203   5.623   3.172   1.282
 7391SOL    HW134204   5.676   3.123   1.350
 7391SOL    HW234205   5.645   3.270   1.287
 7392SOL     OW34206   6.318   2.496   1.064
 7392SOL    HW134207   6.377   2.470   0.988
 7392SOL    HW234208   6.290   2.592   1.053
 7393SOL     OW34209   5.893   1.925   0.618
 7393SOL    HW134210   5.882   2.019   0.651
 7393SOL    HW234211   5.888   1.862   0.695
 7394SOL     OW34212   7.208   2.229   0.374
 7394SOL    HW134213   7.210   2.153   0.438
 7394SOL    HW234214   7.160   2.306   0.414
 7395SOL     OW34215   6.609   2.628   0.966
 7395SOL    HW134216   6.624   2.649   1.062
 7395SOL    HW234217   6.579   2.533   0.957
 7396SOL     OW34218   6.566   3.435   1.700
 7396SOL    HW134219   6.546   3.479   1.612
 7396SOL    HW234220   6.605   3.344   1.684
 7397SOL     OW34221   7.126   2.136   0.125
 7397SOL    HW134222   7.065   2.061   0.148
 7397SOL    HW234223   7.148   2.188   0.208
 7398SOL     OW34224   6.889   2.700   0.042
 7398SOL    HW134225   6.923   2.607   0.057
 7398SOL    HW234226   6.907   2.727  -0.053
 7399SOL     OW34227   6.654   3.195   0.849
 7399SOL    HW134228   6.661   3.111   0.794
 7399SOL    HW234229   6.716   3.264   0.813
 7400SOL     OW34230   5.905   2.672   0.949
 7400SOL    HW134231   5.998   2.708   0.954
 7400SOL    HW234232   5.899   2.587   1.001
 7401SOL     OW34233   5.925   2.371   1.006
 7401SOL    HW134234   5.873   2.288   0.989
 7401SOL    HW234235   6.002   2.376   0.942
 7402SOL     OW34236   6.746   2.069   1.477
 7402SOL    HW134237   6.746   2.133   1.554
 7402SOL    HW234238   6.774   2.117   1.394
 7403SOL     OW34239   5.594   3.188   0.200
 7403SOL    HW134240   5.501   3.209   0.169
 7403SOL    HW234241   5.604   3.089   0.213
 7404SOL     OW34242   5.674   3.663   0.927
 7404SOL    HW134243   5.632   3.577   0.900
 7404SOL    HW234244   5.768   3.666   0.893
 7405SOL     OW34245   6.090   3.430   0.910
 7405SOL    HW134246   6.156   3.504   0.919
 7405SOL    HW234247   6.134   3.351   0.868
 7406SOL     OW34248   6.588   2.658   1.238
 7406SOL    HW134249   6.629   2.626   1.324
 7406SOL    HW234250   6.492   2.631   1.235
 7407SOL     OW34251   5.626   2.406   1.114
 7407SOL    HW134252   5.711   2.373   1.073
 7407SOL    HW234253   5.639   2.421   1.212
 7408SOL     OW34254   5.775   2.382   1.722
 7408SOL    HW134255   5.834   2.342   1.652
 7408SOL    HW234256   5.717   2.453   1.681
 7409SOL     OW34257   6.401   2.434   0.325
 7409SOL    HW134258   6.408   2.345   0.279
 7409SOL    HW234259   6.307   2.468   0.317
 7410SOL     OW34260   7.243   2.466   1.206
 7410SOL    HW134261   7.205   2.397   1.268
 7410SOL    HW234262   7.325   2.430   1.162
 7411SOL     OW34263   5.838   3.426   1.744
 7411SOL    HW134264   5.808   3.483   1.820
 7411SOL    HW234265   5.831   3.329   1.770
 7412SOL     OW34266   6.257   2.326   1.269
 7412SOL    HW134267   6.223   2.237   1.239
 7412SOL    HW234268   6.283   2.380   1.189
 7413SOL     OW34269   6.059   2.362   0.191
 7413SOL    HW134270   6.120   2.442   0.195
 7413SOL    HW234271   5.964   2.393   0.198
 7414SOL     OW34272   5.745   2.999   1.466
 7414SOL    HW134273   5.767   2.938   1.542
 7414SOL    HW234274   5.755   2.950   1.380
 7415SOL     OW34275   6.933   2.921   1.234
 7415SOL    HW134276   6.957   2.858   1.160
 7415SOL    HW234277   6.843   2.961   1.216
 7416SOL     OW34278   6.888   2.717   0.309
 7416SOL    HW134279   6.802   2.686   0.351
 7416SOL    HW234280   6.884   2.703   0.210
 7417SOL     OW34281   7.345   3.609   1.154
 7417SOL    HW134282   7.406   3.639   1.081
 7417SOL    HW234283   7.307   3.520   1.132
 7418SOL     OW34284   6.838   3.593   1.128
 7418SOL    HW134285   6.922   3.598   1.074
 7418SOL    HW234286   6.815   3.497   1.146
 7419SOL     OW34287   5.669   3.120   1.022
 7419SOL    HW134288   5.664   3.119   1.122
 7419SOL    HW234289   5.586   3.079   0.984
 7420SOL     OW34290   6.489   1.948   0.133
 7420SOL    HW134291   6.540   1.949   0.047
 7420SOL    HW234292   6.545   1.906   0.204
 7421SOL     OW34293   7.312   1.997   0.523
 7421SOL    HW134294   7.385   1.980   0.456
 7421SOL    HW234295   7.281   1.910   0.561
 7422SOL     OW34296   6.974   3.435   0.477
 7422SOL    HW134297   7.041   3.447   0.403
 7422SOL    HW234298   6.934   3.524   0.500
 7423SOL     OW34299   6.866   2.789   0.672
 7423SOL    HW134300   6.926   2.708   0.674
 7423SOL    HW234301   6.906   2.858   0.612
 7424SOL     OW34302   6.416   3.135   1.422
 7424SOL    HW134303   6.411   3.168   1.517
 7424SOL    HW234304   6.330   3.154   1.376
 7425SOL     OW34305   6.258   3.478   0.154
 7425SOL    HW134306   6.267   3.488   0.055
 7425SOL    HW234307   6.218   3.389   0.175
 7426SOL     OW34308   7.236   3.582   1.394
 7426SOL    HW134309   7.289   3.592   1.310
 7426SOL    HW234310   7.209   3.672   1.428
 7427SOL     OW34311   7.427   2.037   0.963
 7427SOL    HW134312   7.466   1.952   0.927
 7427SOL    HW234313   7.329   2.039   0.944
 7428SOL     OW34314   5.849   2.188   0.720
 7428SOL    HW134315   5.770   2.239   0.686
 7428SOL    HW234316   5.840   2.173   0.818
 7429SOL     OW34317   6.780   3.474   0.031
 7429SOL    HW134318   6.786   3.381   0.068
 7429SOL    HW234319   6.721   3.474  -0.049
 7430SOL     OW34320   6.408   2.864   1.372
 7430SOL    HW134321   6.448   2.863   1.280
 7430SOL    HW234322   6.418   2.956   1.412
 7431SOL     OW34323   6.502   2.772   0.291
 7431SOL    HW134324   6.565   2.810   0.223
 7431SOL    HW234325   6.542   2.689   0.330
 7432SOL     OW34326   7.090   3.469   0.044
 7432SOL    HW134327   6.998   3.506   0.051
 7432SOL    HW234328   7.128   3.489  -0.046
 7433SOL     OW34329   5.958   3.150   1.490
 7433SOL    HW134330   5.945   3.243   1.456
 7433SOL    HW234331   5.874   3.098   1.477
 7434SOL     OW34332   7.200   3.154   1.289
 7434SOL    HW134333   7.260   3.157   1.369
 7434SOL    HW234334   7.125   3.218   1.302
 7435SOL     OW34335   6.625   2.960   0.696
 7435SOL    HW134336   6.555   2.913   0.750
 7435SOL    HW234337   6.684   2.892   0.653
 7436SOL     OW34338   6.600   2.098   0.971
 7436SOL    HW134339   6.592   2.062   0.878
 7436SOL    HW234340   6.598   2.022   1.036
 7437SOL     OW34341   6.176   3.349   0.491
 7437SOL    HW134342   6.218   3.291   0.421
 7437SOL    HW234343   6.132   3.428   0.447
 7438SOL     OW34344   7.295   2.247   1.381
 7438SOL    HW134345   7.368   2.316   1.385
 7438SOL    HW234346   7.323   2.172   1.322
 7439SOL     OW34347   5.841   3.210   0.290
 7439SOL    HW134348   5.745   3.211   0.263
 7439SOL    HW234349   5.853   3.263   0.374
 7440SOL     OW34350   6.258   2.065   1.489
 7440SOL    HW134351   6.348   2.049   1.449
 7440SOL    HW234352   6.266   2.070   1.588
 7441SOL     OW34353   7.026   2.718   1.398
 7441SOL    HW134354   6.969   2.770   1.335
 7441SOL    HW234355   7.122   2.730   1.374
 7442SOL     OW34356   5.658   2.028   0.318
 7442SOL    HW134357   5.641   2.111   0.264
 7442SOL    HW234358   5.748   1.991   0.296
 7443SOL     OW34359   6.769   3.197   0.119
 7443SOL    HW134360   6.670   3.186   0.121
 7443SOL    HW234361   6.803   3.212   0.212
 7444SOL     OW34362   7.079   3.629   0.959
 7444SOL    HW134363   7.112   3.693   0.890
 7444SOL    HW234364   7.145   3.623   1.034
 7445SOL     OW34365   7.260   2.745   1.254
 7445SOL    HW134366   7.233   2.656   1.217
 7445SOL    HW234367   7.261   2.813   1.181
 7446SOL     OW34368   6.811   2.187   0.449
 7446SOL    HW134369   6.876   2.113   0.438
 7446SOL    HW234370   6.831   2.237   0.533
 7447SOL     OW34371   6.180   2.607   0.652
 7447SOL    HW134372   6.230   2.692   0.633
 7447SOL    HW234373   6.092   2.609   0.604
 7448SOL     OW34374   7.316   2.796   1.517
 7448SOL    HW134375   7.354   2.887   1.532
 7448SOL    HW234376   7.308   2.779   1.418
 7449SOL     OW34377   6.445   3.236   0.016
 7449SOL    HW134378   6.399   3.251   0.104
 7449SOL    HW234379   6.489   3.321  -0.014
 7450SOL     OW34380   6.247   3.652   0.953
 7450SOL    HW134381   6.201   3.740   0.940
 7450SOL    HW234382   6.346   3.664   0.946
 7451SOL     OW34383   6.445   2.818   0.861
 7451SOL    HW134384   6.499   2.749   0.909
 7451SOL    HW234385   6.413   2.887   0.927
 7452SOL     OW34386   6.669   2.846   0.087
 7452SOL    HW134387   6.646   2.899   0.005
 7452SOL    HW234388   6.750   2.790   0.068
 7453SOL     OW34389   7.447   3.431   0.851
 7453SOL    HW134390   7.376   3.419   0.781
 7453SOL    HW234391   7.448   3.352   0.911
 7454SOL     OW34392   5.665   3.102   0.653
 7454SOL    HW134393   5.664   3.055   0.741
 7454SOL    HW234394   5.747   3.074   0.602
 7455SOL     OW34395   6.258   3.253   1.624
 7455SOL    HW134396   6.180   3.203   1.662
 7455SOL    HW234397   6.255   3.348   1.655
 7456SOL     OW34398   6.014   2.286   0.520
 7456SOL    HW134399   6.044   2.214   0.458
 7456SOL    HW234400   5.975   2.246   0.603
 7457SOL     OW34401   7.291   3.349   1.104
 7457SOL    HW134402   7.198   3.324   1.077
 7457SOL    HW234403   7.317   3.299   1.186
 7458SOL     OW34404   5.903   2.409   1.280
 7458SOL    HW134405   5.941   2.350   1.352
 7458SOL    HW234406   5.943   2.383   1.192
 7459SOL     OW34407   6.398   3.448   0.687
 7459SOL    HW134408   6.430   3.458   0.593
 7459SOL    HW234409   6.319   3.386   0.689
 7460SOL     OW34410   7.010   2.076   1.112
 7460SOL    HW134411   7.062   2.011   1.167
 7460SOL    HW234412   6.961   2.139   1.173
 7461SOL     OW34413   6.587   1.896   1.154
 7461SOL    HW134414   6.524   1.824   1.123
 7461SOL    HW234415   6.680   1.860   1.154
 7462SOL     OW34416   6.356   3.192   0.301
 7462SOL    HW134417   6.310   3.105   0.318
 7462SOL    HW234418   6.447   3.189   0.342
 7463SOL     OW34419   6.204   3.429   1.284
 7463SOL    HW134420   6.199   3.511   1.341
 7463SOL    HW234421   6.293   3.426   1.239
 7464SOL     OW34422   6.938   1.914   0.168
 7464SOL    HW134423   6.973   1.873   0.084
 7464SOL    HW234424   6.848   1.876   0.188
 7465SOL     OW34425   6.886   2.315   0.691
 7465SOL    HW134426   6.827   2.395   0.695
 7465SOL    HW234427   6.901   2.280   0.784
 7466SOL     OW34428   7.179   2.083   0.882
 7466SOL    HW134429   7.095   2.082   0.936
 7466SOL    HW234430   7.181   2.166   0.826
 7467SOL     OW34431   5.625   2.939   0.300
 7467SOL    HW134432   5.724   2.928   0.291
 7467SOL    HW234433   5.585   2.853   0.332
 7468SOL     OW34434   6.461   3.508   0.337
 7468SOL    HW134435   6.384   3.473   0.283
 7468SOL    HW234436   6.429   3.579   0.399
 7469SOL     OW34437   5.816   2.490   1.975
 7469SOL    HW134438   5.723   2.488   2.012
 7469SOL    HW234439   5.817   2.451   1.883
 7470SOL     OW34440   5.605   2.230   2.509
 7470SOL    HW134441   5.523   2.273   2.548
 7470SOL    HW234442   5.577   2.157   2.446
 7471SOL     OW34443   6.155   3.137   3.027
 7471SOL    HW134444   6.062   3.130   2.990
 7471SOL    HW234445   6.166   3.226   3.071
 7472SOL     OW34446   6.272   3.023   3.665
 7472SOL    HW134447   6.332   3.102   3.679
 7472SOL    HW234448   6.186   3.054   3.624
 7473SOL     OW34449   5.921   3.297   2.923
 7473SOL    HW134450   5.843   3.266   2.870
 7473SOL    HW234451   5.979   3.355   2.866
 7474SOL     OW34452   7.046   3.367   3.201
 7474SOL    HW134453   7.070   3.461   3.227
 7474SOL    HW234454   7.030   3.313   3.283
 7475SOL     OW34455   7.180   1.976   3.342
 7475SOL    HW134456   7.162   2.043   3.270
 7475SOL    HW234457   7.177   2.022   3.431
 7476SOL     OW34458   7.428   3.629   2.221
 7476SOL    HW134459   7.482   3.600   2.301
 7476SOL    HW234460   7.458   3.719   2.192
 7477SOL     OW34461   5.699   2.599   3.459
 7477SOL    HW134462   5.787   2.586   3.504
 7477SOL    HW234463   5.686   2.696   3.437
 7478SOL     OW34464   6.773   3.654   3.478
 7478SOL    HW134465   6.797   3.714   3.402
 7478SOL    HW234466   6.780   3.559   3.448
 7479SOL     OW34467   5.903   2.113   3.663
 7479SOL    HW134468   5.974   2.184   3.669
 7479SOL    HW234469   5.815   2.152   3.691
 7480SOL     OW34470   6.393   2.467   3.327
 7480SOL    HW134471   6.346   2.464   3.416
 7480SOL    HW234472   6.342   2.412   3.261
 7481SOL     OW34473   6.627   2.563   2.291
 7481SOL    HW134474   6.653   2.559   2.387
 7481SOL    HW234475   6.542   2.512   2.277
 7482SOL     OW34476   6.948   3.006   2.407
 7482SOL    HW134477   7.031   2.977   2.359
 7482SOL    HW234478   6.899   3.073   2.351
 7483SOL     OW34479   7.381   2.928   2.735
 7483SOL    HW134480   7.319   2.913   2.659
 7483SOL    HW234481   7.329   2.939   2.820
 7484SOL     OW34482   6.697   3.638   2.099
 7484SOL    HW134483   6.637   3.576   2.149
 7484SOL    HW234484   6.728   3.594   2.014
 7485SOL     OW34485   5.788   2.147   3.360
 7485SOL    HW134486   5.708   2.207   3.347
 7485SOL    HW234487   5.778   2.098   3.446
 7486SOL     OW34488   6.050   3.605   2.185
 7486SOL    HW134489   6.083   3.644   2.271
 7486SOL    HW234490   6.126   3.598   2.120
 7487SOL     OW34491   6.986   1.969   2.288
 7487SOL    HW134492   6.962   1.932   2.198
 7487SOL    HW234493   7.085   1.985   2.292
 7488SOL     OW34494   7.133   2.084   3.591
 7488SOL    HW134495   7.128   2.121   3.683
 7488SOL    HW234496   7.061   2.015   3.579
 7489SOL     OW34497   6.389   3.264   2.786
 7489SOL    HW134498   6.479   3.278   2.744
 7489SOL    HW234499   6.318   3.266   2.715
 7490SOL     OW34500   7.020   3.050   1.903
 7490SOL    HW134501   7.052   2.974   1.960
 7490SOL    HW234502   6.928   3.077   1.933
 7491SOL     OW34503   6.976   2.437   1.940
 7491SOL    HW134504   6.922   2.416   2.021
 7491SOL    HW234505   7.067   2.396   1.949
 7492SOL     OW34506   7.178   3.491   3.487
 7492SOL    HW134507   7.205   3.525   3.397
 7492SOL    HW234508   7.257   3.453   3.533
 7493SOL     OW34509   6.697   3.057   2.962
 7493SOL    HW134510   6.657   3.101   3.043
 7493SOL    HW234511   6.656   3.094   2.879
 7494SOL     OW34512   6.501   1.951   3.264
 7494SOL    HW134513   6.526   1.931   3.169
 7494SOL    HW234514   6.573   2.007   3.306
 7495SOL     OW34515   5.996   2.675   3.113
 7495SOL    HW134516   6.082   2.687   3.163
 7495SOL    HW234517   5.954   2.588   3.140
 7496SOL     OW34518   6.858   3.307   3.004
 7496SOL    HW134519   6.905   3.320   3.091
 7496SOL    HW234520   6.792   3.233   3.013
 7497SOL     OW34521   5.988   2.613   3.460
 7497SOL    HW134522   6.056   2.668   3.413
 7497SOL    HW234523   6.028   2.525   3.487
 7498SOL     OW34524   6.599   1.967   3.632
 7498SOL    HW134525   6.605   2.052   3.580
 7498SOL    HW234526   6.631   1.891   3.575
 7499SOL     OW34527   6.090   1.912   3.602
 7499SOL    HW134528   6.048   1.855   3.532
 7499SOL    HW234529   6.024   1.981   3.634
 7500SOL     OW34530   6.795   2.387   2.137
 7500SOL    HW134531   6.808   2.303   2.191
 7500SOL    HW234532   6.766   2.461   2.197
 7501SOL     OW34533   5.623   3.172   3.144
 7501SOL    HW134534   5.676   3.123   3.212
 7501SOL    HW234535   5.645   3.270   3.149
 7502SOL     OW34536   7.126   2.136   1.987
 7502SOL    HW134537   7.065   2.061   2.010
 7502SOL    HW234538   7.148   2.188   2.070
 7503SOL     OW34539   6.889   2.700   1.904
 7503SOL    HW134540   6.923   2.607   1.919
 7503SOL    HW234541   6.907   2.727   1.809
 7504SOL     OW34542   5.905   2.672   2.811
 7504SOL    HW134543   5.998   2.708   2.816
 7504SOL    HW234544   5.899   2.587   2.863
 7505SOL     OW34545   6.724   2.242   3.540
 7505SOL    HW134546   6.679   2.305   3.604
 7505SOL    HW234547   6.817   2.273   3.523
 7506SOL     OW34548   6.746   2.069   3.339
 7506SOL    HW134549   6.746   2.133   3.416
 7506SOL    HW234550   6.774   2.117   3.256
 7507SOL     OW34551   6.401   2.434   2.187
 7507SOL    HW134552   6.408   2.345   2.141
 7507SOL    HW234553   6.307   2.468   2.179
 7508SOL     OW34554   5.838   3.426   3.606
 7508SOL    HW134555   5.808   3.483   3.682
 7508SOL    HW234556   5.831   3.329   3.632
 7509SOL     OW34557   6.516   3.540   3.327
 7509SOL    HW134558   6.492   3.522   3.232
 7509SOL    HW234559   6.546   3.634   3.337
 7510SOL     OW34560   6.933   2.921   3.096
 7510SOL    HW134561   6.957   2.858   3.022
 7510SOL    HW234562   6.843   2.961   3.078
 7511SOL     OW34563   5.669   3.120   2.884
 7511SOL    HW134564   5.664   3.119   2.984
 7511SOL    HW234565   5.586   3.079   2.846
 7512SOL     OW34566   5.849   2.188   2.582
 7512SOL    HW134567   5.770   2.239   2.548
 7512SOL    HW234568   5.840   2.173   2.680
 7513SOL     OW34569   6.780   3.474   1.893
 7513SOL    HW134570   6.786   3.381   1.930
 7513SOL    HW234571   6.721   3.474   1.813
 7514SOL     OW34572   6.408   2.864   3.234
 7514SOL    HW134573   6.448   2.863   3.142
 7514SOL    HW234574   6.418   2.956   3.274
 7515SOL     OW34575   7.200   3.154   3.151
 7515SOL    HW134576   7.260   3.157   3.231
 7515SOL    HW234577   7.125   3.218   3.164
 7516SOL     OW34578   6.600   2.098   2.833
 7516SOL    HW134579   6.592   2.062   2.740
 7516SOL    HW234580   6.598   2.022   2.898
 7517SOL     OW34581   7.295   2.247   3.243
 7517SOL    HW134582   7.368   2.316   3.247
 7517SOL    HW234583   7.323   2.172   3.184
 7518SOL     OW34584   5.661   2.207   1.895
 7518SOL    HW134585   5.569   2.179   1.866
 7518SOL    HW234586   5.692   2.284   1.839
 7519SOL     OW34587   5.658   2.028   2.180
 7519SOL    HW134588   5.641   2.111   2.126
 7519SOL    HW234589   5.748   1.991   2.158
 7520SOL     OW34590   7.079   3.629   2.821
 7520SOL    HW134591   7.112   3.693   2.752
 7520SOL    HW234592   7.145   3.623   2.896
 7521SOL     OW34593   6.302   2.427   3.570
 7521SOL    HW134594   6.321   2.492   3.644
 7521SOL    HW234595   6.362   2.347   3.579
 7522SOL     OW34596   5.976   3.603   3.422
 7522SOL    HW134597   5.885   3.644   3.420
 7522SOL    HW234598   5.969   3.509   3.454
 7523SOL     OW34599   6.811   2.187   2.311
 7523SOL    HW134600   6.876   2.113   2.300
 7523SOL    HW234601   6.831   2.237   2.395
 7524SOL     OW34602   7.363   2.204   3.504
 7524SOL    HW134603   7.346   2.235   3.410
 7524SOL    HW234604   7.279   2.167   3.542
 7525SOL     OW34605   6.669   2.846   1.949
 7525SOL    HW134606   6.646   2.899   1.867
 7525SOL    HW234607   6.750   2.790   1.930
 7526SOL     OW34608   5.807   3.176   3.706
 7526SOL    HW134609   5.742   3.103   3.685
 7526SOL    HW234610   5.811   3.190   3.804
 7527SOL     OW34611   6.938   1.914   2.030
 7527SOL    HW134612   6.973   1.873   1.946
 7527SOL    HW234613   6.848   1.876   2.050
 7528SOL     OW34614   7.179   2.083   2.744
 7528SOL    HW134615   7.095   2.082   2.798
 7528SOL    HW234616   7.181   2.166   2.688
 7529SOL     OW34617   5.605   2.230   4.371
 7529SOL    HW134618   5.523   2.273   4.410
 7529SOL    HW234619   5.577   2.157   4.308
 7530SOL     OW34620   6.155   3.137   4.889
 7530SOL    HW134621   6.062   3.130   4.852
 7530SOL    HW234622   6.166   3.226   4.933
 7531SOL     OW34623   6.436   2.660   5.547
 7531SOL    HW134624   6.432   2.736   5.612
 7531SOL    HW234625   6.458   2.696   5.456
 7532SOL     OW34626   5.817   3.575   4.207
 7532SOL    HW134627   5.851   3.652   4.261
 7532SOL    HW234628   5.861   3.575   4.117
 7533SOL     OW34629   6.206   3.648   5.163
 7533SOL    HW134630   6.114   3.631   5.198
 7533SOL    HW234631   6.234   3.740   5.189
 7534SOL     OW34632   7.180   1.976   5.204
 7534SOL    HW134633   7.162   2.043   5.132
 7534SOL    HW234634   7.177   2.022   5.293
 7535SOL     OW34635   7.428   3.629   4.083
 7535SOL    HW134636   7.482   3.600   4.163
 7535SOL    HW234637   7.458   3.719   4.054
 7536SOL     OW34638   5.613   3.458   3.841
 7536SOL    HW134639   5.594   3.362   3.862
 7536SOL    HW234640   5.580   3.516   3.916
 7537SOL     OW34641   7.275   2.784   4.336
 7537SOL    HW134642   7.370   2.755   4.344
 7537SOL    HW234643   7.267   2.849   4.261
 7538SOL     OW34644   5.699   2.599   5.321
 7538SOL    HW134645   5.787   2.586   5.366
 7538SOL    HW234646   5.686   2.696   5.299
 7539SOL     OW34647   6.395   1.866   4.226
 7539SOL    HW134648   6.435   1.957   4.217
 7539SOL    HW234649   6.295   1.874   4.232
 7540SOL     OW34650   7.052   3.279   4.677
 7540SOL    HW134651   6.993   3.285   4.757
 7540SOL    HW234652   7.037   3.191   4.631
 7541SOL     OW34653   6.577   2.272   4.966
 7541SOL    HW134654   6.500   2.306   5.020
 7541SOL    HW234655   6.543   2.221   4.887
 7542SOL     OW34656   5.662   2.673   4.513
 7542SOL    HW134657   5.761   2.661   4.522
 7542SOL    HW234658   5.638   2.768   4.534
 7543SOL     OW34659   6.136   2.058   4.609
 7543SOL    HW134660   6.131   2.053   4.709
 7543SOL    HW234661   6.138   2.154   4.580
 7544SOL     OW34662   6.813   3.412   5.230
 7544SOL    HW134663   6.819   3.335   5.294
 7544SOL    HW234664   6.761   3.386   5.150
 7545SOL     OW34665   5.907   2.805   3.966
 7545SOL    HW134666   5.989   2.844   3.924
 7545SOL    HW234667   5.880   2.723   3.917
 7546SOL     OW34668   6.047   3.128   5.451
 7546SOL    HW134669   5.997   3.129   5.365
 7546SOL    HW234670   5.984   3.110   5.527
 7547SOL     OW34671   6.697   3.638   3.961
 7547SOL    HW134672   6.637   3.576   4.011
 7547SOL    HW234673   6.728   3.594   3.876
 7548SOL     OW34674   7.218   3.239   3.805
 7548SOL    HW134675   7.186   3.333   3.795
 7548SOL    HW234676   7.142   3.176   3.793
 7549SOL     OW34677   6.526   3.560   4.628
 7549SOL    HW134678   6.606   3.503   4.649
 7549SOL    HW234679   6.477   3.520   4.551
 7550SOL     OW34680   5.968   2.562   4.204
 7550SOL    HW134681   6.013   2.472   4.201
 7550SOL    HW234682   5.874   2.551   4.237
 7551SOL     OW34683   6.200   1.984   3.841
 7551SOL    HW134684   6.298   1.962   3.848
 7551SOL    HW234685   6.169   1.967   3.748
 7552SOL     OW34686   6.367   2.126   5.473
 7552SOL    HW134687   6.434   2.065   5.516
 7552SOL    HW234688   6.294   2.145   5.538
 7553SOL     OW34689   6.474   3.376   4.919
 7553SOL    HW134690   6.451   3.351   4.825
 7553SOL    HW234691   6.535   3.307   4.958
 7554SOL     OW34692   6.389   3.264   4.648
 7554SOL    HW134693   6.479   3.278   4.606
 7554SOL    HW234694   6.318   3.266   4.577
 7555SOL     OW34695   6.508   2.365   4.623
 7555SOL    HW134696   6.483   2.356   4.527
 7555SOL    HW234697   6.556   2.283   4.654
 7556SOL     OW34698   7.020   3.050   3.765
 7556SOL    HW134699   7.052   2.974   3.822
 7556SOL    HW234700   6.928   3.077   3.795
 7557SOL     OW34701   5.883   1.897   3.895
 7557SOL    HW134702   5.932   1.981   3.874
 7557SOL    HW234703   5.945   1.832   3.940
 7558SOL     OW34704   6.045   3.014   4.465
 7558SOL    HW134705   5.974   2.987   4.530
 7558SOL    HW234706   6.019   2.986   4.372
 7559SOL     OW34707   6.857   3.659   4.315
 7559SOL    HW134708   6.901   3.723   4.251
 7559SOL    HW234709   6.807   3.711   4.385
 7560SOL     OW34710   5.664   2.418   5.110
 7560SOL    HW134711   5.756   2.417   5.069
 7560SOL    HW234712   5.658   2.492   5.177
 7561SOL     OW34713   6.147   2.084   4.871
 7561SOL    HW134714   6.185   2.000   4.908
 7561SOL    HW234715   6.059   2.103   4.915
 7562SOL     OW34716   6.452   2.316   4.366
 7562SOL    HW134717   6.420   2.388   4.304
 7562SOL    HW234718   6.476   2.235   4.313
 7563SOL     OW34719   6.074   3.247   3.898
 7563SOL    HW134720   5.987   3.232   3.945
 7563SOL    HW234721   6.057   3.273   3.803
 7564SOL     OW34722   6.113   2.118   4.052
 7564SOL    HW134723   6.140   2.059   3.977
 7564SOL    HW234724   6.113   2.213   4.021
 7565SOL     OW34725   7.340   3.085   5.312
 7565SOL    HW134726   7.431   3.046   5.299
 7565SOL    HW234727   7.348   3.181   5.336
 7566SOL     OW34728   7.178   3.491   5.349
 7566SOL    HW134729   7.205   3.525   5.259
 7566SOL    HW234730   7.257   3.453   5.395
 7567SOL     OW34731   7.224   2.961   4.803
 7567SOL    HW134732   7.229   3.042   4.862
 7567SOL    HW234733   7.138   2.963   4.752
 7568SOL     OW34734   6.566   2.978   5.443
 7568SOL    HW134735   6.467   2.984   5.453
 7568SOL    HW234736   6.589   2.898   5.387
 7569SOL     OW34737   5.953   2.962   4.225
 7569SOL    HW134738   5.946   3.045   4.169
 7569SOL    HW234739   5.957   2.882   4.165
 7570SOL     OW34740   6.599   1.967   5.494
 7570SOL    HW134741   6.605   2.052   5.442
 7570SOL    HW234742   6.631   1.891   5.437
 7571SOL     OW34743   6.946   2.724   4.769
 7571SOL    HW134744   6.871   2.724   4.703
 7571SOL    HW234745   6.983   2.632   4.778
 7572SOL     OW34746   6.795   2.387   3.999
 7572SOL    HW134747   6.808   2.303   4.053
 7572SOL    HW234748   6.766   2.461   4.059
 7573SOL     OW34749   5.893   2.075   4.955
 7573SOL    HW134750   5.870   2.112   5.045
 7573SOL    HW234751   5.863   1.980   4.949
 7574SOL     OW34752   7.208   2.229   4.098
 7574SOL    HW134753   7.210   2.153   4.162
 7574SOL    HW234754   7.160   2.306   4.138
 7575SOL     OW34755   5.936   2.760   5.528
 7575SOL    HW134756   6.012   2.804   5.576
 7575SOL    HW234757   5.971   2.713   5.446
 7576SOL     OW34758   7.126   2.136   3.849
 7576SOL    HW134759   7.065   2.061   3.872
 7576SOL    HW234760   7.148   2.188   3.932
 7577SOL     OW34761   6.746   2.069   5.201
 7577SOL    HW134762   6.746   2.133   5.278
 7577SOL    HW234763   6.774   2.117   5.118
 7578SOL     OW34764   6.401   2.434   4.049
 7578SOL    HW134765   6.408   2.345   4.003
 7578SOL    HW234766   6.307   2.468   4.041
 7579SOL     OW34767   6.888   2.717   4.033
 7579SOL    HW134768   6.802   2.686   4.075
 7579SOL    HW234769   6.884   2.703   3.934
 7580SOL     OW34770   7.236   3.582   5.118
 7580SOL    HW134771   7.289   3.592   5.034
 7580SOL    HW234772   7.209   3.672   5.152
 7581SOL     OW34773   6.780   3.474   3.755
 7581SOL    HW134774   6.786   3.381   3.792
 7581SOL    HW234775   6.721   3.474   3.675
 7582SOL     OW34776   6.502   2.772   4.015
 7582SOL    HW134777   6.565   2.810   3.947
 7582SOL    HW234778   6.542   2.689   4.054
 7583SOL     OW34779   7.090   3.469   3.768
 7583SOL    HW134780   6.998   3.506   3.775
 7583SOL    HW234781   7.128   3.489   3.678
 7584SOL     OW34782   5.958   3.150   5.214
 7584SOL    HW134783   5.945   3.243   5.180
 7584SOL    HW234784   5.874   3.098   5.201
 7585SOL     OW34785   7.200   3.154   5.013
 7585SOL    HW134786   7.260   3.157   5.093
 7585SOL    HW234787   7.125   3.218   5.026
 7586SOL     OW34788   6.176   3.349   4.215
 7586SOL    HW134789   6.218   3.291   4.145
 7586SOL    HW234790   6.132   3.428   4.171
 7587SOL     OW34791   5.691   2.875   5.450
 7587SOL    HW134792   5.614   2.842   5.504
 7587SOL    HW234793   5.776   2.845   5.492
 7588SOL     OW34794   7.079   3.629   4.683
 7588SOL    HW134795   7.112   3.693   4.614
 7588SOL    HW234796   7.145   3.623   4.758
 7589SOL     OW34797   6.302   2.427   5.432
 7589SOL    HW134798   6.321   2.492   5.506
 7589SOL    HW234799   6.362   2.347   5.441
 7590SOL     OW34800   6.811   2.187   4.173
 7590SOL    HW134801   6.876   2.113   4.162
 7590SOL    HW234802   6.831   2.237   4.257
 7591SOL     OW34803   6.445   3.236   3.740
 7591SOL    HW134804   6.399   3.251   3.828
 7591SOL    HW234805   6.489   3.321   3.710
 7592SOL     OW34806   7.447   3.431   4.575
 7592SOL    HW134807   7.376   3.419   4.505
 7592SOL    HW234808   7.448   3.352   4.635
 7593SOL     OW34809   6.258   3.253   5.348
 7593SOL    HW134810   6.180   3.203   5.386
 7593SOL    HW234811   6.255   3.348   5.379
 7594SOL     OW34812   6.014   2.286   4.244
 7594SOL    HW134813   6.044   2.214   4.182
 7594SOL    HW234814   5.975   2.246   4.327
 7595SOL     OW34815   5.903   2.409   5.004
 7595SOL    HW134816   5.941   2.350   5.076
 7595SOL    HW234817   5.943   2.383   4.916
 7596SOL     OW34818   6.587   1.896   4.878
 7596SOL    HW134819   6.524   1.824   4.847
 7596SOL    HW234820   6.680   1.860   4.878
 7597SOL     OW34821   6.886   2.315   4.415
 7597SOL    HW134822   6.827   2.395   4.419
 7597SOL    HW234823   6.901   2.280   4.508
 7598SOL     OW34824   5.625   2.939   4.024
 7598SOL    HW134825   5.724   2.928   4.015
 7598SOL    HW234826   5.585   2.853   4.056
 7599SOL     OW34827   5.811   2.137   6.582
 7599SOL    HW134828   5.846   2.120   6.674
 7599SOL    HW234829   5.723   2.092   6.570
 7600SOL     OW34830   6.155   3.137   6.751
 7600SOL    HW134831   6.062   3.130   6.714
 7600SOL    HW234832   6.166   3.226   6.795
 7601SOL     OW34833   6.721   2.565   6.303
 7601SOL    HW134834   6.778   2.643   6.278
 7601SOL    HW234835   6.661   2.591   6.379
 7602SOL     OW34836   6.354   3.006   6.609
 7602SOL    HW134837   6.276   3.023   6.669
 7602SOL    HW234838   6.388   3.093   6.573
 7603SOL     OW34839   6.271   2.874   6.251
 7603SOL    HW134840   6.340   2.858   6.321
 7603SOL    HW234841   6.198   2.931   6.289
 7604SOL     OW34842   5.921   3.297   6.647
 7604SOL    HW134843   5.843   3.266   6.594
 7604SOL    HW234844   5.979   3.355   6.590
 7605SOL     OW34845   7.046   3.367   6.925
 7605SOL    HW134846   7.070   3.461   6.951
 7605SOL    HW234847   7.030   3.313   7.007
 7606SOL     OW34848   6.024   2.254   7.085
 7606SOL    HW134849   6.106   2.198   7.094
 7606SOL    HW234850   5.943   2.196   7.089
 7607SOL     OW34851   7.189   2.309   6.323
 7607SOL    HW134852   7.115   2.355   6.273
 7607SOL    HW234853   7.240   2.377   6.376
 7608SOL     OW34854   5.826   2.953   6.472
 7608SOL    HW134855   5.840   2.869   6.524
 7608SOL    HW234856   5.771   3.017   6.527
 7609SOL     OW34857   6.206   3.648   7.025
 7609SOL    HW134858   6.114   3.631   7.060
 7609SOL    HW234859   6.234   3.740   7.051
 7610SOL     OW34860   6.192   2.826   5.709
 7610SOL    HW134861   6.199   2.910   5.655
 7610SOL    HW234862   6.238   2.839   5.797
 7611SOL     OW34863   7.180   1.976   7.066
 7611SOL    HW134864   7.162   2.043   6.994
 7611SOL    HW234865   7.177   2.022   7.155
 7612SOL     OW34866   5.708   2.505   6.149
 7612SOL    HW134867   5.663   2.417   6.166
 7612SOL    HW234868   5.707   2.559   6.233
 7613SOL     OW34869   6.395   1.866   6.088
 7613SOL    HW134870   6.435   1.957   6.079
 7613SOL    HW234871   6.295   1.874   6.094
 7614SOL     OW34872   5.783   2.838   6.850
 7614SOL    HW134873   5.872   2.793   6.836
 7614SOL    HW234874   5.710   2.773   6.831
 7615SOL     OW34875   7.111   2.861   5.776
 7615SOL    HW134876   7.048   2.785   5.789
 7615SOL    HW234877   7.159   2.879   5.862
 7616SOL     OW34878   7.052   3.279   6.539
 7616SOL    HW134879   6.993   3.285   6.619
 7616SOL    HW234880   7.037   3.191   6.493
 7617SOL     OW34881   6.184   2.591   5.856
 7617SOL    HW134882   6.208   2.660   5.788
 7617SOL    HW234883   6.106   2.624   5.910
 7618SOL     OW34884   6.867   2.207   6.530
 7618SOL    HW134885   6.781   2.157   6.517
 7618SOL    HW234886   6.929   2.153   6.586
 7619SOL     OW34887   6.393   2.467   7.051
 7619SOL    HW134888   6.346   2.464   7.140
 7619SOL    HW234889   6.342   2.412   6.985
 7620SOL     OW34890   6.577   2.272   6.828
 7620SOL    HW134891   6.500   2.306   6.882
 7620SOL    HW234892   6.543   2.221   6.749
 7621SOL     OW34893   5.662   2.673   6.375
 7621SOL    HW134894   5.761   2.661   6.384
 7621SOL    HW234895   5.638   2.768   6.396
 7622SOL     OW34896   5.716   3.683   7.157
 7622SOL    HW134897   5.706   3.668   7.256
 7622SOL    HW234898   5.630   3.719   7.121
 7623SOL     OW34899   6.451   2.210   5.781
 7623SOL    HW134900   6.510   2.273   5.732
 7623SOL    HW234901   6.470   2.116   5.752
 7624SOL     OW34902   6.948   3.006   6.131
 7624SOL    HW134903   7.031   2.977   6.083
 7624SOL    HW234904   6.899   3.073   6.075
 7625SOL     OW34905   6.136   2.058   6.471
 7625SOL    HW134906   6.131   2.053   6.571
 7625SOL    HW234907   6.138   2.154   6.442
 7626SOL     OW34908   6.594   3.318   6.063
 7626SOL    HW134909   6.548   3.390   6.011
 7626SOL    HW234910   6.590   3.338   6.161
 7627SOL     OW34911   5.937   3.663   6.439
 7627SOL    HW134912   5.987   3.577   6.445
 7627SOL    HW234913   6.002   3.740   6.436
 7628SOL     OW34914   7.381   2.928   6.459
 7628SOL    HW134915   7.319   2.913   6.383
 7628SOL    HW234916   7.329   2.939   6.544
 7629SOL     OW34917   5.907   2.805   5.828
 7629SOL    HW134918   5.989   2.844   5.786
 7629SOL    HW234919   5.880   2.723   5.779
 7630SOL     OW34920   5.788   2.147   7.084
 7630SOL    HW134921   5.708   2.207   7.071
 7630SOL    HW234922   5.778   2.098   7.170
 7631SOL     OW34923   7.218   3.239   5.667
 7631SOL    HW134924   7.186   3.333   5.657
 7631SOL    HW234925   7.142   3.176   5.655
 7632SOL     OW34926   5.835   3.647   6.827
 7632SOL    HW134927   5.892   3.582   6.877
 7632SOL    HW234928   5.819   3.614   6.734
 7633SOL     OW34929   6.526   3.560   6.490
 7633SOL    HW134930   6.606   3.503   6.511
 7633SOL    HW234931   6.477   3.520   6.413
 7634SOL     OW34932   5.968   2.562   6.066
 7634SOL    HW134933   6.013   2.472   6.063
 7634SOL    HW234934   5.874   2.551   6.099
 7635SOL     OW34935   6.200   1.984   5.703
 7635SOL    HW134936   6.298   1.962   5.710
 7635SOL    HW234937   6.169   1.967   5.610
 7636SOL     OW34938   6.474   3.376   6.781
 7636SOL    HW134939   6.451   3.351   6.687
 7636SOL    HW234940   6.535   3.307   6.820
 7637SOL     OW34941   6.389   3.264   6.510
 7637SOL    HW134942   6.479   3.278   6.468
 7637SOL    HW234943   6.318   3.266   6.439
 7638SOL     OW34944   6.508   2.365   6.485
 7638SOL    HW134945   6.483   2.356   6.389
 7638SOL    HW234946   6.556   2.283   6.516
 7639SOL     OW34947   6.125   1.926   6.098
 7639SOL    HW134948   6.044   1.927   6.156
 7639SOL    HW234949   6.128   2.009   6.043
 7640SOL     OW34950   7.020   3.050   5.627
 7640SOL    HW134951   7.052   2.974   5.684
 7640SOL    HW234952   6.928   3.077   5.657
 7641SOL     OW34953   5.883   1.897   5.757
 7641SOL    HW134954   5.932   1.981   5.736
 7641SOL    HW234955   5.945   1.832   5.802
 7642SOL     OW34956   6.521   2.098   6.066
 7642SOL    HW134957   6.473   2.139   5.988
 7642SOL    HW234958   6.620   2.096   6.047
 7643SOL     OW34959   6.813   3.432   6.379
 7643SOL    HW134960   6.834   3.506   6.314
 7643SOL    HW234961   6.881   3.432   6.452
 7644SOL     OW34962   6.045   3.014   6.327
 7644SOL    HW134963   5.974   2.987   6.392
 7644SOL    HW234964   6.019   2.986   6.234
 7645SOL     OW34965   6.857   3.659   6.177
 7645SOL    HW134966   6.901   3.723   6.113
 7645SOL    HW234967   6.807   3.711   6.247
 7646SOL     OW34968   5.664   2.418   6.972
 7646SOL    HW134969   5.756   2.417   6.931
 7646SOL    HW234970   5.658   2.492   7.039
 7647SOL     OW34971   6.147   2.084   6.733
 7647SOL    HW134972   6.185   2.000   6.770
 7647SOL    HW234973   6.059   2.103   6.777
 7648SOL     OW34974   6.452   2.316   6.228
 7648SOL    HW134975   6.420   2.388   6.166
 7648SOL    HW234976   6.476   2.235   6.175
 7649SOL     OW34977   6.603   1.901   6.339
 7649SOL    HW134978   6.531   1.906   6.270
 7649SOL    HW234979   6.579   1.832   6.408
 7650SOL     OW34980   7.015   3.035   6.453
 7650SOL    HW134981   6.960   2.951   6.446
 7650SOL    HW234982   7.041   3.064   6.361
 7651SOL     OW34983   7.052   2.452   6.578
 7651SOL    HW134984   7.022   2.357   6.585
 7651SOL    HW234985   7.125   2.468   6.644
 7652SOL     OW34986   7.443   2.695   5.963
 7652SOL    HW134987   7.485   2.631   6.027
 7652SOL    HW234988   7.405   2.644   5.885
 7653SOL     OW34989   6.074   3.247   5.760
 7653SOL    HW134990   5.987   3.232   5.807
 7653SOL    HW234991   6.057   3.273   5.665
 7654SOL     OW34992   7.250   3.142   6.243
 7654SOL    HW134993   7.349   3.150   6.257
 7654SOL    HW234994   7.205   3.226   6.274
 7655SOL     OW34995   6.113   2.118   5.914
 7655SOL    HW134996   6.140   2.059   5.839
 7655SOL    HW234997   6.113   2.213   5.883
 7656SOL     OW34998   6.650   3.209   6.926
 7656SOL    HW134999   6.570   3.186   6.981
 7656SOL    HW235000   6.733   3.183   6.975
 7657SOL     OW35001   6.697   3.057   6.686
 7657SOL    HW135002   6.657   3.101   6.767
 7657SOL    HW235003   6.656   3.094   6.603
 7658SOL     OW35004   7.224   2.961   6.665
 7658SOL    HW135005   7.229   3.042   6.724
 7658SOL    HW235006   7.138   2.963   6.614
 7659SOL     OW35007   6.501   1.951   6.988
 7659SOL    HW135008   6.526   1.931   6.893
 7659SOL    HW235009   6.573   2.007   7.030
 7660SOL     OW35010   6.291   2.912   5.954
 7660SOL    HW135011   6.277   2.919   6.053
 7660SOL    HW235012   6.375   2.861   5.936
 7661SOL     OW35013   5.996   2.675   6.837
 7661SOL    HW135014   6.082   2.687   6.887
 7661SOL    HW235015   5.954   2.588   6.864
 7662SOL     OW35016   6.860   2.248   6.848
 7662SOL    HW135017   6.881   2.322   6.912
 7662SOL    HW235018   6.771   2.265   6.805
 7663SOL     OW35019   5.650   3.426   6.917
 7663SOL    HW135020   5.604   3.508   6.883
 7663SOL    HW235021   5.748   3.445   6.926
 7664SOL     OW35022   5.953   2.962   6.087
 7664SOL    HW135023   5.946   3.045   6.031
 7664SOL    HW235024   5.957   2.882   6.027
 7665SOL     OW35025   6.152   2.399   6.451
 7665SOL    HW135026   6.164   2.465   6.377
 7665SOL    HW235027   6.198   2.433   6.534
 7666SOL     OW35028   6.838   3.210   5.974
 7666SOL    HW135029   6.888   3.287   6.014
 7666SOL    HW235030   6.743   3.212   6.006
 7667SOL     OW35031   6.858   3.307   6.728
 7667SOL    HW135032   6.905   3.320   6.815
 7667SOL    HW235033   6.792   3.233   6.737
 7668SOL     OW35034   5.940   3.372   6.915
 7668SOL    HW135035   5.919   3.328   6.828
 7668SOL    HW235036   6.037   3.398   6.918
 7669SOL     OW35037   5.988   2.613   7.184
 7669SOL    HW135038   6.056   2.668   7.137
 7669SOL    HW235039   6.028   2.525   7.211
 7670SOL     OW35040   7.173   2.641   7.256
 7670SOL    HW135041   7.081   2.679   7.251
 7670SOL    HW235042   7.233   2.688   7.191
 7671SOL     OW35043   6.159   2.732   6.615
 7671SOL    HW135044   6.203   2.821   6.606
 7671SOL    HW235045   6.096   2.732   6.692
 7672SOL     OW35046   6.946   2.724   6.631
 7672SOL    HW135047   6.871   2.724   6.565
 7672SOL    HW235048   6.983   2.632   6.640
 7673SOL     OW35049   5.893   2.075   6.817
 7673SOL    HW135050   5.870   2.112   6.907
 7673SOL    HW235051   5.863   1.980   6.811
 7674SOL     OW35052   5.623   3.172   6.868
 7674SOL    HW135053   5.676   3.123   6.936
 7674SOL    HW235054   5.645   3.270   6.873
 7675SOL     OW35055   6.318   2.496   6.650
 7675SOL    HW135056   6.377   2.470   6.574
 7675SOL    HW235057   6.290   2.592   6.639
 7676SOL     OW35058   6.609   2.628   6.552
 7676SOL    HW135059   6.624   2.649   6.648
 7676SOL    HW235060   6.579   2.533   6.543
 7677SOL     OW35061   6.566   3.435   7.286
 7677SOL    HW135062   6.546   3.479   7.198
 7677SOL    HW235063   6.605   3.344   7.270
 7678SOL     OW35064   6.654   3.195   6.435
 7678SOL    HW135065   6.661   3.111   6.380
 7678SOL    HW235066   6.716   3.264   6.399
 7679SOL     OW35067   5.905   2.672   6.535
 7679SOL    HW135068   5.998   2.708   6.540
 7679SOL    HW235069   5.899   2.587   6.587
 7680SOL     OW35070   5.925   2.371   6.592
 7680SOL    HW135071   5.873   2.288   6.575
 7680SOL    HW235072   6.002   2.376   6.528
 7681SOL     OW35073   6.724   2.242   7.264
 7681SOL    HW135074   6.679   2.305   7.328
 7681SOL    HW235075   6.817   2.273   7.247
 7682SOL     OW35076   6.746   2.069   7.063
 7682SOL    HW135077   6.746   2.133   7.140
 7682SOL    HW235078   6.774   2.117   6.980
 7683SOL     OW35079   5.674   3.663   6.513
 7683SOL    HW135080   5.632   3.577   6.486
 7683SOL    HW235081   5.768   3.666   6.479
 7684SOL     OW35082   6.090   3.430   6.496
 7684SOL    HW135083   6.156   3.504   6.505
 7684SOL    HW235084   6.134   3.351   6.454
 7685SOL     OW35085   6.588   2.658   6.824
 7685SOL    HW135086   6.629   2.626   6.910
 7685SOL    HW235087   6.492   2.631   6.821
 7686SOL     OW35088   5.626   2.406   6.700
 7686SOL    HW135089   5.711   2.373   6.659
 7686SOL    HW235090   5.639   2.421   6.798
 7687SOL     OW35091   6.401   2.434   5.911
 7687SOL    HW135092   6.408   2.345   5.865
 7687SOL    HW235093   6.307   2.468   5.903
 7688SOL     OW35094   7.243   2.466   6.792
 7688SOL    HW135095   7.205   2.397   6.854
 7688SOL    HW235096   7.325   2.430   6.748
 7689SOL     OW35097   6.257   2.326   6.855
 7689SOL    HW135098   6.223   2.237   6.825
 7689SOL    HW235099   6.283   2.380   6.775
 7690SOL     OW35100   6.516   3.540   7.051
 7690SOL    HW135101   6.492   3.522   6.956
 7690SOL    HW235102   6.546   3.634   7.061
 7691SOL     OW35103   6.059   2.362   5.777
 7691SOL    HW135104   6.120   2.442   5.781
 7691SOL    HW235105   5.964   2.393   5.784
 7692SOL     OW35106   5.745   2.999   7.052
 7692SOL    HW135107   5.767   2.938   7.128
 7692SOL    HW235108   5.755   2.950   6.966
 7693SOL     OW35109   6.933   2.921   6.820
 7693SOL    HW135110   6.957   2.858   6.746
 7693SOL    HW235111   6.843   2.961   6.802
 7694SOL     OW35112   7.345   3.609   6.740
 7694SOL    HW135113   7.406   3.639   6.667
 7694SOL    HW235114   7.307   3.520   6.718
 7695SOL     OW35115   6.838   3.593   6.714
 7695SOL    HW135116   6.922   3.598   6.660
 7695SOL    HW235117   6.815   3.497   6.732
 7696SOL     OW35118   5.669   3.120   6.608
 7696SOL    HW135119   5.664   3.119   6.708
 7696SOL    HW235120   5.586   3.079   6.570
 7697SOL     OW35121   7.312   1.997   6.109
 7697SOL    HW135122   7.385   1.980   6.042
 7697SOL    HW235123   7.281   1.910   6.147
 7698SOL     OW35124   6.866   2.789   6.258
 7698SOL    HW135125   6.926   2.708   6.260
 7698SOL    HW235126   6.906   2.858   6.198
 7699SOL     OW35127   7.236   3.582   6.980
 7699SOL    HW135128   7.289   3.592   6.896
 7699SOL    HW235129   7.209   3.672   7.014
 7700SOL     OW35130   7.427   2.037   6.549
 7700SOL    HW135131   7.466   1.952   6.513
 7700SOL    HW235132   7.329   2.039   6.530
 7701SOL     OW35133   5.849   2.188   6.306
 7701SOL    HW135134   5.770   2.239   6.272
 7701SOL    HW235135   5.840   2.173   6.404
 7702SOL     OW35136   6.408   2.864   6.958
 7702SOL    HW135137   6.448   2.863   6.866
 7702SOL    HW235138   6.418   2.956   6.998
 7703SOL     OW35139   6.502   2.772   5.877
 7703SOL    HW135140   6.565   2.810   5.809
 7703SOL    HW235141   6.542   2.689   5.916
 7704SOL     OW35142   5.958   3.150   7.076
 7704SOL    HW135143   5.945   3.243   7.042
 7704SOL    HW235144   5.874   3.098   7.063
 7705SOL     OW35145   7.200   3.154   6.875
 7705SOL    HW135146   7.260   3.157   6.955
 7705SOL    HW235147   7.125   3.218   6.888
 7706SOL     OW35148   6.625   2.960   6.282
 7706SOL    HW135149   6.555   2.913   6.336
 7706SOL    HW235150   6.684   2.892   6.239
 7707SOL     OW35151   6.600   2.098   6.557
 7707SOL    HW135152   6.592   2.062   6.464
 7707SOL    HW235153   6.598   2.022   6.622
 7708SOL     OW35154   7.295   2.247   6.967
 7708SOL    HW135155   7.368   2.316   6.971
 7708SOL    HW235156   7.323   2.172   6.908
 7709SOL     OW35157   7.026   2.718   6.984
 7709SOL    HW135158   6.969   2.770   6.921
 7709SOL    HW235159   7.122   2.730   6.960
 7710SOL     OW35160   6.769   3.197   5.705
 7710SOL    HW135161   6.670   3.186   5.707
 7710SOL    HW235162   6.803   3.212   5.798
 7711SOL     OW35163   6.199   2.704   7.017
 7711SOL    HW135164   6.255   2.785   7.000
 7711SOL    HW235165   6.258   2.624   7.020
 7712SOL     OW35166   7.079   3.629   6.545
 7712SOL    HW135167   7.112   3.693   6.476
 7712SOL    HW235168   7.145   3.623   6.620
 7713SOL     OW35169   5.976   3.603   7.146
 7713SOL    HW135170   5.885   3.644   7.144
 7713SOL    HW235171   5.969   3.509   7.178
 7714SOL     OW35172   7.260   2.745   6.840
 7714SOL    HW135173   7.233   2.656   6.803
 7714SOL    HW235174   7.261   2.813   6.767
 7715SOL     OW35175   6.180   2.607   6.238
 7715SOL    HW135176   6.230   2.692   6.219
 7715SOL    HW235177   6.092   2.609   6.190
 7716SOL     OW35178   7.363   2.204   7.228
 7716SOL    HW135179   7.346   2.235   7.134
 7716SOL    HW235180   7.279   2.167   7.266
 7717SOL     OW35181   7.316   2.796   7.103
 7717SOL    HW135182   7.354   2.887   7.118
 7717SOL    HW235183   7.308   2.779   7.004
 7718SOL     OW35184   6.247   3.652   6.539
 7718SOL    HW135185   6.201   3.740   6.526
 7718SOL    HW235186   6.346   3.664   6.532
 7719SOL     OW35187   6.445   2.818   6.447
 7719SOL    HW135188   6.499   2.749   6.495
 7719SOL    HW235189   6.413   2.887   6.513
 7720SOL     OW35190   7.447   3.431   6.437
 7720SOL    HW135191   7.376   3.419   6.367
 7720SOL    HW235192   7.448   3.352   6.497
 7721SOL     OW35193   5.665   3.102   6.239
 7721SOL    HW135194   5.664   3.055   6.327
 7721SOL    HW235195   5.747   3.074   6.188
 7722SOL     OW35196   7.410   2.054   6.813
 7722SOL    HW135197   7.406   1.964   6.857
 7722SOL    HW235198   7.413   2.043   6.714
 7723SOL     OW35199   6.014   2.286   6.106
 7723SOL    HW135200   6.044   2.214   6.044
 7723SOL    HW235201   5.975   2.246   6.189
 7724SOL     OW35202   7.291   3.349   6.690
 7724SOL    HW135203   7.198   3.324   6.663
 7724SOL    HW235204   7.317   3.299   6.772
 7725SOL     OW35205   5.903   2.409   6.866
 7725SOL    HW135206   5.941   2.350   6.938
 7725SOL    HW235207   5.943   2.383   6.778
 7726SOL     OW35208   6.398   3.448   6.273
 7726SOL    HW135209   6.430   3.458   6.179
 7726SOL    HW235210   6.319   3.386   6.275
 7727SOL     OW35211   7.010   2.076   6.698
 7727SOL    HW135212   7.062   2.011   6.753
 7727SOL    HW235213   6.961   2.139   6.759
 7728SOL     OW35214   6.587   1.896   6.740
 7728SOL    HW135215   6.524   1.824   6.709
 7728SOL    HW235216   6.680   1.860   6.740
 7729SOL     OW35217   6.356   3.192   5.887
 7729SOL    HW135218   6.310   3.105   5.904
 7729SOL    HW235219   6.447   3.189   5.928
 7730SOL     OW35220   6.204   3.429   6.870
 7730SOL    HW135221   6.199   3.511   6.927
 7730SOL    HW235222   6.293   3.426   6.825
 7731SOL     OW35223   6.938   1.914   5.754
 7731SOL    HW135224   6.973   1.873   5.670
 7731SOL    HW235225   6.848   1.876   5.774
 7732SOL     OW35226   6.886   2.315   6.277
 7732SOL    HW135227   6.827   2.395   6.281
 7732SOL    HW235228   6.901   2.280   6.370
 7733SOL     OW35229   7.179   2.083   6.468
 7733SOL    HW135230   7.095   2.082   6.522
 7733SOL    HW235231   7.181   2.166   6.412
 7734SOL     OW35232   5.625   2.939   5.886
 7734SOL    HW135233   5.724   2.928   5.877
 7734SOL    HW235234   5.585   2.853   5.918
 7735SOL     OW35235   6.461   3.508   5.923
 7735SOL    HW135236   6.384   3.473   5.869
 7735SOL    HW235237   6.429   3.579   5.985
 7736SOL     OW35238   5.816   4.352   0.113
 7736SOL    HW135239   5.723   4.350   0.150
 7736SOL    HW235240   5.817   4.313   0.021
 7737SOL     OW35241   5.811   3.999   0.996
 7737SOL    HW135242   5.846   3.982   1.088
 7737SOL    HW235243   5.723   3.954   0.984
 7738SOL     OW35244   5.605   4.092   0.647
 7738SOL    HW135245   5.523   4.135   0.686
 7738SOL    HW235246   5.577   4.019   0.584
 7739SOL     OW35247   7.141   5.235   0.703
 7739SOL    HW135248   7.084   5.219   0.784
 7739SOL    HW235249   7.082   5.245   0.623
 7740SOL     OW35250   6.721   4.427   0.717
 7740SOL    HW135251   6.778   4.505   0.692
 7740SOL    HW235252   6.661   4.453   0.793
 7741SOL     OW35253   7.341   4.331   0.231
 7741SOL    HW135254   7.329   4.318   0.132
 7741SOL    HW235255   7.311   4.250   0.280
 7742SOL     OW35256   6.354   4.868   1.023
 7742SOL    HW135257   6.276   4.885   1.083
 7742SOL    HW235258   6.388   4.955   0.987
 7743SOL     OW35259   6.271   4.736   0.665
 7743SOL    HW135260   6.340   4.720   0.735
 7743SOL    HW235261   6.198   4.793   0.703
 7744SOL     OW35262   5.921   5.159   1.061
 7744SOL    HW135263   5.843   5.128   1.008
 7744SOL    HW235264   5.979   5.217   1.004
 7745SOL     OW35265   7.046   5.229   1.339
 7745SOL    HW135266   7.070   5.323   1.365
 7745SOL    HW235267   7.030   5.175   1.421
 7746SOL     OW35268   6.024   4.116   1.499
 7746SOL    HW135269   6.106   4.060   1.508
 7746SOL    HW235270   5.943   4.058   1.503
 7747SOL     OW35271   7.189   4.171   0.737
 7747SOL    HW135272   7.115   4.217   0.687
 7747SOL    HW235273   7.240   4.239   0.790
 7748SOL     OW35274   5.817   5.437   0.483
 7748SOL    HW135275   5.851   5.514   0.537
 7748SOL    HW235276   5.861   5.437   0.393
 7749SOL     OW35277   5.816   5.158   0.538
 7749SOL    HW135278   5.790   5.254   0.538
 7749SOL    HW235279   5.745   5.104   0.583
 7750SOL     OW35280   5.826   4.815   0.886
 7750SOL    HW135281   5.840   4.731   0.938
 7750SOL    HW235282   5.771   4.879   0.941
 7751SOL     OW35283   6.206   5.510   1.439
 7751SOL    HW135284   6.114   5.493   1.474
 7751SOL    HW235285   6.234   5.602   1.465
 7752SOL     OW35286   6.192   4.688   0.123
 7752SOL    HW135287   6.199   4.772   0.069
 7752SOL    HW235288   6.238   4.701   0.211
 7753SOL     OW35289   7.180   3.838   1.480
 7753SOL    HW135290   7.162   3.905   1.408
 7753SOL    HW235291   7.177   3.884   1.569
 7754SOL     OW35292   5.708   4.367   0.563
 7754SOL    HW135293   5.663   4.279   0.580
 7754SOL    HW235294   5.707   4.421   0.647
 7755SOL     OW35295   7.428   5.491   0.359
 7755SOL    HW135296   7.482   5.462   0.439
 7755SOL    HW235297   7.458   5.581   0.330
 7756SOL     OW35298   5.613   5.320   0.117
 7756SOL    HW135299   5.594   5.224   0.138
 7756SOL    HW235300   5.580   5.378   0.192
 7757SOL     OW35301   7.275   4.646   0.612
 7757SOL    HW135302   7.370   4.617   0.620
 7757SOL    HW235303   7.267   4.711   0.537
 7758SOL     OW35304   7.227   4.832   0.432
 7758SOL    HW135305   7.313   4.834   0.380
 7758SOL    HW235306   7.241   4.879   0.520
 7759SOL     OW35307   5.699   4.461   1.597
 7759SOL    HW135308   5.787   4.448   1.642
 7759SOL    HW235309   5.686   4.558   1.575
 7760SOL     OW35310   6.199   5.089   0.726
 7760SOL    HW135311   6.150   5.002   0.735
 7760SOL    HW235312   6.176   5.132   0.639
 7761SOL     OW35313   6.395   3.728   0.502
 7761SOL    HW135314   6.435   3.819   0.493
 7761SOL    HW235315   6.295   3.736   0.508
 7762SOL     OW35316   5.783   4.700   1.264
 7762SOL    HW135317   5.872   4.655   1.250
 7762SOL    HW235318   5.710   4.635   1.245
 7763SOL     OW35319   7.111   4.723   0.190
 7763SOL    HW135320   7.048   4.647   0.203
 7763SOL    HW235321   7.159   4.741   0.276
 7764SOL     OW35322   7.052   5.141   0.953
 7764SOL    HW135323   6.993   5.147   1.033
 7764SOL    HW235324   7.037   5.053   0.907
 7765SOL     OW35325   7.253   5.438   0.572
 7765SOL    HW135326   7.212   5.415   0.484
 7765SOL    HW235327   7.235   5.364   0.637
 7766SOL     OW35328   6.184   4.453   0.270
 7766SOL    HW135329   6.208   4.522   0.202
 7766SOL    HW235330   6.106   4.486   0.324
 7767SOL     OW35331   6.867   4.069   0.944
 7767SOL    HW135332   6.781   4.019   0.931
 7767SOL    HW235333   6.929   4.015   1.000
 7768SOL     OW35334   7.162   5.386   0.307
 7768SOL    HW135335   7.251   5.432   0.310
 7768SOL    HW235336   7.141   5.362   0.212
 7769SOL     OW35337   6.393   4.329   1.465
 7769SOL    HW135338   6.346   4.326   1.554
 7769SOL    HW235339   6.342   4.274   1.399
 7770SOL     OW35340   6.980   4.193   1.674
 7770SOL    HW135341   6.960   4.236   1.762
 7770SOL    HW235342   7.058   4.131   1.683
 7771SOL     OW35343   6.559   4.614   1.572
 7771SOL    HW135344   6.605   4.530   1.543
 7771SOL    HW235345   6.503   4.648   1.497
 7772SOL     OW35346   6.577   4.134   1.242
 7772SOL    HW135347   6.500   4.168   1.296
 7772SOL    HW235348   6.543   4.083   1.163
 7773SOL     OW35349   6.627   4.425   0.429
 7773SOL    HW135350   6.653   4.421   0.525
 7773SOL    HW235351   6.542   4.374   0.415
 7774SOL     OW35352   5.662   4.535   0.789
 7774SOL    HW135353   5.761   4.523   0.798
 7774SOL    HW235354   5.638   4.630   0.810
 7775SOL     OW35355   6.451   4.072   0.195
 7775SOL    HW135356   6.510   4.135   0.146
 7775SOL    HW235357   6.470   3.978   0.166
 7776SOL     OW35358   7.305   4.309   1.831
 7776SOL    HW135359   7.279   4.398   1.795
 7776SOL    HW235360   7.303   4.241   1.758
 7777SOL     OW35361   6.948   4.868   0.545
 7777SOL    HW135362   7.031   4.839   0.497
 7777SOL    HW235363   6.899   4.935   0.489
 7778SOL     OW35364   6.136   3.920   0.885
 7778SOL    HW135365   6.131   3.915   0.985
 7778SOL    HW235366   6.138   4.016   0.856
 7779SOL     OW35367   6.594   5.180   0.477
 7779SOL    HW135368   6.548   5.252   0.425
 7779SOL    HW235369   6.590   5.200   0.575
 7780SOL     OW35370   5.937   5.525   0.853
 7780SOL    HW135371   5.987   5.439   0.859
 7780SOL    HW235372   6.002   5.602   0.850
 7781SOL     OW35373   7.381   4.790   0.873
 7781SOL    HW135374   7.319   4.775   0.797
 7781SOL    HW235375   7.329   4.801   0.958
 7782SOL     OW35376   6.813   5.274   1.506
 7782SOL    HW135377   6.819   5.197   1.570
 7782SOL    HW235378   6.761   5.248   1.426
 7783SOL     OW35379   5.907   4.667   0.242
 7783SOL    HW135380   5.989   4.706   0.200
 7783SOL    HW235381   5.880   4.585   0.193
 7784SOL     OW35382   7.044   4.459   0.728
 7784SOL    HW135383   7.039   4.394   0.803
 7784SOL    HW235384   7.124   4.518   0.741
 7785SOL     OW35385   6.697   5.500   0.237
 7785SOL    HW135386   6.637   5.438   0.287
 7785SOL    HW235387   6.728   5.456   0.152
 7786SOL     OW35388   5.788   4.009   1.498
 7786SOL    HW135389   5.708   4.069   1.485
 7786SOL    HW235390   5.778   3.960   1.584
 7787SOL     OW35391   7.218   5.101   0.081
 7787SOL    HW135392   7.186   5.195   0.071
 7787SOL    HW235393   7.142   5.038   0.069
 7788SOL     OW35394   6.050   5.467   0.323
 7788SOL    HW135395   6.083   5.506   0.409
 7788SOL    HW235396   6.126   5.460   0.258
 7789SOL     OW35397   6.986   3.831   0.426
 7789SOL    HW135398   6.962   3.794   0.336
 7789SOL    HW235399   7.085   3.847   0.430
 7790SOL     OW35400   5.835   5.509   1.241
 7790SOL    HW135401   5.892   5.444   1.291
 7790SOL    HW235402   5.819   5.476   1.148
 7791SOL     OW35403   6.526   5.422   0.904
 7791SOL    HW135404   6.606   5.365   0.925
 7791SOL    HW235405   6.477   5.382   0.827
 7792SOL     OW35406   5.968   4.424   0.480
 7792SOL    HW135407   6.013   4.334   0.477
 7792SOL    HW235408   5.874   4.413   0.513
 7793SOL     OW35409   7.133   3.946   1.729
 7793SOL    HW135410   7.128   3.983   1.821
 7793SOL    HW235411   7.061   3.877   1.717
 7794SOL     OW35412   6.200   3.846   0.117
 7794SOL    HW135413   6.298   3.824   0.124
 7794SOL    HW235414   6.169   3.829   0.024
 7795SOL     OW35415   6.937   4.314   1.433
 7795SOL    HW135416   6.965   4.271   1.518
 7795SOL    HW235417   6.962   4.410   1.434
 7796SOL     OW35418   6.389   5.126   0.924
 7796SOL    HW135419   6.479   5.140   0.882
 7796SOL    HW235420   6.318   5.128   0.853
 7797SOL     OW35421   6.508   4.227   0.899
 7797SOL    HW135422   6.483   4.218   0.803
 7797SOL    HW235423   6.556   4.145   0.930
 7798SOL     OW35424   6.125   3.788   0.512
 7798SOL    HW135425   6.044   3.789   0.570
 7798SOL    HW235426   6.128   3.871   0.457
 7799SOL     OW35427   7.020   4.912   0.041
 7799SOL    HW135428   7.052   4.836   0.098
 7799SOL    HW235429   6.928   4.939   0.071
 7800SOL     OW35430   5.883   3.759   0.171
 7800SOL    HW135431   5.932   3.843   0.150
 7800SOL    HW235432   5.945   3.694   0.216
 7801SOL     OW35433   6.521   3.960   0.480
 7801SOL    HW135434   6.473   4.001   0.402
 7801SOL    HW235435   6.620   3.958   0.461
 7802SOL     OW35436   6.662   4.407   1.464
 7802SOL    HW135437   6.582   4.346   1.467
 7802SOL    HW235438   6.743   4.354   1.440
 7803SOL     OW35439   6.813   5.294   0.793
 7803SOL    HW135440   6.834   5.368   0.728
 7803SOL    HW235441   6.881   5.294   0.866
 7804SOL     OW35442   6.045   4.876   0.741
 7804SOL    HW135443   5.974   4.849   0.806
 7804SOL    HW235444   6.019   4.848   0.648
 7805SOL     OW35445   6.857   5.521   0.591
 7805SOL    HW135446   6.901   5.585   0.527
 7805SOL    HW235447   6.807   5.573   0.661
 7806SOL     OW35448   6.618   4.273   0.016
 7806SOL    HW135449   6.577   4.355  -0.023
 7806SOL    HW235450   6.682   4.299   0.089
 7807SOL     OW35451   5.664   4.280   1.386
 7807SOL    HW135452   5.756   4.279   1.345
 7807SOL    HW235453   5.658   4.354   1.453
 7808SOL     OW35454   6.147   3.946   1.147
 7808SOL    HW135455   6.185   3.862   1.184
 7808SOL    HW235456   6.059   3.965   1.191
 7809SOL     OW35457   6.452   4.178   0.642
 7809SOL    HW135458   6.420   4.250   0.580
 7809SOL    HW235459   6.476   4.097   0.589
 7810SOL     OW35460   6.603   3.763   0.753
 7810SOL    HW135461   6.531   3.768   0.684
 7810SOL    HW235462   6.579   3.694   0.822
 7811SOL     OW35463   7.015   4.897   0.867
 7811SOL    HW135464   6.960   4.813   0.860
 7811SOL    HW235465   7.041   4.926   0.775
 7812SOL     OW35466   7.052   4.314   0.992
 7812SOL    HW135467   7.022   4.219   0.999
 7812SOL    HW235468   7.125   4.330   1.058
 7813SOL     OW35469   7.443   4.557   0.377
 7813SOL    HW135470   7.485   4.493   0.441
 7813SOL    HW235471   7.405   4.506   0.299
 7814SOL     OW35472   6.074   5.109   0.174
 7814SOL    HW135473   5.987   5.094   0.221
 7814SOL    HW235474   6.057   5.135   0.079
 7815SOL     OW35475   7.250   5.004   0.657
 7815SOL    HW135476   7.349   5.012   0.671
 7815SOL    HW235477   7.205   5.088   0.688
 7816SOL     OW35478   6.976   4.299   0.078
 7816SOL    HW135479   6.922   4.278   0.159
 7816SOL    HW235480   7.067   4.258   0.087
 7817SOL     OW35481   6.113   3.980   0.328
 7817SOL    HW135482   6.140   3.921   0.253
 7817SOL    HW235483   6.113   4.075   0.297
 7818SOL     OW35484   7.178   5.353   1.625
 7818SOL    HW135485   7.205   5.387   1.535
 7818SOL    HW235486   7.257   5.315   1.671
 7819SOL     OW35487   7.224   4.823   1.079
 7819SOL    HW135488   7.229   4.904   1.138
 7819SOL    HW235489   7.138   4.825   1.028
 7820SOL     OW35490   6.566   4.840   1.719
 7820SOL    HW135491   6.467   4.846   1.729
 7820SOL    HW235492   6.589   4.760   1.663
 7821SOL     OW35493   6.291   4.774   0.368
 7821SOL    HW135494   6.277   4.781   0.467
 7821SOL    HW235495   6.375   4.723   0.350
 7822SOL     OW35496   5.996   4.537   1.251
 7822SOL    HW135497   6.082   4.549   1.301
 7822SOL    HW235498   5.954   4.450   1.278
 7823SOL     OW35499   6.860   4.110   1.262
 7823SOL    HW135500   6.881   4.184   1.326
 7823SOL    HW235501   6.771   4.127   1.219
 7824SOL     OW35502   5.650   5.288   1.331
 7824SOL    HW135503   5.604   5.370   1.297
 7824SOL    HW235504   5.748   5.307   1.340
 7825SOL     OW35505   5.953   4.824   0.501
 7825SOL    HW135506   5.946   4.907   0.445
 7825SOL    HW235507   5.957   4.744   0.441
 7826SOL     OW35508   6.152   4.261   0.865
 7826SOL    HW135509   6.164   4.327   0.791
 7826SOL    HW235510   6.198   4.295   0.948
 7827SOL     OW35511   6.838   5.072   0.388
 7827SOL    HW135512   6.888   5.149   0.428
 7827SOL    HW235513   6.743   5.074   0.420
 7828SOL     OW35514   6.858   5.169   1.142
 7828SOL    HW135515   6.905   5.182   1.229
 7828SOL    HW235516   6.792   5.095   1.151
 7829SOL     OW35517   7.168   4.363   0.472
 7829SOL    HW135518   7.137   4.424   0.545
 7829SOL    HW235519   7.218   4.415   0.403
 7830SOL     OW35520   6.159   4.594   1.029
 7830SOL    HW135521   6.203   4.683   1.020
 7830SOL    HW235522   6.096   4.594   1.106
 7831SOL     OW35523   6.946   4.586   1.045
 7831SOL    HW135524   6.871   4.586   0.979
 7831SOL    HW235525   6.983   4.494   1.054
 7832SOL     OW35526   6.795   4.249   0.275
 7832SOL    HW135527   6.808   4.165   0.329
 7832SOL    HW235528   6.766   4.323   0.335
 7833SOL     OW35529   5.893   3.937   1.231
 7833SOL    HW135530   5.870   3.974   1.321
 7833SOL    HW235531   5.863   3.842   1.225
 7834SOL     OW35532   5.623   5.034   1.282
 7834SOL    HW135533   5.676   4.985   1.350
 7834SOL    HW235534   5.645   5.132   1.287
 7835SOL     OW35535   6.318   4.358   1.064
 7835SOL    HW135536   6.377   4.332   0.988
 7835SOL    HW235537   6.290   4.454   1.053
 7836SOL     OW35538   5.893   3.787   0.618
 7836SOL    HW135539   5.882   3.881   0.651
 7836SOL    HW235540   5.888   3.724   0.695
 7837SOL     OW35541   7.208   4.091   0.374
 7837SOL    HW135542   7.210   4.015   0.438
 7837SOL    HW235543   7.160   4.168   0.414
 7838SOL     OW35544   6.609   4.490   0.966
 7838SOL    HW135545   6.624   4.511   1.062
 7838SOL    HW235546   6.579   4.395   0.957
 7839SOL     OW35547   7.445   5.242   1.605
 7839SOL    HW135548   7.459   5.269   1.510
 7839SOL    HW235549   7.528   5.264   1.658
 7840SOL     OW35550   7.126   3.998   0.125
 7840SOL    HW135551   7.065   3.923   0.148
 7840SOL    HW235552   7.148   4.050   0.208
 7841SOL     OW35553   6.889   4.562   0.042
 7841SOL    HW135554   6.923   4.469   0.057
 7841SOL    HW235555   6.907   4.589  -0.053
 7842SOL     OW35556   6.654   5.057   0.849
 7842SOL    HW135557   6.661   4.973   0.794
 7842SOL    HW235558   6.716   5.126   0.813
 7843SOL     OW35559   5.905   4.534   0.949
 7843SOL    HW135560   5.998   4.570   0.954
 7843SOL    HW235561   5.899   4.449   1.001
 7844SOL     OW35562   5.925   4.233   1.006
 7844SOL    HW135563   5.873   4.150   0.989
 7844SOL    HW235564   6.002   4.238   0.942
 7845SOL     OW35565   6.724   4.104   1.678
 7845SOL    HW135566   6.679   4.167   1.742
 7845SOL    HW235567   6.817   4.135   1.661
 7846SOL     OW35568   6.746   3.931   1.477
 7846SOL    HW135569   6.746   3.995   1.554
 7846SOL    HW235570   6.774   3.979   1.394
 7847SOL     OW35571   5.594   5.050   0.200
 7847SOL    HW135572   5.501   5.071   0.169
 7847SOL    HW235573   5.604   4.951   0.213
 7848SOL     OW35574   5.674   5.525   0.927
 7848SOL    HW135575   5.632   5.439   0.900
 7848SOL    HW235576   5.768   5.528   0.893
 7849SOL     OW35577   6.090   5.292   0.910
 7849SOL    HW135578   6.156   5.366   0.919
 7849SOL    HW235579   6.134   5.213   0.868
 7850SOL     OW35580   6.588   4.520   1.238
 7850SOL    HW135581   6.629   4.488   1.324
 7850SOL    HW235582   6.492   4.493   1.235
 7851SOL     OW35583   5.626   4.268   1.114
 7851SOL    HW135584   5.711   4.235   1.073
 7851SOL    HW235585   5.639   4.283   1.212
 7852SOL     OW35586   5.775   4.244   1.722
 7852SOL    HW135587   5.834   4.204   1.652
 7852SOL    HW235588   5.717   4.315   1.681
 7853SOL     OW35589   6.401   4.296   0.325
 7853SOL    HW135590   6.408   4.207   0.279
 7853SOL    HW235591   6.307   4.330   0.317
 7854SOL     OW35592   7.243   4.328   1.206
 7854SOL    HW135593   7.205   4.259   1.268
 7854SOL    HW235594   7.325   4.292   1.162
 7855SOL     OW35595   6.257   4.188   1.269
 7855SOL    HW135596   6.223   4.099   1.239
 7855SOL    HW235597   6.283   4.242   1.189
 7856SOL     OW35598   6.059   4.224   0.191
 7856SOL    HW135599   6.120   4.304   0.195
 7856SOL    HW235600   5.964   4.255   0.198
 7857SOL     OW35601   5.745   4.861   1.466
 7857SOL    HW135602   5.767   4.800   1.542
 7857SOL    HW235603   5.755   4.812   1.380
 7858SOL     OW35604   6.888   4.579   0.309
 7858SOL    HW135605   6.802   4.548   0.351
 7858SOL    HW235606   6.884   4.565   0.210
 7859SOL     OW35607   7.345   5.471   1.154
 7859SOL    HW135608   7.406   5.501   1.081
 7859SOL    HW235609   7.307   5.382   1.132
 7860SOL     OW35610   6.838   5.455   1.128
 7860SOL    HW135611   6.922   5.460   1.074
 7860SOL    HW235612   6.815   5.359   1.146
 7861SOL     OW35613   5.669   4.982   1.022
 7861SOL    HW135614   5.664   4.981   1.122
 7861SOL    HW235615   5.586   4.941   0.984
 7862SOL     OW35616   6.274   5.386   1.716
 7862SOL    HW135617   6.218   5.467   1.725
 7862SOL    HW235618   6.326   5.390   1.630
 7863SOL     OW35619   6.489   3.810   0.133
 7863SOL    HW135620   6.540   3.811   0.047
 7863SOL    HW235621   6.545   3.768   0.204
 7864SOL     OW35622   7.312   3.859   0.523
 7864SOL    HW135623   7.385   3.842   0.456
 7864SOL    HW235624   7.281   3.772   0.561
 7865SOL     OW35625   6.974   5.297   0.477
 7865SOL    HW135626   7.041   5.309   0.403
 7865SOL    HW235627   6.934   5.386   0.500
 7866SOL     OW35628   6.866   4.651   0.672
 7866SOL    HW135629   6.926   4.570   0.674
 7866SOL    HW235630   6.906   4.720   0.612
 7867SOL     OW35631   6.258   5.340   0.154
 7867SOL    HW135632   6.267   5.350   0.055
 7867SOL    HW235633   6.218   5.251   0.175
 7868SOL     OW35634   7.236   5.444   1.394
 7868SOL    HW135635   7.289   5.454   1.310
 7868SOL    HW235636   7.209   5.534   1.428
 7869SOL     OW35637   7.427   3.899   0.963
 7869SOL    HW135638   7.466   3.814   0.927
 7869SOL    HW235639   7.329   3.901   0.944
 7870SOL     OW35640   5.849   4.050   0.720
 7870SOL    HW135641   5.770   4.101   0.686
 7870SOL    HW235642   5.840   4.035   0.818
 7871SOL     OW35643   6.780   5.336   0.031
 7871SOL    HW135644   6.786   5.243   0.068
 7871SOL    HW235645   6.721   5.336  -0.049
 7872SOL     OW35646   6.408   4.726   1.372
 7872SOL    HW135647   6.448   4.725   1.280
 7872SOL    HW235648   6.418   4.818   1.412
 7873SOL     OW35649   6.502   4.634   0.291
 7873SOL    HW135650   6.565   4.672   0.223
 7873SOL    HW235651   6.542   4.551   0.330
 7874SOL     OW35652   7.090   5.331   0.044
 7874SOL    HW135653   6.998   5.368   0.051
 7874SOL    HW235654   7.128   5.351  -0.046
 7875SOL     OW35655   7.200   5.016   1.289
 7875SOL    HW135656   7.260   5.019   1.369
 7875SOL    HW235657   7.125   5.080   1.302
 7876SOL     OW35658   6.625   4.822   0.696
 7876SOL    HW135659   6.555   4.775   0.750
 7876SOL    HW235660   6.684   4.754   0.653
 7877SOL     OW35661   6.600   3.960   0.971
 7877SOL    HW135662   6.592   3.924   0.878
 7877SOL    HW235663   6.598   3.884   1.036
 7878SOL     OW35664   6.176   5.211   0.491
 7878SOL    HW135665   6.218   5.153   0.421
 7878SOL    HW235666   6.132   5.290   0.447
 7879SOL     OW35667   7.295   4.109   1.381
 7879SOL    HW135668   7.368   4.178   1.385
 7879SOL    HW235669   7.323   4.034   1.322
 7880SOL     OW35670   5.841   5.072   0.290
 7880SOL    HW135671   5.745   5.073   0.263
 7880SOL    HW235672   5.853   5.125   0.374
 7881SOL     OW35673   5.658   3.890   0.318
 7881SOL    HW135674   5.641   3.973   0.264
 7881SOL    HW235675   5.748   3.853   0.296
 7882SOL     OW35676   6.769   5.059   0.119
 7882SOL    HW135677   6.670   5.048   0.121
 7882SOL    HW235678   6.803   5.074   0.212
 7883SOL     OW35679   6.199   4.566   1.431
 7883SOL    HW135680   6.255   4.647   1.414
 7883SOL    HW235681   6.258   4.486   1.434
 7884SOL     OW35682   7.079   5.491   0.959
 7884SOL    HW135683   7.112   5.555   0.890
 7884SOL    HW235684   7.145   5.485   1.034
 7885SOL     OW35685   7.036   4.944   1.633
 7885SOL    HW135686   7.027   4.934   1.732
 7885SOL    HW235687   7.132   4.937   1.607
 7886SOL     OW35688   5.976   5.465   1.560
 7886SOL    HW135689   5.885   5.506   1.558
 7886SOL    HW235690   5.969   5.371   1.592
 7887SOL     OW35691   6.811   4.049   0.449
 7887SOL    HW135692   6.876   3.975   0.438
 7887SOL    HW235693   6.831   4.099   0.533
 7888SOL     OW35694   6.180   4.469   0.652
 7888SOL    HW135695   6.230   4.554   0.633
 7888SOL    HW235696   6.092   4.471   0.604
 7889SOL     OW35697   7.363   4.066   1.642
 7889SOL    HW135698   7.346   4.097   1.548
 7889SOL    HW235699   7.279   4.029   1.680
 7890SOL     OW35700   6.445   5.098   0.016
 7890SOL    HW135701   6.399   5.113   0.104
 7890SOL    HW235702   6.489   5.183  -0.014
 7891SOL     OW35703   6.247   5.514   0.953
 7891SOL    HW135704   6.201   5.602   0.940
 7891SOL    HW235705   6.346   5.526   0.946
 7892SOL     OW35706   6.445   4.680   0.861
 7892SOL    HW135707   6.499   4.611   0.909
 7892SOL    HW235708   6.413   4.749   0.927
 7893SOL     OW35709   6.669   4.708   0.087
 7893SOL    HW135710   6.646   4.761   0.005
 7893SOL    HW235711   6.750   4.652   0.068
 7894SOL     OW35712   7.447   5.293   0.851
 7894SOL    HW135713   7.376   5.281   0.781
 7894SOL    HW235714   7.448   5.214   0.911
 7895SOL     OW35715   5.807   5.038   1.844
 7895SOL    HW135716   5.742   4.965   1.823
 7895SOL    HW235717   5.811   5.052   1.942
 7896SOL     OW35718   5.665   4.964   0.653
 7896SOL    HW135719   5.664   4.917   0.741
 7896SOL    HW235720   5.747   4.936   0.602
 7897SOL     OW35721   7.410   3.916   1.227
 7897SOL    HW135722   7.406   3.826   1.271
 7897SOL    HW235723   7.413   3.905   1.128
 7898SOL     OW35724   6.014   4.148   0.520
 7898SOL    HW135725   6.044   4.076   0.458
 7898SOL    HW235726   5.975   4.108   0.603
 7899SOL     OW35727   7.291   5.211   1.104
 7899SOL    HW135728   7.198   5.186   1.077
 7899SOL    HW235729   7.317   5.161   1.186
 7900SOL     OW35730   5.903   4.271   1.280
 7900SOL    HW135731   5.941   4.212   1.352
 7900SOL    HW235732   5.943   4.245   1.192
 7901SOL     OW35733   6.398   5.310   0.687
 7901SOL    HW135734   6.430   5.320   0.593
 7901SOL    HW235735   6.319   5.248   0.689
 7902SOL     OW35736   7.010   3.938   1.112
 7902SOL    HW135737   7.062   3.873   1.167
 7902SOL    HW235738   6.961   4.001   1.173
 7903SOL     OW35739   6.587   3.758   1.154
 7903SOL    HW135740   6.524   3.686   1.123
 7903SOL    HW235741   6.680   3.722   1.154
 7904SOL     OW35742   6.356   5.054   0.301
 7904SOL    HW135743   6.310   4.967   0.318
 7904SOL    HW235744   6.447   5.051   0.342
 7905SOL     OW35745   6.204   5.291   1.284
 7905SOL    HW135746   6.199   5.373   1.341
 7905SOL    HW235747   6.293   5.288   1.239
 7906SOL     OW35748   6.938   3.776   0.168
 7906SOL    HW135749   6.973   3.735   0.084
 7906SOL    HW235750   6.848   3.738   0.188
 7907SOL     OW35751   6.886   4.177   0.691
 7907SOL    HW135752   6.827   4.257   0.695
 7907SOL    HW235753   6.901   4.142   0.784
 7908SOL     OW35754   7.179   3.945   0.882
 7908SOL    HW135755   7.095   3.944   0.936
 7908SOL    HW235756   7.181   4.028   0.826
 7909SOL     OW35757   5.625   4.801   0.300
 7909SOL    HW135758   5.724   4.790   0.291
 7909SOL    HW235759   5.585   4.715   0.332
 7910SOL     OW35760   6.461   5.370   0.337
 7910SOL    HW135761   6.384   5.335   0.283
 7910SOL    HW235762   6.429   5.441   0.399
 7911SOL     OW35763   6.155   4.999   3.027
 7911SOL    HW135764   6.062   4.992   2.990
 7911SOL    HW235765   6.166   5.088   3.071
 7912SOL     OW35766   7.341   4.331   2.093
 7912SOL    HW135767   7.329   4.318   1.994
 7912SOL    HW235768   7.311   4.250   2.142
 7913SOL     OW35769   6.354   4.868   2.885
 7913SOL    HW135770   6.276   4.885   2.945
 7913SOL    HW235771   6.388   4.955   2.849
 7914SOL     OW35772   6.272   4.885   3.665
 7914SOL    HW135773   6.332   4.964   3.679
 7914SOL    HW235774   6.186   4.916   3.624
 7915SOL     OW35775   6.024   4.116   3.361
 7915SOL    HW135776   6.106   4.060   3.370
 7915SOL    HW235777   5.943   4.058   3.365
 7916SOL     OW35778   7.189   4.171   2.599
 7916SOL    HW135779   7.115   4.217   2.549
 7916SOL    HW235780   7.240   4.239   2.652
 7917SOL     OW35781   6.713   5.065   3.552
 7917SOL    HW135782   6.760   5.065   3.640
 7917SOL    HW235783   6.665   4.978   3.541
 7918SOL     OW35784   5.826   4.815   2.748
 7918SOL    HW135785   5.840   4.731   2.800
 7918SOL    HW235786   5.771   4.879   2.803
 7919SOL     OW35787   7.428   5.491   2.221
 7919SOL    HW135788   7.482   5.462   2.301
 7919SOL    HW235789   7.458   5.581   2.192
 7920SOL     OW35790   7.275   4.646   2.474
 7920SOL    HW135791   7.370   4.617   2.482
 7920SOL    HW235792   7.267   4.711   2.399
 7921SOL     OW35793   6.879   4.952   3.285
 7921SOL    HW135794   6.916   4.879   3.227
 7921SOL    HW235795   6.931   4.957   3.370
 7922SOL     OW35796   6.395   3.728   2.364
 7922SOL    HW135797   6.435   3.819   2.355
 7922SOL    HW235798   6.295   3.736   2.370
 7923SOL     OW35799   6.773   5.516   3.478
 7923SOL    HW135800   6.797   5.576   3.402
 7923SOL    HW235801   6.780   5.421   3.448
 7924SOL     OW35802   5.903   3.975   3.663
 7924SOL    HW135803   5.974   4.046   3.669
 7924SOL    HW235804   5.815   4.014   3.691
 7925SOL     OW35805   7.052   5.141   2.815
 7925SOL    HW135806   6.993   5.147   2.895
 7925SOL    HW235807   7.037   5.053   2.769
 7926SOL     OW35808   6.980   4.193   3.536
 7926SOL    HW135809   6.960   4.236   3.624
 7926SOL    HW235810   7.058   4.131   3.545
 7927SOL     OW35811   5.937   5.525   2.715
 7927SOL    HW135812   5.987   5.439   2.721
 7927SOL    HW235813   6.002   5.602   2.712
 7928SOL     OW35814   6.813   5.274   3.368
 7928SOL    HW135815   6.819   5.197   3.432
 7928SOL    HW235816   6.761   5.248   3.288
 7929SOL     OW35817   6.047   4.990   3.589
 7929SOL    HW135818   5.997   4.991   3.503
 7929SOL    HW235819   5.984   4.972   3.665
 7930SOL     OW35820   6.697   5.500   2.099
 7930SOL    HW135821   6.637   5.438   2.149
 7930SOL    HW235822   6.728   5.456   2.014
 7931SOL     OW35823   7.218   5.101   1.943
 7931SOL    HW135824   7.186   5.195   1.933
 7931SOL    HW235825   7.142   5.038   1.931
 7932SOL     OW35826   7.133   3.946   3.591
 7932SOL    HW135827   7.128   3.983   3.683
 7932SOL    HW235828   7.061   3.877   3.579
 7933SOL     OW35829   6.367   3.988   3.611
 7933SOL    HW135830   6.434   3.927   3.654
 7933SOL    HW235831   6.294   4.007   3.676
 7934SOL     OW35832   6.937   4.314   3.295
 7934SOL    HW135833   6.965   4.271   3.380
 7934SOL    HW235834   6.962   4.410   3.296
 7935SOL     OW35835   6.389   5.126   2.786
 7935SOL    HW135836   6.479   5.140   2.744
 7935SOL    HW235837   6.318   5.128   2.715
 7936SOL     OW35838   6.147   3.946   3.009
 7936SOL    HW135839   6.185   3.862   3.046
 7936SOL    HW235840   6.059   3.965   3.053
 7937SOL     OW35841   6.452   4.178   2.504
 7937SOL    HW135842   6.420   4.250   2.442
 7937SOL    HW235843   6.476   4.097   2.451
 7938SOL     OW35844   6.603   3.763   2.615
 7938SOL    HW135845   6.531   3.768   2.546
 7938SOL    HW235846   6.579   3.694   2.684
 7939SOL     OW35847   7.015   4.897   2.729
 7939SOL    HW135848   6.960   4.813   2.722
 7939SOL    HW235849   7.041   4.926   2.637
 7940SOL     OW35850   6.074   5.109   2.036
 7940SOL    HW135851   5.987   5.094   2.083
 7940SOL    HW235852   6.057   5.135   1.941
 7941SOL     OW35853   7.250   5.004   2.519
 7941SOL    HW135854   7.349   5.012   2.533
 7941SOL    HW235855   7.205   5.088   2.550
 7942SOL     OW35856   6.976   4.299   1.940
 7942SOL    HW135857   6.922   4.278   2.021
 7942SOL    HW235858   7.067   4.258   1.949
 7943SOL     OW35859   7.340   4.947   3.450
 7943SOL    HW135860   7.431   4.908   3.437
 7943SOL    HW235861   7.348   5.043   3.474
 7944SOL     OW35862   7.178   5.353   3.487
 7944SOL    HW135863   7.205   5.387   3.397
 7944SOL    HW235864   7.257   5.315   3.533
 7945SOL     OW35865   6.501   3.813   3.264
 7945SOL    HW135866   6.526   3.793   3.169
 7945SOL    HW235867   6.573   3.869   3.306
 7946SOL     OW35868   6.291   4.774   2.230
 7946SOL    HW135869   6.277   4.781   2.329
 7946SOL    HW235870   6.375   4.723   2.212
 7947SOL     OW35871   6.838   5.072   2.250
 7947SOL    HW135872   6.888   5.149   2.290
 7947SOL    HW235873   6.743   5.074   2.282
 7948SOL     OW35874   5.988   4.475   3.460
 7948SOL    HW135875   6.056   4.530   3.413
 7948SOL    HW235876   6.028   4.387   3.487
 7949SOL     OW35877   7.173   4.503   3.532
 7949SOL    HW135878   7.081   4.541   3.527
 7949SOL    HW235879   7.233   4.550   3.467
 7950SOL     OW35880   6.599   3.829   3.632
 7950SOL    HW135881   6.605   3.914   3.580
 7950SOL    HW235882   6.631   3.753   3.575
 7951SOL     OW35883   6.159   4.594   2.891
 7951SOL    HW135884   6.203   4.683   2.882
 7951SOL    HW235885   6.096   4.594   2.968
 7952SOL     OW35886   6.795   4.249   2.137
 7952SOL    HW135887   6.808   4.165   2.191
 7952SOL    HW235888   6.766   4.323   2.197
 7953SOL     OW35889   5.623   5.034   3.144
 7953SOL    HW135890   5.676   4.985   3.212
 7953SOL    HW235891   5.645   5.132   3.149
 7954SOL     OW35892   5.936   4.622   3.666
 7954SOL    HW135893   6.012   4.666   3.714
 7954SOL    HW235894   5.971   4.575   3.584
 7955SOL     OW35895   6.724   4.104   3.540
 7955SOL    HW135896   6.679   4.167   3.604
 7955SOL    HW235897   6.817   4.135   3.523
 7956SOL     OW35898   6.746   3.931   3.339
 7956SOL    HW135899   6.746   3.995   3.416
 7956SOL    HW235900   6.774   3.979   3.256
 7957SOL     OW35901   5.594   5.050   2.062
 7957SOL    HW135902   5.501   5.071   2.031
 7957SOL    HW235903   5.604   4.951   2.075
 7958SOL     OW35904   6.588   4.520   3.100
 7958SOL    HW135905   6.629   4.488   3.186
 7958SOL    HW235906   6.492   4.493   3.097
 7959SOL     OW35907   5.775   4.244   3.584
 7959SOL    HW135908   5.834   4.204   3.514
 7959SOL    HW235909   5.717   4.315   3.543
 7960SOL     OW35910   6.955   4.674   3.522
 7960SOL    HW135911   6.994   4.763   3.542
 7960SOL    HW235912   6.965   4.654   3.425
 7961SOL     OW35913   6.257   4.188   3.131
 7961SOL    HW135914   6.223   4.099   3.101
 7961SOL    HW235915   6.283   4.242   3.051
 7962SOL     OW35916   6.059   4.224   2.053
 7962SOL    HW135917   6.120   4.304   2.057
 7962SOL    HW235918   5.964   4.255   2.060
 7963SOL     OW35919   6.838   5.455   2.990
 7963SOL    HW135920   6.922   5.460   2.936
 7963SOL    HW235921   6.815   5.359   3.008
 7964SOL     OW35922   5.669   4.982   2.884
 7964SOL    HW135923   5.664   4.981   2.984
 7964SOL    HW235924   5.586   4.941   2.846
 7965SOL     OW35925   6.274   5.386   3.578
 7965SOL    HW135926   6.218   5.467   3.587
 7965SOL    HW235927   6.326   5.390   3.492
 7966SOL     OW35928   6.866   4.651   2.534
 7966SOL    HW135929   6.926   4.570   2.536
 7966SOL    HW235930   6.906   4.720   2.474
 7967SOL     OW35931   6.416   4.997   3.284
 7967SOL    HW135932   6.411   5.030   3.379
 7967SOL    HW235933   6.330   5.016   3.238
 7968SOL     OW35934   6.258   5.340   2.016
 7968SOL    HW135935   6.267   5.350   1.917
 7968SOL    HW235936   6.218   5.251   2.037
 7969SOL     OW35937   7.236   5.444   3.256
 7969SOL    HW135938   7.289   5.454   3.172
 7969SOL    HW235939   7.209   5.534   3.290
 7970SOL     OW35940   5.849   4.050   2.582
 7970SOL    HW135941   5.770   4.101   2.548
 7970SOL    HW235942   5.840   4.035   2.680
 7971SOL     OW35943   6.408   4.726   3.234
 7971SOL    HW135944   6.448   4.725   3.142
 7971SOL    HW235945   6.418   4.818   3.274
 7972SOL     OW35946   7.200   5.016   3.151
 7972SOL    HW135947   7.260   5.019   3.231
 7972SOL    HW235948   7.125   5.080   3.164
 7973SOL     OW35949   6.600   3.960   2.833
 7973SOL    HW135950   6.592   3.924   2.740
 7973SOL    HW235951   6.598   3.884   2.898
 7974SOL     OW35952   7.026   4.580   3.260
 7974SOL    HW135953   6.969   4.632   3.197
 7974SOL    HW235954   7.122   4.592   3.236
 7975SOL     OW35955   5.976   5.465   3.422
 7975SOL    HW135956   5.885   5.506   3.420
 7975SOL    HW235957   5.969   5.371   3.454
 7976SOL     OW35958   7.260   4.607   3.116
 7976SOL    HW135959   7.233   4.518   3.079
 7976SOL    HW235960   7.261   4.675   3.043
 7977SOL     OW35961   7.316   4.658   3.379
 7977SOL    HW135962   7.354   4.749   3.394
 7977SOL    HW235963   7.308   4.641   3.280
 7978SOL     OW35964   7.447   5.293   2.713
 7978SOL    HW135965   7.376   5.281   2.643
 7978SOL    HW235966   7.448   5.214   2.773
 7979SOL     OW35967   5.807   5.038   3.706
 7979SOL    HW135968   5.742   4.965   3.685
 7979SOL    HW235969   5.811   5.052   3.804
 7980SOL     OW35970   5.665   4.964   2.515
 7980SOL    HW135971   5.664   4.917   2.603
 7980SOL    HW235972   5.747   4.936   2.464
 7981SOL     OW35973   6.258   5.115   3.486
 7981SOL    HW135974   6.180   5.065   3.524
 7981SOL    HW235975   6.255   5.210   3.517
 7982SOL     OW35976   6.014   4.148   2.382
 7982SOL    HW135977   6.044   4.076   2.320
 7982SOL    HW235978   5.975   4.108   2.465
 7983SOL     OW35979   6.587   3.758   3.016
 7983SOL    HW135980   6.524   3.686   2.985
 7983SOL    HW235981   6.680   3.722   3.016
 7984SOL     OW35982   5.625   4.801   2.162
 7984SOL    HW135983   5.724   4.790   2.153
 7984SOL    HW235984   5.585   4.715   2.194
 7985SOL     OW35985   5.816   4.352   3.837
 7985SOL    HW135986   5.723   4.350   3.874
 7985SOL    HW235987   5.817   4.313   3.745
 7986SOL     OW35988   5.811   3.999   4.720
 7986SOL    HW135989   5.846   3.982   4.812
 7986SOL    HW235990   5.723   3.954   4.708
 7987SOL     OW35991   7.341   4.331   3.955
 7987SOL    HW135992   7.329   4.318   3.856
 7987SOL    HW235993   7.311   4.250   4.004
 7988SOL     OW35994   6.272   4.885   5.527
 7988SOL    HW135995   6.332   4.964   5.541
 7988SOL    HW235996   6.186   4.916   5.486
 7989SOL     OW35997   5.921   5.159   4.785
 7989SOL    HW135998   5.843   5.128   4.732
 7989SOL    HW235999   5.979   5.217   4.728
 7990SOL     OW36000   7.046   5.229   5.063
 7990SOL    HW136001   7.070   5.323   5.089
 7990SOL    HW236002   7.030   5.175   5.145
 7991SOL     OW36003   6.024   4.116   5.223
 7991SOL    HW136004   6.106   4.060   5.232
 7991SOL    HW236005   5.943   4.058   5.227
 7992SOL     OW36006   5.817   5.437   4.207
 7992SOL    HW136007   5.851   5.514   4.261
 7992SOL    HW236008   5.861   5.437   4.117
 7993SOL     OW36009   5.826   4.815   4.610
 7993SOL    HW136010   5.840   4.731   4.662
 7993SOL    HW236011   5.771   4.879   4.665
 7994SOL     OW36012   6.192   4.688   3.847
 7994SOL    HW136013   6.199   4.772   3.793
 7994SOL    HW236014   6.238   4.701   3.935
 7995SOL     OW36015   6.395   3.728   4.226
 7995SOL    HW136016   6.435   3.819   4.217
 7995SOL    HW236017   6.295   3.736   4.232
 7996SOL     OW36018   7.111   4.723   3.914
 7996SOL    HW136019   7.048   4.647   3.927
 7996SOL    HW236020   7.159   4.741   4.000
 7997SOL     OW36021   5.903   3.975   5.525
 7997SOL    HW136022   5.974   4.046   5.531
 7997SOL    HW236023   5.815   4.014   5.553
 7998SOL     OW36024   7.052   5.141   4.677
 7998SOL    HW136025   6.993   5.147   4.757
 7998SOL    HW236026   7.037   5.053   4.631
 7999SOL     OW36027   6.184   4.453   3.994
 7999SOL    HW136028   6.208   4.522   3.926
 7999SOL    HW236029   6.106   4.486   4.048
 8000SOL     OW36030   6.867   4.069   4.668
 8000SOL    HW136031   6.781   4.019   4.655
 8000SOL    HW236032   6.929   4.015   4.724
 8001SOL     OW36033   7.162   5.386   4.031
 8001SOL    HW136034   7.251   5.432   4.034
 8001SOL    HW236035   7.141   5.362   3.936
 8002SOL     OW36036   6.980   4.193   5.398
 8002SOL    HW136037   6.960   4.236   5.486
 8002SOL    HW236038   7.058   4.131   5.407
 8003SOL     OW36039   6.577   4.134   4.966
 8003SOL    HW136040   6.500   4.168   5.020
 8003SOL    HW236041   6.543   4.083   4.887
 8004SOL     OW36042   6.627   4.425   4.153
 8004SOL    HW136043   6.653   4.421   4.249
 8004SOL    HW236044   6.542   4.374   4.139
 8005SOL     OW36045   6.813   5.274   5.230
 8005SOL    HW136046   6.819   5.197   5.294
 8005SOL    HW236047   6.761   5.248   5.150
 8006SOL     OW36048   7.044   4.459   4.452
 8006SOL    HW136049   7.039   4.394   4.527
 8006SOL    HW236050   7.124   4.518   4.465
 8007SOL     OW36051   6.047   4.990   5.451
 8007SOL    HW136052   5.997   4.991   5.365
 8007SOL    HW236053   5.984   4.972   5.527
 8008SOL     OW36054   6.986   3.831   4.150
 8008SOL    HW136055   6.962   3.794   4.060
 8008SOL    HW236056   7.085   3.847   4.154
 8009SOL     OW36057   5.835   5.509   4.965
 8009SOL    HW136058   5.892   5.444   5.015
 8009SOL    HW236059   5.819   5.476   4.872
 8010SOL     OW36060   5.968   4.424   4.204
 8010SOL    HW136061   6.013   4.334   4.201
 8010SOL    HW236062   5.874   4.413   4.237
 8011SOL     OW36063   6.474   5.238   4.919
 8011SOL    HW136064   6.451   5.213   4.825
 8011SOL    HW236065   6.535   5.169   4.958
 8012SOL     OW36066   6.389   5.126   4.648
 8012SOL    HW136067   6.479   5.140   4.606
 8012SOL    HW236068   6.318   5.128   4.577
 8013SOL     OW36069   6.662   4.407   5.188
 8013SOL    HW136070   6.582   4.346   5.191
 8013SOL    HW236071   6.743   4.354   5.164
 8014SOL     OW36072   6.857   5.521   4.315
 8014SOL    HW136073   6.901   5.585   4.251
 8014SOL    HW236074   6.807   5.573   4.385
 8015SOL     OW36075   5.664   4.280   5.110
 8015SOL    HW136076   5.756   4.279   5.069
 8015SOL    HW236077   5.658   4.354   5.177
 8016SOL     OW36078   6.603   3.763   4.477
 8016SOL    HW136079   6.531   3.768   4.408
 8016SOL    HW236080   6.579   3.694   4.546
 8017SOL     OW36081   6.074   5.109   3.898
 8017SOL    HW136082   5.987   5.094   3.945
 8017SOL    HW236083   6.057   5.135   3.803
 8018SOL     OW36084   7.250   5.004   4.381
 8018SOL    HW136085   7.349   5.012   4.395
 8018SOL    HW236086   7.205   5.088   4.412
 8019SOL     OW36087   6.113   3.980   4.052
 8019SOL    HW136088   6.140   3.921   3.977
 8019SOL    HW236089   6.113   4.075   4.021
 8020SOL     OW36090   7.340   4.947   5.312
 8020SOL    HW136091   7.431   4.908   5.299
 8020SOL    HW236092   7.348   5.043   5.336
 8021SOL     OW36093   7.178   5.353   5.349
 8021SOL    HW136094   7.205   5.387   5.259
 8021SOL    HW236095   7.257   5.315   5.395
 8022SOL     OW36096   6.860   4.110   4.986
 8022SOL    HW136097   6.881   4.184   5.050
 8022SOL    HW236098   6.771   4.127   4.943
 8023SOL     OW36099   6.152   4.261   4.589
 8023SOL    HW136100   6.164   4.327   4.515
 8023SOL    HW236101   6.198   4.295   4.672
 8024SOL     OW36102   6.159   4.594   4.753
 8024SOL    HW136103   6.203   4.683   4.744
 8024SOL    HW236104   6.096   4.594   4.830
 8025SOL     OW36105   5.893   3.937   4.955
 8025SOL    HW136106   5.870   3.974   5.045
 8025SOL    HW236107   5.863   3.842   4.949
 8026SOL     OW36108   6.318   4.358   4.788
 8026SOL    HW136109   6.377   4.332   4.712
 8026SOL    HW236110   6.290   4.454   4.777
 8027SOL     OW36111   7.314   4.659   5.578
 8027SOL    HW136112   7.268   4.652   5.489
 8027SOL    HW236113   7.252   4.703   5.644
 8028SOL     OW36114   5.893   3.787   4.342
 8028SOL    HW136115   5.882   3.881   4.375
 8028SOL    HW236116   5.888   3.724   4.419
 8029SOL     OW36117   7.208   4.091   4.098
 8029SOL    HW136118   7.210   4.015   4.162
 8029SOL    HW236119   7.160   4.168   4.138
 8030SOL     OW36120   7.445   5.242   5.329
 8030SOL    HW136121   7.459   5.269   5.234
 8030SOL    HW236122   7.528   5.264   5.382
 8031SOL     OW36123   7.126   3.998   3.849
 8031SOL    HW136124   7.065   3.923   3.872
 8031SOL    HW236125   7.148   4.050   3.932
 8032SOL     OW36126   5.905   4.534   4.673
 8032SOL    HW136127   5.998   4.570   4.678
 8032SOL    HW236128   5.899   4.449   4.725
 8033SOL     OW36129   6.724   4.104   5.402
 8033SOL    HW136130   6.679   4.167   5.466
 8033SOL    HW236131   6.817   4.135   5.385
 8034SOL     OW36132   6.746   3.931   5.201
 8034SOL    HW136133   6.746   3.995   5.278
 8034SOL    HW236134   6.774   3.979   5.118
 8035SOL     OW36135   5.674   5.525   4.651
 8035SOL    HW136136   5.632   5.439   4.624
 8035SOL    HW236137   5.768   5.528   4.617
 8036SOL     OW36138   6.955   4.674   5.384
 8036SOL    HW136139   6.994   4.763   5.404
 8036SOL    HW236140   6.965   4.654   5.287
 8037SOL     OW36141   5.838   5.288   5.468
 8037SOL    HW136142   5.808   5.345   5.544
 8037SOL    HW236143   5.831   5.191   5.494
 8038SOL     OW36144   6.257   4.188   4.993
 8038SOL    HW136145   6.223   4.099   4.963
 8038SOL    HW236146   6.283   4.242   4.913
 8039SOL     OW36147   6.274   5.386   5.440
 8039SOL    HW136148   6.218   5.467   5.449
 8039SOL    HW236149   6.326   5.390   5.354
 8040SOL     OW36150   7.312   3.859   4.247
 8040SOL    HW136151   7.385   3.842   4.180
 8040SOL    HW236152   7.281   3.772   4.285
 8041SOL     OW36153   6.258   5.340   3.878
 8041SOL    HW136154   6.267   5.350   3.779
 8041SOL    HW236155   6.218   5.251   3.899
 8042SOL     OW36156   6.502   4.634   4.015
 8042SOL    HW136157   6.565   4.672   3.947
 8042SOL    HW236158   6.542   4.551   4.054
 8043SOL     OW36159   7.090   5.331   3.768
 8043SOL    HW136160   6.998   5.368   3.775
 8043SOL    HW236161   7.128   5.351   3.678
 8044SOL     OW36162   5.958   5.012   5.214
 8044SOL    HW136163   5.945   5.105   5.180
 8044SOL    HW236164   5.874   4.960   5.201
 8045SOL     OW36165   7.200   5.016   5.013
 8045SOL    HW136166   7.260   5.019   5.093
 8045SOL    HW236167   7.125   5.080   5.026
 8046SOL     OW36168   6.176   5.211   4.215
 8046SOL    HW136169   6.218   5.153   4.145
 8046SOL    HW236170   6.132   5.290   4.171
 8047SOL     OW36171   7.295   4.109   5.105
 8047SOL    HW136172   7.368   4.178   5.109
 8047SOL    HW236173   7.323   4.034   5.046
 8048SOL     OW36174   5.841   5.072   4.014
 8048SOL    HW136175   5.745   5.073   3.987
 8048SOL    HW236176   5.853   5.125   4.098
 8049SOL     OW36177   5.661   4.069   3.757
 8049SOL    HW136178   5.569   4.041   3.728
 8049SOL    HW236179   5.692   4.146   3.701
 8050SOL     OW36180   5.658   3.890   4.042
 8050SOL    HW136181   5.641   3.973   3.988
 8050SOL    HW236182   5.748   3.853   4.020
 8051SOL     OW36183   6.302   4.289   5.432
 8051SOL    HW136184   6.321   4.354   5.506
 8051SOL    HW236185   6.362   4.209   5.441
 8052SOL     OW36186   7.036   4.944   5.357
 8052SOL    HW136187   7.027   4.934   5.456
 8052SOL    HW236188   7.132   4.937   5.331
 8053SOL     OW36189   5.976   5.465   5.284
 8053SOL    HW136190   5.885   5.506   5.282
 8053SOL    HW236191   5.969   5.371   5.316
 8054SOL     OW36192   7.260   4.607   4.978
 8054SOL    HW136193   7.233   4.518   4.941
 8054SOL    HW236194   7.261   4.675   4.905
 8055SOL     OW36195   6.811   4.049   4.173
 8055SOL    HW136196   6.876   3.975   4.162
 8055SOL    HW236197   6.831   4.099   4.257
 8056SOL     OW36198   7.363   4.066   5.366
 8056SOL    HW136199   7.346   4.097   5.272
 8056SOL    HW236200   7.279   4.029   5.404
 8057SOL     OW36201   6.258   5.115   5.348
 8057SOL    HW136202   6.180   5.065   5.386
 8057SOL    HW236203   6.255   5.210   5.379
 8058SOL     OW36204   6.014   4.148   4.244
 8058SOL    HW136205   6.044   4.076   4.182
 8058SOL    HW236206   5.975   4.108   4.327
 8059SOL     OW36207   7.291   5.211   4.828
 8059SOL    HW136208   7.198   5.186   4.801
 8059SOL    HW236209   7.317   5.161   4.910
 8060SOL     OW36210   6.938   3.776   3.892
 8060SOL    HW136211   6.973   3.735   3.808
 8060SOL    HW236212   6.848   3.738   3.912
 8061SOL     OW36213   6.886   4.177   4.415
 8061SOL    HW136214   6.827   4.257   4.419
 8061SOL    HW236215   6.901   4.142   4.508
 8062SOL     OW36216   7.179   3.945   4.606
 8062SOL    HW136217   7.095   3.944   4.660
 8062SOL    HW236218   7.181   4.028   4.550
 8063SOL     OW36219   6.155   4.999   6.751
 8063SOL    HW136220   6.062   4.992   6.714
 8063SOL    HW236221   6.166   5.088   6.795
 8064SOL     OW36222   7.141   5.235   6.289
 8064SOL    HW136223   7.084   5.219   6.370
 8064SOL    HW236224   7.082   5.245   6.209
 8065SOL     OW36225   6.721   4.427   6.303
 8065SOL    HW136226   6.778   4.505   6.278
 8065SOL    HW236227   6.661   4.453   6.379
 8066SOL     OW36228   6.354   4.868   6.609
 8066SOL    HW136229   6.276   4.885   6.669
 8066SOL    HW236230   6.388   4.955   6.573
 8067SOL     OW36231   6.271   4.736   6.251
 8067SOL    HW136232   6.340   4.720   6.321
 8067SOL    HW236233   6.198   4.793   6.289
 8068SOL     OW36234   5.921   5.159   6.647
 8068SOL    HW136235   5.843   5.128   6.594
 8068SOL    HW236236   5.979   5.217   6.590
 8069SOL     OW36237   7.046   5.229   6.925
 8069SOL    HW136238   7.070   5.323   6.951
 8069SOL    HW236239   7.030   5.175   7.007
 8070SOL     OW36240   6.024   4.116   7.085
 8070SOL    HW136241   6.106   4.060   7.094
 8070SOL    HW236242   5.943   4.058   7.089
 8071SOL     OW36243   7.189   4.171   6.323
 8071SOL    HW136244   7.115   4.217   6.273
 8071SOL    HW236245   7.240   4.239   6.376
 8072SOL     OW36246   5.817   5.437   6.069
 8072SOL    HW136247   5.851   5.514   6.123
 8072SOL    HW236248   5.861   5.437   5.979
 8073SOL     OW36249   5.816   5.158   6.124
 8073SOL    HW136250   5.790   5.254   6.124
 8073SOL    HW236251   5.745   5.104   6.169
 8074SOL     OW36252   5.826   4.815   6.472
 8074SOL    HW136253   5.840   4.731   6.524
 8074SOL    HW236254   5.771   4.879   6.527
 8075SOL     OW36255   6.206   5.510   7.025
 8075SOL    HW136256   6.114   5.493   7.060
 8075SOL    HW236257   6.234   5.602   7.051
 8076SOL     OW36258   6.192   4.688   5.709
 8076SOL    HW136259   6.199   4.772   5.655
 8076SOL    HW236260   6.238   4.701   5.797
 8077SOL     OW36261   7.180   3.838   7.066
 8077SOL    HW136262   7.162   3.905   6.994
 8077SOL    HW236263   7.177   3.884   7.155
 8078SOL     OW36264   5.708   4.367   6.149
 8078SOL    HW136265   5.663   4.279   6.166
 8078SOL    HW236266   5.707   4.421   6.233
 8079SOL     OW36267   7.428   5.491   5.945
 8079SOL    HW136268   7.482   5.462   6.025
 8079SOL    HW236269   7.458   5.581   5.916
 8080SOL     OW36270   7.275   4.646   6.198
 8080SOL    HW136271   7.370   4.617   6.206
 8080SOL    HW236272   7.267   4.711   6.123
 8081SOL     OW36273   7.227   4.832   6.018
 8081SOL    HW136274   7.313   4.834   5.966
 8081SOL    HW236275   7.241   4.879   6.106
 8082SOL     OW36276   6.199   5.089   6.312
 8082SOL    HW136277   6.150   5.002   6.321
 8082SOL    HW236278   6.176   5.132   6.225
 8083SOL     OW36279   6.395   3.728   6.088
 8083SOL    HW136280   6.435   3.819   6.079
 8083SOL    HW236281   6.295   3.736   6.094
 8084SOL     OW36282   5.783   4.700   6.850
 8084SOL    HW136283   5.872   4.655   6.836
 8084SOL    HW236284   5.710   4.635   6.831
 8085SOL     OW36285   7.111   4.723   5.776
 8085SOL    HW136286   7.048   4.647   5.789
 8085SOL    HW236287   7.159   4.741   5.862
 8086SOL     OW36288   7.052   5.141   6.539
 8086SOL    HW136289   6.993   5.147   6.619
 8086SOL    HW236290   7.037   5.053   6.493
 8087SOL     OW36291   7.253   5.438   6.158
 8087SOL    HW136292   7.212   5.415   6.070
 8087SOL    HW236293   7.235   5.364   6.223
 8088SOL     OW36294   6.184   4.453   5.856
 8088SOL    HW136295   6.208   4.522   5.788
 8088SOL    HW236296   6.106   4.486   5.910
 8089SOL     OW36297   6.867   4.069   6.530
 8089SOL    HW136298   6.781   4.019   6.517
 8089SOL    HW236299   6.929   4.015   6.586
 8090SOL     OW36300   7.162   5.386   5.893
 8090SOL    HW136301   7.251   5.432   5.896
 8090SOL    HW236302   7.141   5.362   5.798
 8091SOL     OW36303   6.393   4.329   7.051
 8091SOL    HW136304   6.346   4.326   7.140
 8091SOL    HW236305   6.342   4.274   6.985
 8092SOL     OW36306   6.577   4.134   6.828
 8092SOL    HW136307   6.500   4.168   6.882
 8092SOL    HW236308   6.543   4.083   6.749
 8093SOL     OW36309   6.627   4.425   6.015
 8093SOL    HW136310   6.653   4.421   6.111
 8093SOL    HW236311   6.542   4.374   6.001
 8094SOL     OW36312   5.662   4.535   6.375
 8094SOL    HW136313   5.761   4.523   6.384
 8094SOL    HW236314   5.638   4.630   6.396
 8095SOL     OW36315   5.716   5.545   7.157
 8095SOL    HW136316   5.706   5.530   7.256
 8095SOL    HW236317   5.630   5.581   7.121
 8096SOL     OW36318   6.451   4.072   5.781
 8096SOL    HW136319   6.510   4.135   5.732
 8096SOL    HW236320   6.470   3.978   5.752
 8097SOL     OW36321   6.948   4.868   6.131
 8097SOL    HW136322   7.031   4.839   6.083
 8097SOL    HW236323   6.899   4.935   6.075
 8098SOL     OW36324   6.136   3.920   6.471
 8098SOL    HW136325   6.131   3.915   6.571
 8098SOL    HW236326   6.138   4.016   6.442
 8099SOL     OW36327   6.594   5.180   6.063
 8099SOL    HW136328   6.548   5.252   6.011
 8099SOL    HW236329   6.590   5.200   6.161
 8100SOL     OW36330   5.937   5.525   6.439
 8100SOL    HW136331   5.987   5.439   6.445
 8100SOL    HW236332   6.002   5.602   6.436
 8101SOL     OW36333   7.381   4.790   6.459
 8101SOL    HW136334   7.319   4.775   6.383
 8101SOL    HW236335   7.329   4.801   6.544
 8102SOL     OW36336   7.044   4.459   6.314
 8102SOL    HW136337   7.039   4.394   6.389
 8102SOL    HW236338   7.124   4.518   6.327
 8103SOL     OW36339   6.697   5.500   5.823
 8103SOL    HW136340   6.637   5.438   5.873
 8103SOL    HW236341   6.728   5.456   5.738
 8104SOL     OW36342   5.788   4.009   7.084
 8104SOL    HW136343   5.708   4.069   7.071
 8104SOL    HW236344   5.778   3.960   7.170
 8105SOL     OW36345   7.218   5.101   5.667
 8105SOL    HW136346   7.186   5.195   5.657
 8105SOL    HW236347   7.142   5.038   5.655
 8106SOL     OW36348   6.050   5.467   5.909
 8106SOL    HW136349   6.083   5.506   5.995
 8106SOL    HW236350   6.126   5.460   5.844
 8107SOL     OW36351   5.835   5.509   6.827
 8107SOL    HW136352   5.892   5.444   6.877
 8107SOL    HW236353   5.819   5.476   6.734
 8108SOL     OW36354   6.526   5.422   6.490
 8108SOL    HW136355   6.606   5.365   6.511
 8108SOL    HW236356   6.477   5.382   6.413
 8109SOL     OW36357   5.968   4.424   6.066
 8109SOL    HW136358   6.013   4.334   6.063
 8109SOL    HW236359   5.874   4.413   6.099
 8110SOL     OW36360   6.474   5.238   6.781
 8110SOL    HW136361   6.451   5.213   6.687
 8110SOL    HW236362   6.535   5.169   6.820
 8111SOL     OW36363   6.389   5.126   6.510
 8111SOL    HW136364   6.479   5.140   6.468
 8111SOL    HW236365   6.318   5.128   6.439
 8112SOL     OW36366   6.508   4.227   6.485
 8112SOL    HW136367   6.483   4.218   6.389
 8112SOL    HW236368   6.556   4.145   6.516
 8113SOL     OW36369   7.020   4.912   5.627
 8113SOL    HW136370   7.052   4.836   5.684
 8113SOL    HW236371   6.928   4.939   5.657
 8114SOL     OW36372   6.521   3.960   6.066
 8114SOL    HW136373   6.473   4.001   5.988
 8114SOL    HW236374   6.620   3.958   6.047
 8115SOL     OW36375   6.813   5.294   6.379
 8115SOL    HW136376   6.834   5.368   6.314
 8115SOL    HW236377   6.881   5.294   6.452
 8116SOL     OW36378   6.045   4.876   6.327
 8116SOL    HW136379   5.974   4.849   6.392
 8116SOL    HW236380   6.019   4.848   6.234
 8117SOL     OW36381   6.857   5.521   6.177
 8117SOL    HW136382   6.901   5.585   6.113
 8117SOL    HW236383   6.807   5.573   6.247
 8118SOL     OW36384   6.618   4.273   5.602
 8118SOL    HW136385   6.577   4.355   5.563
 8118SOL    HW236386   6.682   4.299   5.675
 8119SOL     OW36387   5.664   4.280   6.972
 8119SOL    HW136388   5.756   4.279   6.931
 8119SOL    HW236389   5.658   4.354   7.039
 8120SOL     OW36390   6.147   3.946   6.733
 8120SOL    HW136391   6.185   3.862   6.770
 8120SOL    HW236392   6.059   3.965   6.777
 8121SOL     OW36393   6.452   4.178   6.228
 8121SOL    HW136394   6.420   4.250   6.166
 8121SOL    HW236395   6.476   4.097   6.175
 8122SOL     OW36396   6.603   3.763   6.339
 8122SOL    HW136397   6.531   3.768   6.270
 8122SOL    HW236398   6.579   3.694   6.408
 8123SOL     OW36399   7.015   4.897   6.453
 8123SOL    HW136400   6.960   4.813   6.446
 8123SOL    HW236401   7.041   4.926   6.361
 8124SOL     OW36402   7.052   4.314   6.578
 8124SOL    HW136403   7.022   4.219   6.585
 8124SOL    HW236404   7.125   4.330   6.644
 8125SOL     OW36405   6.074   5.109   5.760
 8125SOL    HW136406   5.987   5.094   5.807
 8125SOL    HW236407   6.057   5.135   5.665
 8126SOL     OW36408   7.250   5.004   6.243
 8126SOL    HW136409   7.349   5.012   6.257
 8126SOL    HW236410   7.205   5.088   6.274
 8127SOL     OW36411   6.113   3.980   5.914
 8127SOL    HW136412   6.140   3.921   5.839
 8127SOL    HW236413   6.113   4.075   5.883
 8128SOL     OW36414   6.650   5.071   6.926
 8128SOL    HW136415   6.570   5.048   6.981
 8128SOL    HW236416   6.733   5.045   6.975
 8129SOL     OW36417   6.697   4.919   6.686
 8129SOL    HW136418   6.657   4.963   6.767
 8129SOL    HW236419   6.656   4.956   6.603
 8130SOL     OW36420   7.224   4.823   6.665
 8130SOL    HW136421   7.229   4.904   6.724
 8130SOL    HW236422   7.138   4.825   6.614
 8131SOL     OW36423   6.501   3.813   6.988
 8131SOL    HW136424   6.526   3.793   6.893
 8131SOL    HW236425   6.573   3.869   7.030
 8132SOL     OW36426   6.291   4.774   5.954
 8132SOL    HW136427   6.277   4.781   6.053
 8132SOL    HW236428   6.375   4.723   5.936
 8133SOL     OW36429   5.996   4.537   6.837
 8133SOL    HW136430   6.082   4.549   6.887
 8133SOL    HW236431   5.954   4.450   6.864
 8134SOL     OW36432   6.860   4.110   6.848
 8134SOL    HW136433   6.881   4.184   6.912
 8134SOL    HW236434   6.771   4.127   6.805
 8135SOL     OW36435   5.650   5.288   6.917
 8135SOL    HW136436   5.604   5.370   6.883
 8135SOL    HW236437   5.748   5.307   6.926
 8136SOL     OW36438   5.953   4.824   6.087
 8136SOL    HW136439   5.946   4.907   6.031
 8136SOL    HW236440   5.957   4.744   6.027
 8137SOL     OW36441   6.152   4.261   6.451
 8137SOL    HW136442   6.164   4.327   6.377
 8137SOL    HW236443   6.198   4.295   6.534
 8138SOL     OW36444   6.838   5.072   5.974
 8138SOL    HW136445   6.888   5.149   6.014
 8138SOL    HW236446   6.743   5.074   6.006
 8139SOL     OW36447   6.858   5.169   6.728
 8139SOL    HW136448   6.905   5.182   6.815
 8139SOL    HW236449   6.792   5.095   6.737
 8140SOL     OW36450   7.168   4.363   6.058
 8140SOL    HW136451   7.137   4.424   6.131
 8140SOL    HW236452   7.218   4.415   5.989
 8141SOL     OW36453   5.940   5.234   6.915
 8141SOL    HW136454   5.919   5.190   6.828
 8141SOL    HW236455   6.037   5.260   6.918
 8142SOL     OW36456   5.988   4.475   7.184
 8142SOL    HW136457   6.056   4.530   7.137
 8142SOL    HW236458   6.028   4.387   7.211
 8143SOL     OW36459   7.173   4.503   7.256
 8143SOL    HW136460   7.081   4.541   7.251
 8143SOL    HW236461   7.233   4.550   7.191
 8144SOL     OW36462   6.159   4.594   6.615
 8144SOL    HW136463   6.203   4.683   6.606
 8144SOL    HW236464   6.096   4.594   6.692
 8145SOL     OW36465   6.946   4.586   6.631
 8145SOL    HW136466   6.871   4.586   6.565
 8145SOL    HW236467   6.983   4.494   6.640
 8146SOL     OW36468   5.893   3.937   6.817
 8146SOL    HW136469   5.870   3.974   6.907
 8146SOL    HW236470   5.863   3.842   6.811
 8147SOL     OW36471   5.623   5.034   6.868
 8147SOL    HW136472   5.676   4.985   6.936
 8147SOL    HW236473   5.645   5.132   6.873
 8148SOL     OW36474   6.318   4.358   6.650
 8148SOL    HW136475   6.377   4.332   6.574
 8148SOL    HW236476   6.290   4.454   6.639
 8149SOL     OW36477   6.609   4.490   6.552
 8149SOL    HW136478   6.624   4.511   6.648
 8149SOL    HW236479   6.579   4.395   6.543
 8150SOL     OW36480   6.566   5.297   7.286
 8150SOL    HW136481   6.546   5.341   7.198
 8150SOL    HW236482   6.605   5.206   7.270
 8151SOL     OW36483   7.126   3.998   5.711
 8151SOL    HW136484   7.065   3.923   5.734
 8151SOL    HW236485   7.148   4.050   5.794
 8152SOL     OW36486   6.889   4.562   5.628
 8152SOL    HW136487   6.923   4.469   5.643
 8152SOL    HW236488   6.907   4.589   5.533
 8153SOL     OW36489   6.654   5.057   6.435
 8153SOL    HW136490   6.661   4.973   6.380
 8153SOL    HW236491   6.716   5.126   6.399
 8154SOL     OW36492   5.905   4.534   6.535
 8154SOL    HW136493   5.998   4.570   6.540
 8154SOL    HW236494   5.899   4.449   6.587
 8155SOL     OW36495   6.724   4.104   7.264
 8155SOL    HW136496   6.679   4.167   7.328
 8155SOL    HW236497   6.817   4.135   7.247
 8156SOL     OW36498   6.746   3.931   7.063
 8156SOL    HW136499   6.746   3.995   7.140
 8156SOL    HW236500   6.774   3.979   6.980
 8157SOL     OW36501   5.674   5.525   6.513
 8157SOL    HW136502   5.632   5.439   6.486
 8157SOL    HW236503   5.768   5.528   6.479
 8158SOL     OW36504   6.090   5.292   6.496
 8158SOL    HW136505   6.156   5.366   6.505
 8158SOL    HW236506   6.134   5.213   6.454
 8159SOL     OW36507   6.588   4.520   6.824
 8159SOL    HW136508   6.629   4.488   6.910
 8159SOL    HW236509   6.492   4.493   6.821
 8160SOL     OW36510   5.626   4.268   6.700
 8160SOL    HW136511   5.711   4.235   6.659
 8160SOL    HW236512   5.639   4.283   6.798
 8161SOL     OW36513   6.401   4.296   5.911
 8161SOL    HW136514   6.408   4.207   5.865
 8161SOL    HW236515   6.307   4.330   5.903
 8162SOL     OW36516   7.243   4.328   6.792
 8162SOL    HW136517   7.205   4.259   6.854
 8162SOL    HW236518   7.325   4.292   6.748
 8163SOL     OW36519   6.257   4.188   6.855
 8163SOL    HW136520   6.223   4.099   6.825
 8163SOL    HW236521   6.283   4.242   6.775
 8164SOL     OW36522   6.516   5.402   7.051
 8164SOL    HW136523   6.492   5.384   6.956
 8164SOL    HW236524   6.546   5.496   7.061
 8165SOL     OW36525   6.059   4.224   5.777
 8165SOL    HW136526   6.120   4.304   5.781
 8165SOL    HW236527   5.964   4.255   5.784
 8166SOL     OW36528   5.745   4.861   7.052
 8166SOL    HW136529   5.767   4.800   7.128
 8166SOL    HW236530   5.755   4.812   6.966
 8167SOL     OW36531   6.933   4.783   6.820
 8167SOL    HW136532   6.957   4.720   6.746
 8167SOL    HW236533   6.843   4.823   6.802
 8168SOL     OW36534   6.888   4.579   5.895
 8168SOL    HW136535   6.802   4.548   5.937
 8168SOL    HW236536   6.884   4.565   5.796
 8169SOL     OW36537   7.345   5.471   6.740
 8169SOL    HW136538   7.406   5.501   6.667
 8169SOL    HW236539   7.307   5.382   6.718
 8170SOL     OW36540   6.838   5.455   6.714
 8170SOL    HW136541   6.922   5.460   6.660
 8170SOL    HW236542   6.815   5.359   6.732
 8171SOL     OW36543   5.669   4.982   6.608
 8171SOL    HW136544   5.664   4.981   6.708
 8171SOL    HW236545   5.586   4.941   6.570
 8172SOL     OW36546   7.312   3.859   6.109
 8172SOL    HW136547   7.385   3.842   6.042
 8172SOL    HW236548   7.281   3.772   6.147
 8173SOL     OW36549   6.974   5.297   6.063
 8173SOL    HW136550   7.041   5.309   5.989
 8173SOL    HW236551   6.934   5.386   6.086
 8174SOL     OW36552   6.866   4.651   6.258
 8174SOL    HW136553   6.926   4.570   6.260
 8174SOL    HW236554   6.906   4.720   6.198
 8175SOL     OW36555   6.258   5.340   5.740
 8175SOL    HW136556   6.267   5.350   5.641
 8175SOL    HW236557   6.218   5.251   5.761
 8176SOL     OW36558   7.236   5.444   6.980
 8176SOL    HW136559   7.289   5.454   6.896
 8176SOL    HW236560   7.209   5.534   7.014
 8177SOL     OW36561   7.427   3.899   6.549
 8177SOL    HW136562   7.466   3.814   6.513
 8177SOL    HW236563   7.329   3.901   6.530
 8178SOL     OW36564   6.780   5.336   5.617
 8178SOL    HW136565   6.786   5.243   5.654
 8178SOL    HW236566   6.721   5.336   5.537
 8179SOL     OW36567   6.408   4.726   6.958
 8179SOL    HW136568   6.448   4.725   6.866
 8179SOL    HW236569   6.418   4.818   6.998
 8180SOL     OW36570   6.502   4.634   5.877
 8180SOL    HW136571   6.565   4.672   5.809
 8180SOL    HW236572   6.542   4.551   5.916
 8181SOL     OW36573   7.090   5.331   5.630
 8181SOL    HW136574   6.998   5.368   5.637
 8181SOL    HW236575   7.128   5.351   5.540
 8182SOL     OW36576   5.958   5.012   7.076
 8182SOL    HW136577   5.945   5.105   7.042
 8182SOL    HW236578   5.874   4.960   7.063
 8183SOL     OW36579   7.200   5.016   6.875
 8183SOL    HW136580   7.260   5.019   6.955
 8183SOL    HW236581   7.125   5.080   6.888
 8184SOL     OW36582   6.625   4.822   6.282
 8184SOL    HW136583   6.555   4.775   6.336
 8184SOL    HW236584   6.684   4.754   6.239
 8185SOL     OW36585   6.600   3.960   6.557
 8185SOL    HW136586   6.592   3.924   6.464
 8185SOL    HW236587   6.598   3.884   6.622
 8186SOL     OW36588   6.176   5.211   6.077
 8186SOL    HW136589   6.218   5.153   6.007
 8186SOL    HW236590   6.132   5.290   6.033
 8187SOL     OW36591   7.295   4.109   6.967
 8187SOL    HW136592   7.368   4.178   6.971
 8187SOL    HW236593   7.323   4.034   6.908
 8188SOL     OW36594   5.841   5.072   5.876
 8188SOL    HW136595   5.745   5.073   5.849
 8188SOL    HW236596   5.853   5.125   5.960
 8189SOL     OW36597   7.026   4.580   6.984
 8189SOL    HW136598   6.969   4.632   6.921
 8189SOL    HW236599   7.122   4.592   6.960
 8190SOL     OW36600   5.658   3.890   5.904
 8190SOL    HW136601   5.641   3.973   5.850
 8190SOL    HW236602   5.748   3.853   5.882
 8191SOL     OW36603   6.769   5.059   5.705
 8191SOL    HW136604   6.670   5.048   5.707
 8191SOL    HW236605   6.803   5.074   5.798
 8192SOL     OW36606   6.199   4.566   7.017
 8192SOL    HW136607   6.255   4.647   7.000
 8192SOL    HW236608   6.258   4.486   7.020
 8193SOL     OW36609   7.079   5.491   6.545
 8193SOL    HW136610   7.112   5.555   6.476
 8193SOL    HW236611   7.145   5.485   6.620
 8194SOL     OW36612   5.976   5.465   7.146
 8194SOL    HW136613   5.885   5.506   7.144
 8194SOL    HW236614   5.969   5.371   7.178
 8195SOL     OW36615   7.260   4.607   6.840
 8195SOL    HW136616   7.233   4.518   6.803
 8195SOL    HW236617   7.261   4.675   6.767
 8196SOL     OW36618   6.180   4.469   6.238
 8196SOL    HW136619   6.230   4.554   6.219
 8196SOL    HW236620   6.092   4.471   6.190
 8197SOL     OW36621   7.363   4.066   7.228
 8197SOL    HW136622   7.346   4.097   7.134
 8197SOL    HW236623   7.279   4.029   7.266
 8198SOL     OW36624   7.316   4.658   7.103
 8198SOL    HW136625   7.354   4.749   7.118
 8198SOL    HW236626   7.308   4.641   7.004
 8199SOL     OW36627   6.445   5.098   5.602
 8199SOL    HW136628   6.399   5.113   5.690
 8199SOL    HW236629   6.489   5.183   5.572
 8200SOL     OW36630   6.247   5.514   6.539
 8200SOL    HW136631   6.201   5.602   6.526
 8200SOL    HW236632   6.346   5.526   6.532
 8201SOL     OW36633   6.445   4.680   6.447
 8201SOL    HW136634   6.499   4.611   6.495
 8201SOL    HW236635   6.413   4.749   6.513
 8202SOL     OW36636   6.669   4.708   5.673
 8202SOL    HW136637   6.646   4.761   5.591
 8202SOL    HW236638   6.750   4.652   5.654
 8203SOL     OW36639   7.447   5.293   6.437
 8203SOL    HW136640   7.376   5.281   6.367
 8203SOL    HW236641   7.448   5.214   6.497
 8204SOL     OW36642   5.665   4.964   6.239
 8204SOL    HW136643   5.664   4.917   6.327
 8204SOL    HW236644   5.747   4.936   6.188
 8205SOL     OW36645   7.410   3.916   6.813
 8205SOL    HW136646   7.406   3.826   6.857
 8205SOL    HW236647   7.413   3.905   6.714
 8206SOL     OW36648   6.014   4.148   6.106
 8206SOL    HW136649   6.044   4.076   6.044
 8206SOL    HW236650   5.975   4.108   6.189
 8207SOL     OW36651   7.291   5.211   6.690
 8207SOL    HW136652   7.198   5.186   6.663
 8207SOL    HW236653   7.317   5.161   6.772
 8208SOL     OW36654   5.903   4.271   6.866
 8208SOL    HW136655   5.941   4.212   6.938
 8208SOL    HW236656   5.943   4.245   6.778
 8209SOL     OW36657   6.398   5.310   6.273
 8209SOL    HW136658   6.430   5.320   6.179
 8209SOL    HW236659   6.319   5.248   6.275
 8210SOL     OW36660   7.010   3.938   6.698
 8210SOL    HW136661   7.062   3.873   6.753
 8210SOL    HW236662   6.961   4.001   6.759
 8211SOL     OW36663   6.587   3.758   6.740
 8211SOL    HW136664   6.524   3.686   6.709
 8211SOL    HW236665   6.680   3.722   6.740
 8212SOL     OW36666   6.356   5.054   5.887
 8212SOL    HW136667   6.310   4.967   5.904
 8212SOL    HW236668   6.447   5.051   5.928
 8213SOL     OW36669   6.204   5.291   6.870
 8213SOL    HW136670   6.199   5.373   6.927
 8213SOL    HW236671   6.293   5.288   6.825
 8214SOL     OW36672   6.886   4.177   6.277
 8214SOL    HW136673   6.827   4.257   6.281
 8214SOL    HW236674   6.901   4.142   6.370
 8215SOL     OW36675   7.179   3.945   6.468
 8215SOL    HW136676   7.095   3.944   6.522
 8215SOL    HW236677   7.181   4.028   6.412
 8216SOL     OW36678   6.461   5.370   5.923
 8216SOL    HW136679   6.384   5.335   5.869
 8216SOL    HW236680   6.429   5.441   5.985
 8217SOL     OW36681   5.816   6.214   0.113
 8217SOL    HW136682   5.723   6.212   0.150
 8217SOL    HW236683   5.817   6.175   0.021
 8218SOL     OW36684   5.811   5.861   0.996
 8218SOL    HW136685   5.846   5.844   1.088
 8218SOL    HW236686   5.723   5.816   0.984
 8219SOL     OW36687   5.605   5.954   0.647
 8219SOL    HW136688   5.523   5.997   0.686
 8219SOL    HW236689   5.577   5.881   0.584
 8220SOL     OW36690   6.155   6.861   1.165
 8220SOL    HW136691   6.062   6.854   1.128
 8220SOL    HW236692   6.166   6.950   1.209
 8221SOL     OW36693   7.141   7.097   0.703
 8221SOL    HW136694   7.084   7.081   0.784
 8221SOL    HW236695   7.082   7.107   0.623
 8222SOL     OW36696   6.721   6.289   0.717
 8222SOL    HW136697   6.778   6.367   0.692
 8222SOL    HW236698   6.661   6.315   0.793
 8223SOL     OW36699   7.341   6.193   0.231
 8223SOL    HW136700   7.329   6.180   0.132
 8223SOL    HW236701   7.311   6.112   0.280
 8224SOL     OW36702   6.354   6.730   1.023
 8224SOL    HW136703   6.276   6.747   1.083
 8224SOL    HW236704   6.388   6.817   0.987
 8225SOL     OW36705   6.436   6.384   1.823
 8225SOL    HW136706   6.432   6.460   1.888
 8225SOL    HW236707   6.458   6.420   1.732
 8226SOL     OW36708   6.271   6.598   0.665
 8226SOL    HW136709   6.340   6.582   0.735
 8226SOL    HW236710   6.198   6.655   0.703
 8227SOL     OW36711   5.921   7.021   1.061
 8227SOL    HW136712   5.843   6.990   1.008
 8227SOL    HW236713   5.979   7.079   1.004
 8228SOL     OW36714   7.046   7.091   1.339
 8228SOL    HW136715   7.070   7.185   1.365
 8228SOL    HW236716   7.030   7.037   1.421
 8229SOL     OW36717   6.024   5.978   1.499
 8229SOL    HW136718   6.106   5.922   1.508
 8229SOL    HW236719   5.943   5.920   1.503
 8230SOL     OW36720   7.189   6.033   0.737
 8230SOL    HW136721   7.115   6.079   0.687
 8230SOL    HW236722   7.240   6.101   0.790
 8231SOL     OW36723   5.817   7.299   0.483
 8231SOL    HW136724   5.851   7.376   0.537
 8231SOL    HW236725   5.861   7.299   0.393
 8232SOL     OW36726   5.816   7.020   0.538
 8232SOL    HW136727   5.790   7.116   0.538
 8232SOL    HW236728   5.745   6.966   0.583
 8233SOL     OW36729   5.826   6.677   0.886
 8233SOL    HW136730   5.840   6.593   0.938
 8233SOL    HW236731   5.771   6.741   0.941
 8234SOL     OW36732   6.206   7.372   1.439
 8234SOL    HW136733   6.114   7.355   1.474
 8234SOL    HW236734   6.234   7.464   1.465
 8235SOL     OW36735   6.192   6.550   0.123
 8235SOL    HW136736   6.199   6.634   0.069
 8235SOL    HW236737   6.238   6.563   0.211
 8236SOL     OW36738   7.180   5.700   1.480
 8236SOL    HW136739   7.162   5.767   1.408
 8236SOL    HW236740   7.177   5.746   1.569
 8237SOL     OW36741   5.708   6.229   0.563
 8237SOL    HW136742   5.663   6.141   0.580
 8237SOL    HW236743   5.707   6.283   0.647
 8238SOL     OW36744   7.428   7.353   0.359
 8238SOL    HW136745   7.482   7.324   0.439
 8238SOL    HW236746   7.458   7.443   0.330
 8239SOL     OW36747   5.613   7.182   0.117
 8239SOL    HW136748   5.594   7.086   0.138
 8239SOL    HW236749   5.580   7.240   0.192
 8240SOL     OW36750   7.275   6.508   0.612
 8240SOL    HW136751   7.370   6.479   0.620
 8240SOL    HW236752   7.267   6.573   0.537
 8241SOL     OW36753   7.227   6.694   0.432
 8241SOL    HW136754   7.313   6.696   0.380
 8241SOL    HW236755   7.241   6.741   0.520
 8242SOL     OW36756   5.699   6.323   1.597
 8242SOL    HW136757   5.787   6.310   1.642
 8242SOL    HW236758   5.686   6.420   1.575
 8243SOL     OW36759   6.199   6.951   0.726
 8243SOL    HW136760   6.150   6.864   0.735
 8243SOL    HW236761   6.176   6.994   0.639
 8244SOL     OW36762   6.395   5.590   0.502
 8244SOL    HW136763   6.435   5.681   0.493
 8244SOL    HW236764   6.295   5.598   0.508
 8245SOL     OW36765   5.783   6.562   1.264
 8245SOL    HW136766   5.872   6.517   1.250
 8245SOL    HW236767   5.710   6.497   1.245
 8246SOL     OW36768   7.111   6.585   0.190
 8246SOL    HW136769   7.048   6.509   0.203
 8246SOL    HW236770   7.159   6.603   0.276
 8247SOL     OW36771   6.773   7.378   1.616
 8247SOL    HW136772   6.797   7.438   1.540
 8247SOL    HW236773   6.780   7.283   1.586
 8248SOL     OW36774   7.052   7.003   0.953
 8248SOL    HW136775   6.993   7.009   1.033
 8248SOL    HW236776   7.037   6.915   0.907
 8249SOL     OW36777   7.253   7.300   0.572
 8249SOL    HW136778   7.212   7.277   0.484
 8249SOL    HW236779   7.235   7.226   0.637
 8250SOL     OW36780   6.184   6.315   0.270
 8250SOL    HW136781   6.208   6.384   0.202
 8250SOL    HW236782   6.106   6.348   0.324
 8251SOL     OW36783   6.867   5.931   0.944
 8251SOL    HW136784   6.781   5.881   0.931
 8251SOL    HW236785   6.929   5.877   1.000
 8252SOL     OW36786   7.162   7.248   0.307
 8252SOL    HW136787   7.251   7.294   0.310
 8252SOL    HW236788   7.141   7.224   0.212
 8253SOL     OW36789   6.980   6.055   1.674
 8253SOL    HW136790   6.960   6.098   1.762
 8253SOL    HW236791   7.058   5.993   1.683
 8254SOL     OW36792   6.559   6.476   1.572
 8254SOL    HW136793   6.605   6.392   1.543
 8254SOL    HW236794   6.503   6.510   1.497
 8255SOL     OW36795   6.577   5.996   1.242
 8255SOL    HW136796   6.500   6.030   1.296
 8255SOL    HW236797   6.543   5.945   1.163
 8256SOL     OW36798   6.627   6.287   0.429
 8256SOL    HW136799   6.653   6.283   0.525
 8256SOL    HW236800   6.542   6.236   0.415
 8257SOL     OW36801   5.662   6.397   0.789
 8257SOL    HW136802   5.761   6.385   0.798
 8257SOL    HW236803   5.638   6.492   0.810
 8258SOL     OW36804   6.451   5.934   0.195
 8258SOL    HW136805   6.510   5.997   0.146
 8258SOL    HW236806   6.470   5.840   0.166
 8259SOL     OW36807   7.305   6.171   1.831
 8259SOL    HW136808   7.279   6.260   1.795
 8259SOL    HW236809   7.303   6.103   1.758
 8260SOL     OW36810   6.948   6.730   0.545
 8260SOL    HW136811   7.031   6.701   0.497
 8260SOL    HW236812   6.899   6.797   0.489
 8261SOL     OW36813   6.136   5.782   0.885
 8261SOL    HW136814   6.131   5.777   0.985
 8261SOL    HW236815   6.138   5.878   0.856
 8262SOL     OW36816   6.594   7.042   0.477
 8262SOL    HW136817   6.548   7.114   0.425
 8262SOL    HW236818   6.590   7.062   0.575
 8263SOL     OW36819   5.937   7.387   0.853
 8263SOL    HW136820   5.987   7.301   0.859
 8263SOL    HW236821   6.002   7.464   0.850
 8264SOL     OW36822   7.381   6.652   0.873
 8264SOL    HW136823   7.319   6.637   0.797
 8264SOL    HW236824   7.329   6.663   0.958
 8265SOL     OW36825   6.813   7.136   1.506
 8265SOL    HW136826   6.819   7.059   1.570
 8265SOL    HW236827   6.761   7.110   1.426
 8266SOL     OW36828   5.907   6.529   0.242
 8266SOL    HW136829   5.989   6.568   0.200
 8266SOL    HW236830   5.880   6.447   0.193
 8267SOL     OW36831   7.044   6.321   0.728
 8267SOL    HW136832   7.039   6.256   0.803
 8267SOL    HW236833   7.124   6.380   0.741
 8268SOL     OW36834   6.697   7.362   0.237
 8268SOL    HW136835   6.637   7.300   0.287
 8268SOL    HW236836   6.728   7.318   0.152
 8269SOL     OW36837   7.218   6.963   0.081
 8269SOL    HW136838   7.186   7.057   0.071
 8269SOL    HW236839   7.142   6.900   0.069
 8270SOL     OW36840   6.050   7.329   0.323
 8270SOL    HW136841   6.083   7.368   0.409
 8270SOL    HW236842   6.126   7.322   0.258
 8271SOL     OW36843   6.986   5.693   0.426
 8271SOL    HW136844   6.962   5.656   0.336
 8271SOL    HW236845   7.085   5.709   0.430
 8272SOL     OW36846   5.835   7.371   1.241
 8272SOL    HW136847   5.892   7.306   1.291
 8272SOL    HW236848   5.819   7.338   1.148
 8273SOL     OW36849   6.526   7.284   0.904
 8273SOL    HW136850   6.606   7.227   0.925
 8273SOL    HW236851   6.477   7.244   0.827
 8274SOL     OW36852   5.968   6.286   0.480
 8274SOL    HW136853   6.013   6.196   0.477
 8274SOL    HW236854   5.874   6.275   0.513
 8275SOL     OW36855   7.133   5.808   1.729
 8275SOL    HW136856   7.128   5.845   1.821
 8275SOL    HW236857   7.061   5.739   1.717
 8276SOL     OW36858   6.200   5.708   0.117
 8276SOL    HW136859   6.298   5.686   0.124
 8276SOL    HW236860   6.169   5.691   0.024
 8277SOL     OW36861   6.474   7.100   1.195
 8277SOL    HW136862   6.451   7.075   1.101
 8277SOL    HW236863   6.535   7.031   1.234
 8278SOL     OW36864   6.937   6.176   1.433
 8278SOL    HW136865   6.965   6.133   1.518
 8278SOL    HW236866   6.962   6.272   1.434
 8279SOL     OW36867   6.389   6.988   0.924
 8279SOL    HW136868   6.479   7.002   0.882
 8279SOL    HW236869   6.318   6.990   0.853
 8280SOL     OW36870   6.508   6.089   0.899
 8280SOL    HW136871   6.483   6.080   0.803
 8280SOL    HW236872   6.556   6.007   0.930
 8281SOL     OW36873   6.125   5.650   0.512
 8281SOL    HW136874   6.044   5.651   0.570
 8281SOL    HW236875   6.128   5.733   0.457
 8282SOL     OW36876   7.020   6.774   0.041
 8282SOL    HW136877   7.052   6.698   0.098
 8282SOL    HW236878   6.928   6.801   0.071
 8283SOL     OW36879   5.883   5.621   0.171
 8283SOL    HW136880   5.932   5.705   0.150
 8283SOL    HW236881   5.945   5.556   0.216
 8284SOL     OW36882   6.521   5.822   0.480
 8284SOL    HW136883   6.473   5.863   0.402
 8284SOL    HW236884   6.620   5.820   0.461
 8285SOL     OW36885   6.662   6.269   1.464
 8285SOL    HW136886   6.582   6.208   1.467
 8285SOL    HW236887   6.743   6.216   1.440
 8286SOL     OW36888   6.813   7.156   0.793
 8286SOL    HW136889   6.834   7.230   0.728
 8286SOL    HW236890   6.881   7.156   0.866
 8287SOL     OW36891   6.045   6.738   0.741
 8287SOL    HW136892   5.974   6.711   0.806
 8287SOL    HW236893   6.019   6.710   0.648
 8288SOL     OW36894   6.857   7.383   0.591
 8288SOL    HW136895   6.901   7.447   0.527
 8288SOL    HW236896   6.807   7.435   0.661
 8289SOL     OW36897   6.618   6.135   0.016
 8289SOL    HW136898   6.577   6.217  -0.023
 8289SOL    HW236899   6.682   6.161   0.089
 8290SOL     OW36900   5.664   6.142   1.386
 8290SOL    HW136901   5.756   6.141   1.345
 8290SOL    HW236902   5.658   6.216   1.453
 8291SOL     OW36903   6.147   5.808   1.147
 8291SOL    HW136904   6.185   5.724   1.184
 8291SOL    HW236905   6.059   5.827   1.191
 8292SOL     OW36906   6.452   6.040   0.642
 8292SOL    HW136907   6.420   6.112   0.580
 8292SOL    HW236908   6.476   5.959   0.589
 8293SOL     OW36909   6.603   5.625   0.753
 8293SOL    HW136910   6.531   5.630   0.684
 8293SOL    HW236911   6.579   5.556   0.822
 8294SOL     OW36912   7.015   6.759   0.867
 8294SOL    HW136913   6.960   6.675   0.860
 8294SOL    HW236914   7.041   6.788   0.775
 8295SOL     OW36915   7.052   6.176   0.992
 8295SOL    HW136916   7.022   6.081   0.999
 8295SOL    HW236917   7.125   6.192   1.058
 8296SOL     OW36918   7.443   6.419   0.377
 8296SOL    HW136919   7.485   6.355   0.441
 8296SOL    HW236920   7.405   6.368   0.299
 8297SOL     OW36921   6.074   6.971   0.174
 8297SOL    HW136922   5.987   6.956   0.221
 8297SOL    HW236923   6.057   6.997   0.079
 8298SOL     OW36924   7.250   6.866   0.657
 8298SOL    HW136925   7.349   6.874   0.671
 8298SOL    HW236926   7.205   6.950   0.688
 8299SOL     OW36927   6.976   6.161   0.078
 8299SOL    HW136928   6.922   6.140   0.159
 8299SOL    HW236929   7.067   6.120   0.087
 8300SOL     OW36930   6.113   5.842   0.328
 8300SOL    HW136931   6.140   5.783   0.253
 8300SOL    HW236932   6.113   5.937   0.297
 8301SOL     OW36933   6.650   6.933   1.340
 8301SOL    HW136934   6.570   6.910   1.395
 8301SOL    HW236935   6.733   6.907   1.389
 8302SOL     OW36936   6.697   6.781   1.100
 8302SOL    HW136937   6.657   6.825   1.181
 8302SOL    HW236938   6.656   6.818   1.017
 8303SOL     OW36939   7.224   6.685   1.079
 8303SOL    HW136940   7.229   6.766   1.138
 8303SOL    HW236941   7.138   6.687   1.028
 8304SOL     OW36942   6.566   6.702   1.719
 8304SOL    HW136943   6.467   6.708   1.729
 8304SOL    HW236944   6.589   6.622   1.663
 8305SOL     OW36945   6.291   6.636   0.368
 8305SOL    HW136946   6.277   6.643   0.467
 8305SOL    HW236947   6.375   6.585   0.350
 8306SOL     OW36948   5.996   6.399   1.251
 8306SOL    HW136949   6.082   6.411   1.301
 8306SOL    HW236950   5.954   6.312   1.278
 8307SOL     OW36951   6.860   5.972   1.262
 8307SOL    HW136952   6.881   6.046   1.326
 8307SOL    HW236953   6.771   5.989   1.219
 8308SOL     OW36954   5.953   6.686   0.501
 8308SOL    HW136955   5.946   6.769   0.445
 8308SOL    HW236956   5.957   6.606   0.441
 8309SOL     OW36957   6.152   6.123   0.865
 8309SOL    HW136958   6.164   6.189   0.791
 8309SOL    HW236959   6.198   6.157   0.948
 8310SOL     OW36960   6.838   6.934   0.388
 8310SOL    HW136961   6.888   7.011   0.428
 8310SOL    HW236962   6.743   6.936   0.420
 8311SOL     OW36963   6.858   7.031   1.142
 8311SOL    HW136964   6.905   7.044   1.229
 8311SOL    HW236965   6.792   6.957   1.151
 8312SOL     OW36966   7.168   6.225   0.472
 8312SOL    HW136967   7.137   6.286   0.545
 8312SOL    HW236968   7.218   6.277   0.403
 8313SOL     OW36969   5.940   7.096   1.329
 8313SOL    HW136970   5.919   7.052   1.242
 8313SOL    HW236971   6.037   7.122   1.332
 8314SOL     OW36972   5.988   6.337   1.598
 8314SOL    HW136973   6.056   6.392   1.551
 8314SOL    HW236974   6.028   6.249   1.625
 8315SOL     OW36975   7.173   6.365   1.670
 8315SOL    HW136976   7.081   6.403   1.665
 8315SOL    HW236977   7.233   6.412   1.605
 8316SOL     OW36978   6.090   5.636   1.740
 8316SOL    HW136979   6.048   5.579   1.670
 8316SOL    HW236980   6.024   5.705   1.772
 8317SOL     OW36981   6.159   6.456   1.029
 8317SOL    HW136982   6.203   6.545   1.020
 8317SOL    HW236983   6.096   6.456   1.106
 8318SOL     OW36984   6.946   6.448   1.045
 8318SOL    HW136985   6.871   6.448   0.979
 8318SOL    HW236986   6.983   6.356   1.054
 8319SOL     OW36987   6.795   6.111   0.275
 8319SOL    HW136988   6.808   6.027   0.329
 8319SOL    HW236989   6.766   6.185   0.335
 8320SOL     OW36990   5.893   5.799   1.231
 8320SOL    HW136991   5.870   5.836   1.321
 8320SOL    HW236992   5.863   5.704   1.225
 8321SOL     OW36993   5.623   6.896   1.282
 8321SOL    HW136994   5.676   6.847   1.350
 8321SOL    HW236995   5.645   6.994   1.287
 8322SOL     OW36996   6.318   6.220   1.064
 8322SOL    HW136997   6.377   6.194   0.988
 8322SOL    HW236998   6.290   6.316   1.053
 8323SOL     OW36999   7.314   6.521   1.854
 8323SOL    HW137000   7.268   6.514   1.765
 8323SOL    HW237001   7.252   6.565   1.920
 8324SOL     OW37002   5.893   5.649   0.618
 8324SOL    HW137003   5.882   5.743   0.651
 8324SOL    HW237004   5.888   5.586   0.695
 8325SOL     OW37005   7.208   5.953   0.374
 8325SOL    HW137006   7.210   5.877   0.438
 8325SOL    HW237007   7.160   6.030   0.414
 8326SOL     OW37008   6.609   6.352   0.966
 8326SOL    HW137009   6.624   6.373   1.062
 8326SOL    HW237010   6.579   6.257   0.957
 8327SOL     OW37011   7.126   5.860   0.125
 8327SOL    HW137012   7.065   5.785   0.148
 8327SOL    HW237013   7.148   5.912   0.208
 8328SOL     OW37014   6.889   6.424   0.042
 8328SOL    HW137015   6.923   6.331   0.057
 8328SOL    HW237016   6.907   6.451  -0.053
 8329SOL     OW37017   6.654   6.919   0.849
 8329SOL    HW137018   6.661   6.835   0.794
 8329SOL    HW237019   6.716   6.988   0.813
 8330SOL     OW37020   5.905   6.396   0.949
 8330SOL    HW137021   5.998   6.432   0.954
 8330SOL    HW237022   5.899   6.311   1.001
 8331SOL     OW37023   5.925   6.095   1.006
 8331SOL    HW137024   5.873   6.012   0.989
 8331SOL    HW237025   6.002   6.100   0.942
 8332SOL     OW37026   5.594   6.912   0.200
 8332SOL    HW137027   5.501   6.933   0.169
 8332SOL    HW237028   5.604   6.813   0.213
 8333SOL     OW37029   5.674   7.387   0.927
 8333SOL    HW137030   5.632   7.301   0.900
 8333SOL    HW237031   5.768   7.390   0.893
 8334SOL     OW37032   6.090   7.154   0.910
 8334SOL    HW137033   6.156   7.228   0.919
 8334SOL    HW237034   6.134   7.075   0.868
 8335SOL     OW37035   6.588   6.382   1.238
 8335SOL    HW137036   6.629   6.350   1.324
 8335SOL    HW237037   6.492   6.355   1.235
 8336SOL     OW37038   5.626   6.130   1.114
 8336SOL    HW137039   5.711   6.097   1.073
 8336SOL    HW237040   5.639   6.145   1.212
 8337SOL     OW37041   5.775   6.106   1.722
 8337SOL    HW137042   5.834   6.066   1.652
 8337SOL    HW237043   5.717   6.177   1.681
 8338SOL     OW37044   6.401   6.158   0.325
 8338SOL    HW137045   6.408   6.069   0.279
 8338SOL    HW237046   6.307   6.192   0.317
 8339SOL     OW37047   7.243   6.190   1.206
 8339SOL    HW137048   7.205   6.121   1.268
 8339SOL    HW237049   7.325   6.154   1.162
 8340SOL     OW37050   5.838   7.150   1.744
 8340SOL    HW137051   5.808   7.207   1.820
 8340SOL    HW237052   5.831   7.053   1.770
 8341SOL     OW37053   6.257   6.050   1.269
 8341SOL    HW137054   6.223   5.961   1.239
 8341SOL    HW237055   6.283   6.104   1.189
 8342SOL     OW37056   6.059   6.086   0.191
 8342SOL    HW137057   6.120   6.166   0.195
 8342SOL    HW237058   5.964   6.117   0.198
 8343SOL     OW37059   5.745   6.723   1.466
 8343SOL    HW137060   5.767   6.662   1.542
 8343SOL    HW237061   5.755   6.674   1.380
 8344SOL     OW37062   6.933   6.645   1.234
 8344SOL    HW137063   6.957   6.582   1.160
 8344SOL    HW237064   6.843   6.685   1.216
 8345SOL     OW37065   6.888   6.441   0.309
 8345SOL    HW137066   6.802   6.410   0.351
 8345SOL    HW237067   6.884   6.427   0.210
 8346SOL     OW37068   7.345   7.333   1.154
 8346SOL    HW137069   7.406   7.363   1.081
 8346SOL    HW237070   7.307   7.244   1.132
 8347SOL     OW37071   6.838   7.317   1.128
 8347SOL    HW137072   6.922   7.322   1.074
 8347SOL    HW237073   6.815   7.221   1.146
 8348SOL     OW37074   5.669   6.844   1.022
 8348SOL    HW137075   5.664   6.843   1.122
 8348SOL    HW237076   5.586   6.803   0.984
 8349SOL     OW37077   6.489   5.672   0.133
 8349SOL    HW137078   6.540   5.673   0.047
 8349SOL    HW237079   6.545   5.630   0.204
 8350SOL     OW37080   7.312   5.721   0.523
 8350SOL    HW137081   7.385   5.704   0.456
 8350SOL    HW237082   7.281   5.634   0.561
 8351SOL     OW37083   6.974   7.159   0.477
 8351SOL    HW137084   7.041   7.171   0.403
 8351SOL    HW237085   6.934   7.248   0.500
 8352SOL     OW37086   5.716   7.380   1.851
 8352SOL    HW137087   5.675   7.306   1.904
 8352SOL    HW237088   5.780   7.431   1.909
 8353SOL     OW37089   6.866   6.513   0.672
 8353SOL    HW137090   6.926   6.432   0.674
 8353SOL    HW237091   6.906   6.582   0.612
 8354SOL     OW37092   6.416   6.859   1.422
 8354SOL    HW137093   6.411   6.892   1.517
 8354SOL    HW237094   6.330   6.878   1.376
 8355SOL     OW37095   6.258   7.202   0.154
 8355SOL    HW137096   6.267   7.212   0.055
 8355SOL    HW237097   6.218   7.113   0.175
 8356SOL     OW37098   7.236   7.306   1.394
 8356SOL    HW137099   7.289   7.316   1.310
 8356SOL    HW237100   7.209   7.396   1.428
 8357SOL     OW37101   7.427   5.761   0.963
 8357SOL    HW137102   7.466   5.676   0.927
 8357SOL    HW237103   7.329   5.763   0.944
 8358SOL     OW37104   5.849   5.912   0.720
 8358SOL    HW137105   5.770   5.963   0.686
 8358SOL    HW237106   5.840   5.897   0.818
 8359SOL     OW37107   6.780   7.198   0.031
 8359SOL    HW137108   6.786   7.105   0.068
 8359SOL    HW237109   6.721   7.198  -0.049
 8360SOL     OW37110   6.408   6.588   1.372
 8360SOL    HW137111   6.448   6.587   1.280
 8360SOL    HW237112   6.418   6.680   1.412
 8361SOL     OW37113   6.502   6.496   0.291
 8361SOL    HW137114   6.565   6.534   0.223
 8361SOL    HW237115   6.542   6.413   0.330
 8362SOL     OW37116   7.090   7.193   0.044
 8362SOL    HW137117   6.998   7.230   0.051
 8362SOL    HW237118   7.128   7.213  -0.046
 8363SOL     OW37119   5.958   6.874   1.490
 8363SOL    HW137120   5.945   6.967   1.456
 8363SOL    HW237121   5.874   6.822   1.477
 8364SOL     OW37122   7.200   6.878   1.289
 8364SOL    HW137123   7.260   6.881   1.369
 8364SOL    HW237124   7.125   6.942   1.302
 8365SOL     OW37125   6.625   6.684   0.696
 8365SOL    HW137126   6.555   6.637   0.750
 8365SOL    HW237127   6.684   6.616   0.653
 8366SOL     OW37128   6.600   5.822   0.971
 8366SOL    HW137129   6.592   5.786   0.878
 8366SOL    HW237130   6.598   5.746   1.036
 8367SOL     OW37131   6.176   7.073   0.491
 8367SOL    HW137132   6.218   7.015   0.421
 8367SOL    HW237133   6.132   7.152   0.447
 8368SOL     OW37134   7.295   5.971   1.381
 8368SOL    HW137135   7.368   6.040   1.385
 8368SOL    HW237136   7.323   5.896   1.322
 8369SOL     OW37137   5.841   6.934   0.290
 8369SOL    HW137138   5.745   6.935   0.263
 8369SOL    HW237139   5.853   6.987   0.374
 8370SOL     OW37140   5.691   6.599   1.726
 8370SOL    HW137141   5.614   6.566   1.780
 8370SOL    HW237142   5.776   6.569   1.768
 8371SOL     OW37143   6.258   5.789   1.489
 8371SOL    HW137144   6.348   5.773   1.449
 8371SOL    HW237145   6.266   5.794   1.588
 8372SOL     OW37146   7.026   6.442   1.398
 8372SOL    HW137147   6.969   6.494   1.335
 8372SOL    HW237148   7.122   6.454   1.374
 8373SOL     OW37149   5.658   5.752   0.318
 8373SOL    HW137150   5.641   5.835   0.264
 8373SOL    HW237151   5.748   5.715   0.296
 8374SOL     OW37152   6.769   6.921   0.119
 8374SOL    HW137153   6.670   6.910   0.121
 8374SOL    HW237154   6.803   6.936   0.212
 8375SOL     OW37155   6.199   6.428   1.431
 8375SOL    HW137156   6.255   6.509   1.414
 8375SOL    HW237157   6.258   6.348   1.434
 8376SOL     OW37158   7.079   7.353   0.959
 8376SOL    HW137159   7.112   7.417   0.890
 8376SOL    HW237160   7.145   7.347   1.034
 8377SOL     OW37161   7.260   6.469   1.254
 8377SOL    HW137162   7.233   6.380   1.217
 8377SOL    HW237163   7.261   6.537   1.181
 8378SOL     OW37164   6.811   5.911   0.449
 8378SOL    HW137165   6.876   5.837   0.438
 8378SOL    HW237166   6.831   5.961   0.533
 8379SOL     OW37167   6.180   6.331   0.652
 8379SOL    HW137168   6.230   6.416   0.633
 8379SOL    HW237169   6.092   6.333   0.604
 8380SOL     OW37170   7.363   5.928   1.642
 8380SOL    HW137171   7.346   5.959   1.548
 8380SOL    HW237172   7.279   5.891   1.680
 8381SOL     OW37173   7.316   6.520   1.517
 8381SOL    HW137174   7.354   6.611   1.532
 8381SOL    HW237175   7.308   6.503   1.418
 8382SOL     OW37176   6.445   6.960   0.016
 8382SOL    HW137177   6.399   6.975   0.104
 8382SOL    HW237178   6.489   7.045  -0.014
 8383SOL     OW37179   6.247   7.376   0.953
 8383SOL    HW137180   6.201   7.464   0.940
 8383SOL    HW237181   6.346   7.388   0.946
 8384SOL     OW37182   6.445   6.542   0.861
 8384SOL    HW137183   6.499   6.473   0.909
 8384SOL    HW237184   6.413   6.611   0.927
 8385SOL     OW37185   6.669   6.570   0.087
 8385SOL    HW137186   6.646   6.623   0.005
 8385SOL    HW237187   6.750   6.514   0.068
 8386SOL     OW37188   7.447   7.155   0.851
 8386SOL    HW137189   7.376   7.143   0.781
 8386SOL    HW237190   7.448   7.076   0.911
 8387SOL     OW37191   5.665   6.826   0.653
 8387SOL    HW137192   5.664   6.779   0.741
 8387SOL    HW237193   5.747   6.798   0.602
 8388SOL     OW37194   6.258   6.977   1.624
 8388SOL    HW137195   6.180   6.927   1.662
 8388SOL    HW237196   6.255   7.072   1.655
 8389SOL     OW37197   7.410   5.778   1.227
 8389SOL    HW137198   7.406   5.688   1.271
 8389SOL    HW237199   7.413   5.767   1.128
 8390SOL     OW37200   6.014   6.010   0.520
 8390SOL    HW137201   6.044   5.938   0.458
 8390SOL    HW237202   5.975   5.970   0.603
 8391SOL     OW37203   7.291   7.073   1.104
 8391SOL    HW137204   7.198   7.048   1.077
 8391SOL    HW237205   7.317   7.023   1.186
 8392SOL     OW37206   5.903   6.133   1.280
 8392SOL    HW137207   5.941   6.074   1.352
 8392SOL    HW237208   5.943   6.107   1.192
 8393SOL     OW37209   6.398   7.172   0.687
 8393SOL    HW137210   6.430   7.182   0.593
 8393SOL    HW237211   6.319   7.110   0.689
 8394SOL     OW37212   7.010   5.800   1.112
 8394SOL    HW137213   7.062   5.735   1.167
 8394SOL    HW237214   6.961   5.863   1.173
 8395SOL     OW37215   6.587   5.620   1.154
 8395SOL    HW137216   6.524   5.548   1.123
 8395SOL    HW237217   6.680   5.584   1.154
 8396SOL     OW37218   6.356   6.916   0.301
 8396SOL    HW137219   6.310   6.829   0.318
 8396SOL    HW237220   6.447   6.913   0.342
 8397SOL     OW37221   6.204   7.153   1.284
 8397SOL    HW137222   6.199   7.235   1.341
 8397SOL    HW237223   6.293   7.150   1.239
 8398SOL     OW37224   6.938   5.638   0.168
 8398SOL    HW137225   6.973   5.597   0.084
 8398SOL    HW237226   6.848   5.600   0.188
 8399SOL     OW37227   6.886   6.039   0.691
 8399SOL    HW137228   6.827   6.119   0.695
 8399SOL    HW237229   6.901   6.004   0.784
 8400SOL     OW37230   7.179   5.807   0.882
 8400SOL    HW137231   7.095   5.806   0.936
 8400SOL    HW237232   7.181   5.890   0.826
 8401SOL     OW37233   5.625   6.663   0.300
 8401SOL    HW137234   5.724   6.652   0.291
 8401SOL    HW237235   5.585   6.577   0.332
 8402SOL     OW37236   6.461   7.232   0.337
 8402SOL    HW137237   6.384   7.197   0.283
 8402SOL    HW237238   6.429   7.303   0.399
 8403SOL     OW37239   5.816   6.214   1.975
 8403SOL    HW137240   5.723   6.212   2.012
 8403SOL    HW237241   5.817   6.175   1.883
 8404SOL     OW37242   7.141   7.097   2.565
 8404SOL    HW137243   7.084   7.081   2.646
 8404SOL    HW237244   7.082   7.107   2.485
 8405SOL     OW37245   6.721   6.289   2.579
 8405SOL    HW137246   6.778   6.367   2.554
 8405SOL    HW237247   6.661   6.315   2.655
 8406SOL     OW37248   7.341   6.193   2.093
 8406SOL    HW137249   7.329   6.180   1.994
 8406SOL    HW237250   7.311   6.112   2.142
 8407SOL     OW37251   6.271   6.598   2.527
 8407SOL    HW137252   6.340   6.582   2.597
 8407SOL    HW237253   6.198   6.655   2.565
 8408SOL     OW37254   7.046   7.091   3.201
 8408SOL    HW137255   7.070   7.185   3.227
 8408SOL    HW237256   7.030   7.037   3.283
 8409SOL     OW37257   6.024   5.978   3.361
 8409SOL    HW137258   6.106   5.922   3.370
 8409SOL    HW237259   5.943   5.920   3.365
 8410SOL     OW37260   5.817   7.299   2.345
 8410SOL    HW137261   5.851   7.376   2.399
 8410SOL    HW237262   5.861   7.299   2.255
 8411SOL     OW37263   6.713   6.927   3.552
 8411SOL    HW137264   6.760   6.927   3.640
 8411SOL    HW237265   6.665   6.840   3.541
 8412SOL     OW37266   7.253   7.300   2.434
 8412SOL    HW137267   7.212   7.277   2.346
 8412SOL    HW237268   7.235   7.226   2.499
 8413SOL     OW37269   6.980   6.055   3.536
 8413SOL    HW137270   6.960   6.098   3.624
 8413SOL    HW237271   7.058   5.993   3.545
 8414SOL     OW37272   6.577   5.996   3.104
 8414SOL    HW137273   6.500   6.030   3.158
 8414SOL    HW237274   6.543   5.945   3.025
 8415SOL     OW37275   6.047   6.852   3.589
 8415SOL    HW137276   5.997   6.853   3.503
 8415SOL    HW237277   5.984   6.834   3.665
 8416SOL     OW37278   6.697   7.362   2.099
 8416SOL    HW137279   6.637   7.300   2.149
 8416SOL    HW237280   6.728   7.318   2.014
 8417SOL     OW37281   6.200   5.708   1.979
 8417SOL    HW137282   6.298   5.686   1.986
 8417SOL    HW237283   6.169   5.691   1.886
 8418SOL     OW37284   6.367   5.850   3.611
 8418SOL    HW137285   6.434   5.789   3.654
 8418SOL    HW237286   6.294   5.869   3.676
 8419SOL     OW37287   6.474   7.100   3.057
 8419SOL    HW137288   6.451   7.075   2.963
 8419SOL    HW237289   6.535   7.031   3.096
 8420SOL     OW37290   7.020   6.774   1.903
 8420SOL    HW137291   7.052   6.698   1.960
 8420SOL    HW237292   6.928   6.801   1.933
 8421SOL     OW37293   5.883   5.621   2.033
 8421SOL    HW137294   5.932   5.705   2.012
 8421SOL    HW237295   5.945   5.556   2.078
 8422SOL     OW37296   6.662   6.269   3.326
 8422SOL    HW137297   6.582   6.208   3.329
 8422SOL    HW237298   6.743   6.216   3.302
 8423SOL     OW37299   6.857   7.383   2.453
 8423SOL    HW137300   6.901   7.447   2.389
 8423SOL    HW237301   6.807   7.435   2.523
 8424SOL     OW37302   6.147   5.808   3.009
 8424SOL    HW137303   6.185   5.724   3.046
 8424SOL    HW237304   6.059   5.827   3.053
 8425SOL     OW37305   6.452   6.040   2.504
 8425SOL    HW137306   6.420   6.112   2.442
 8425SOL    HW237307   6.476   5.959   2.451
 8426SOL     OW37308   7.052   6.176   2.854
 8426SOL    HW137309   7.022   6.081   2.861
 8426SOL    HW237310   7.125   6.192   2.920
 8427SOL     OW37311   7.250   6.866   2.519
 8427SOL    HW137312   7.349   6.874   2.533
 8427SOL    HW237313   7.205   6.950   2.550
 8428SOL     OW37314   6.113   5.842   2.190
 8428SOL    HW137315   6.140   5.783   2.115
 8428SOL    HW237316   6.113   5.937   2.159
 8429SOL     OW37317   6.650   6.933   3.202
 8429SOL    HW137318   6.570   6.910   3.257
 8429SOL    HW237319   6.733   6.907   3.251
 8430SOL     OW37320   6.697   6.781   2.962
 8430SOL    HW137321   6.657   6.825   3.043
 8430SOL    HW237322   6.656   6.818   2.879
 8431SOL     OW37323   5.650   7.150   3.193
 8431SOL    HW137324   5.604   7.232   3.159
 8431SOL    HW237325   5.748   7.169   3.202
 8432SOL     OW37326   7.173   6.365   3.532
 8432SOL    HW137327   7.081   6.403   3.527
 8432SOL    HW237328   7.233   6.412   3.467
 8433SOL     OW37329   6.599   5.691   3.632
 8433SOL    HW137330   6.605   5.776   3.580
 8433SOL    HW237331   6.631   5.615   3.575
 8434SOL     OW37332   6.946   6.448   2.907
 8434SOL    HW137333   6.871   6.448   2.841
 8434SOL    HW237334   6.983   6.356   2.916
 8435SOL     OW37335   6.318   6.220   2.926
 8435SOL    HW137336   6.377   6.194   2.850
 8435SOL    HW237337   6.290   6.316   2.915
 8436SOL     OW37338   7.314   6.521   3.716
 8436SOL    HW137339   7.268   6.514   3.627
 8436SOL    HW237340   7.252   6.565   3.782
 8437SOL     OW37341   7.445   7.104   3.467
 8437SOL    HW137342   7.459   7.131   3.372
 8437SOL    HW237343   7.528   7.126   3.520
 8438SOL     OW37344   7.126   5.860   1.987
 8438SOL    HW137345   7.065   5.785   2.010
 8438SOL    HW237346   7.148   5.912   2.070
 8439SOL     OW37347   6.889   6.424   1.904
 8439SOL    HW137348   6.923   6.331   1.919
 8439SOL    HW237349   6.907   6.451   1.809
 8440SOL     OW37350   6.654   6.919   2.711
 8440SOL    HW137351   6.661   6.835   2.656
 8440SOL    HW237352   6.716   6.988   2.675
 8441SOL     OW37353   5.674   7.387   2.789
 8441SOL    HW137354   5.632   7.301   2.762
 8441SOL    HW237355   5.768   7.390   2.755
 8442SOL     OW37356   5.775   6.106   3.584
 8442SOL    HW137357   5.834   6.066   3.514
 8442SOL    HW237358   5.717   6.177   3.543
 8443SOL     OW37359   7.243   6.190   3.068
 8443SOL    HW137360   7.205   6.121   3.130
 8443SOL    HW237361   7.325   6.154   3.024
 8444SOL     OW37362   5.838   7.150   3.606
 8444SOL    HW137363   5.808   7.207   3.682
 8444SOL    HW237364   5.831   7.053   3.632
 8445SOL     OW37365   6.516   7.264   3.327
 8445SOL    HW137366   6.492   7.246   3.232
 8445SOL    HW237367   6.546   7.358   3.337
 8446SOL     OW37368   6.059   6.086   2.053
 8446SOL    HW137369   6.120   6.166   2.057
 8446SOL    HW237370   5.964   6.117   2.060
 8447SOL     OW37371   5.745   6.723   3.328
 8447SOL    HW137372   5.767   6.662   3.404
 8447SOL    HW237373   5.755   6.674   3.242
 8448SOL     OW37374   6.933   6.645   3.096
 8448SOL    HW137375   6.957   6.582   3.022
 8448SOL    HW237376   6.843   6.685   3.078
 8449SOL     OW37377   6.974   7.159   2.339
 8449SOL    HW137378   7.041   7.171   2.265
 8449SOL    HW237379   6.934   7.248   2.362
 8450SOL     OW37380   5.716   7.380   3.713
 8450SOL    HW137381   5.675   7.306   3.766
 8450SOL    HW237382   5.780   7.431   3.771
 8451SOL     OW37383   7.236   7.306   3.256
 8451SOL    HW137384   7.289   7.316   3.172
 8451SOL    HW237385   7.209   7.396   3.290
 8452SOL     OW37386   7.026   6.442   3.260
 8452SOL    HW137387   6.969   6.494   3.197
 8452SOL    HW237388   7.122   6.454   3.236
 8453SOL     OW37389   6.199   6.428   3.293
 8453SOL    HW137390   6.255   6.509   3.276
 8453SOL    HW237391   6.258   6.348   3.296
 8454SOL     OW37392   6.302   6.151   3.570
 8454SOL    HW137393   6.321   6.216   3.644
 8454SOL    HW237394   6.362   6.071   3.579
 8455SOL     OW37395   5.976   7.327   3.422
 8455SOL    HW137396   5.885   7.368   3.420
 8455SOL    HW237397   5.969   7.233   3.454
 8456SOL     OW37398   7.316   6.520   3.379
 8456SOL    HW137399   7.354   6.611   3.394
 8456SOL    HW237400   7.308   6.503   3.280
 8457SOL     OW37401   5.665   6.826   2.515
 8457SOL    HW137402   5.664   6.779   2.603
 8457SOL    HW237403   5.747   6.798   2.464
 8458SOL     OW37404   7.410   5.778   3.089
 8458SOL    HW137405   7.406   5.688   3.133
 8458SOL    HW237406   7.413   5.767   2.990
 8459SOL     OW37407   7.010   5.800   2.974
 8459SOL    HW137408   7.062   5.735   3.029
 8459SOL    HW237409   6.961   5.863   3.035
 8460SOL     OW37410   6.587   5.620   3.016
 8460SOL    HW137411   6.524   5.548   2.985
 8460SOL    HW237412   6.680   5.584   3.016
 8461SOL     OW37413   6.938   5.638   2.030
 8461SOL    HW137414   6.973   5.597   1.946
 8461SOL    HW237415   6.848   5.600   2.050
 8462SOL     OW37416   6.886   6.039   2.553
 8462SOL    HW137417   6.827   6.119   2.557
 8462SOL    HW237418   6.901   6.004   2.646
 8463SOL     OW37419   6.354   6.730   4.747
 8463SOL    HW137420   6.276   6.747   4.807
 8463SOL    HW237421   6.388   6.817   4.711
 8464SOL     OW37422   6.436   6.384   5.547
 8464SOL    HW137423   6.432   6.460   5.612
 8464SOL    HW237424   6.458   6.420   5.456
 8465SOL     OW37425   6.272   6.747   5.527
 8465SOL    HW137426   6.332   6.826   5.541
 8465SOL    HW237427   6.186   6.778   5.486
 8466SOL     OW37428   6.713   6.927   5.414
 8466SOL    HW137429   6.760   6.927   5.502
 8466SOL    HW237430   6.665   6.840   5.403
 8467SOL     OW37431   6.206   7.372   5.163
 8467SOL    HW137432   6.114   7.355   5.198
 8467SOL    HW237433   6.234   7.464   5.189
 8468SOL     OW37434   5.708   6.229   4.287
 8468SOL    HW137435   5.663   6.141   4.304
 8468SOL    HW237436   5.707   6.283   4.371
 8469SOL     OW37437   7.428   7.353   4.083
 8469SOL    HW137438   7.482   7.324   4.163
 8469SOL    HW237439   7.458   7.443   4.054
 8470SOL     OW37440   7.275   6.508   4.336
 8470SOL    HW137441   7.370   6.479   4.344
 8470SOL    HW237442   7.267   6.573   4.261
 8471SOL     OW37443   5.699   6.323   5.321
 8471SOL    HW137444   5.787   6.310   5.366
 8471SOL    HW237445   5.686   6.420   5.299
 8472SOL     OW37446   6.199   6.951   4.450
 8472SOL    HW137447   6.150   6.864   4.459
 8472SOL    HW237448   6.176   6.994   4.363
 8473SOL     OW37449   6.879   6.814   5.147
 8473SOL    HW137450   6.916   6.741   5.089
 8473SOL    HW237451   6.931   6.819   5.232
 8474SOL     OW37452   6.395   5.590   4.226
 8474SOL    HW137453   6.435   5.681   4.217
 8474SOL    HW237454   6.295   5.598   4.232
 8475SOL     OW37455   6.773   7.378   5.340
 8475SOL    HW137456   6.797   7.438   5.264
 8475SOL    HW237457   6.780   7.283   5.310
 8476SOL     OW37458   6.980   6.055   5.398
 8476SOL    HW137459   6.960   6.098   5.486
 8476SOL    HW237460   7.058   5.993   5.407
 8477SOL     OW37461   5.662   6.397   4.513
 8477SOL    HW137462   5.761   6.385   4.522
 8477SOL    HW237463   5.638   6.492   4.534
 8478SOL     OW37464   7.305   6.171   5.555
 8478SOL    HW137465   7.279   6.260   5.519
 8478SOL    HW237466   7.303   6.103   5.482
 8479SOL     OW37467   6.047   6.852   5.451
 8479SOL    HW137468   5.997   6.853   5.365
 8479SOL    HW237469   5.984   6.834   5.527
 8480SOL     OW37470   5.788   5.871   5.222
 8480SOL    HW137471   5.708   5.931   5.209
 8480SOL    HW237472   5.778   5.822   5.308
 8481SOL     OW37473   7.218   6.963   3.805
 8481SOL    HW137474   7.186   7.057   3.795
 8481SOL    HW237475   7.142   6.900   3.793
 8482SOL     OW37476   6.050   7.329   4.047
 8482SOL    HW137477   6.083   7.368   4.133
 8482SOL    HW237478   6.126   7.322   3.982
 8483SOL     OW37479   5.835   7.371   4.965
 8483SOL    HW137480   5.892   7.306   5.015
 8483SOL    HW237481   5.819   7.338   4.872
 8484SOL     OW37482   5.968   6.286   4.204
 8484SOL    HW137483   6.013   6.196   4.201
 8484SOL    HW237484   5.874   6.275   4.237
 8485SOL     OW37485   7.133   5.808   5.453
 8485SOL    HW137486   7.128   5.845   5.545
 8485SOL    HW237487   7.061   5.739   5.441
 8486SOL     OW37488   6.367   5.850   5.473
 8486SOL    HW137489   6.434   5.789   5.516
 8486SOL    HW237490   6.294   5.869   5.538
 8487SOL     OW37491   6.937   6.176   5.157
 8487SOL    HW137492   6.965   6.133   5.242
 8487SOL    HW237493   6.962   6.272   5.158
 8488SOL     OW37494   6.389   6.988   4.648
 8488SOL    HW137495   6.479   7.002   4.606
 8488SOL    HW237496   6.318   6.990   4.577
 8489SOL     OW37497   6.045   6.738   4.465
 8489SOL    HW137498   5.974   6.711   4.530
 8489SOL    HW237499   6.019   6.710   4.372
 8490SOL     OW37500   6.603   5.625   4.477
 8490SOL    HW137501   6.531   5.630   4.408
 8490SOL    HW237502   6.579   5.556   4.546
 8491SOL     OW37503   7.015   6.759   4.591
 8491SOL    HW137504   6.960   6.675   4.584
 8491SOL    HW237505   7.041   6.788   4.499
 8492SOL     OW37506   6.113   5.842   4.052
 8492SOL    HW137507   6.140   5.783   3.977
 8492SOL    HW237508   6.113   5.937   4.021
 8493SOL     OW37509   5.996   6.399   4.975
 8493SOL    HW137510   6.082   6.411   5.025
 8493SOL    HW237511   5.954   6.312   5.002
 8494SOL     OW37512   5.953   6.686   4.225
 8494SOL    HW137513   5.946   6.769   4.169
 8494SOL    HW237514   5.957   6.606   4.165
 8495SOL     OW37515   6.838   6.934   4.112
 8495SOL    HW137516   6.888   7.011   4.152
 8495SOL    HW237517   6.743   6.936   4.144
 8496SOL     OW37518   6.858   7.031   4.866
 8496SOL    HW137519   6.905   7.044   4.953
 8496SOL    HW237520   6.792   6.957   4.875
 8497SOL     OW37521   5.988   6.337   5.322
 8497SOL    HW137522   6.056   6.392   5.275
 8497SOL    HW237523   6.028   6.249   5.349
 8498SOL     OW37524   6.599   5.691   5.494
 8498SOL    HW137525   6.605   5.776   5.442
 8498SOL    HW237526   6.631   5.615   5.437
 8499SOL     OW37527   6.090   5.636   5.464
 8499SOL    HW137528   6.048   5.579   5.394
 8499SOL    HW237529   6.024   5.705   5.496
 8500SOL     OW37530   5.893   5.799   4.955
 8500SOL    HW137531   5.870   5.836   5.045
 8500SOL    HW237532   5.863   5.704   4.949
 8501SOL     OW37533   5.623   6.896   5.006
 8501SOL    HW137534   5.676   6.847   5.074
 8501SOL    HW237535   5.645   6.994   5.011
 8502SOL     OW37536   7.314   6.521   5.578
 8502SOL    HW137537   7.268   6.514   5.489
 8502SOL    HW237538   7.252   6.565   5.644
 8503SOL     OW37539   6.566   7.159   5.424
 8503SOL    HW137540   6.546   7.203   5.336
 8503SOL    HW237541   6.605   7.068   5.408
 8504SOL     OW37542   5.936   6.484   5.528
 8504SOL    HW137543   6.012   6.528   5.576
 8504SOL    HW237544   5.971   6.437   5.446
 8505SOL     OW37545   5.925   6.095   4.730
 8505SOL    HW137546   5.873   6.012   4.713
 8505SOL    HW237547   6.002   6.100   4.666
 8506SOL     OW37548   5.775   6.106   5.446
 8506SOL    HW137549   5.834   6.066   5.376
 8506SOL    HW237550   5.717   6.177   5.405
 8507SOL     OW37551   5.838   7.150   5.468
 8507SOL    HW137552   5.808   7.207   5.544
 8507SOL    HW237553   5.831   7.053   5.494
 8508SOL     OW37554   6.257   6.050   4.993
 8508SOL    HW137555   6.223   5.961   4.963
 8508SOL    HW237556   6.283   6.104   4.913
 8509SOL     OW37557   6.059   6.086   3.915
 8509SOL    HW137558   6.120   6.166   3.919
 8509SOL    HW237559   5.964   6.117   3.922
 8510SOL     OW37560   6.933   6.645   4.958
 8510SOL    HW137561   6.957   6.582   4.884
 8510SOL    HW237562   6.843   6.685   4.940
 8511SOL     OW37563   6.274   7.248   5.440
 8511SOL    HW137564   6.218   7.329   5.449
 8511SOL    HW237565   6.326   7.252   5.354
 8512SOL     OW37566   6.974   7.159   4.201
 8512SOL    HW137567   7.041   7.171   4.127
 8512SOL    HW237568   6.934   7.248   4.224
 8513SOL     OW37569   5.716   7.380   5.575
 8513SOL    HW137570   5.675   7.306   5.628
 8513SOL    HW237571   5.780   7.431   5.633
 8514SOL     OW37572   6.258   7.202   3.878
 8514SOL    HW137573   6.267   7.212   3.779
 8514SOL    HW237574   6.218   7.113   3.899
 8515SOL     OW37575   6.780   7.198   3.755
 8515SOL    HW137576   6.786   7.105   3.792
 8515SOL    HW237577   6.721   7.198   3.675
 8516SOL     OW37578   6.502   6.496   4.015
 8516SOL    HW137579   6.565   6.534   3.947
 8516SOL    HW237580   6.542   6.413   4.054
 8517SOL     OW37581   7.090   7.193   3.768
 8517SOL    HW137582   6.998   7.230   3.775
 8517SOL    HW237583   7.128   7.213   3.678
 8518SOL     OW37584   5.691   6.599   5.450
 8518SOL    HW137585   5.614   6.566   5.504
 8518SOL    HW237586   5.776   6.569   5.492
 8519SOL     OW37587   5.661   5.931   3.757
 8519SOL    HW137588   5.569   5.903   3.728
 8519SOL    HW237589   5.692   6.008   3.701
 8520SOL     OW37590   7.026   6.442   5.122
 8520SOL    HW137591   6.969   6.494   5.059
 8520SOL    HW237592   7.122   6.454   5.098
 8521SOL     OW37593   7.260   6.469   4.978
 8521SOL    HW137594   7.233   6.380   4.941
 8521SOL    HW237595   7.261   6.537   4.905
 8522SOL     OW37596   7.363   5.928   5.366
 8522SOL    HW137597   7.346   5.959   5.272
 8522SOL    HW237598   7.279   5.891   5.404
 8523SOL     OW37599   7.316   6.520   5.241
 8523SOL    HW137600   7.354   6.611   5.256
 8523SOL    HW237601   7.308   6.503   5.142
 8524SOL     OW37602   6.445   6.542   4.585
 8524SOL    HW137603   6.499   6.473   4.633
 8524SOL    HW237604   6.413   6.611   4.651
 8525SOL     OW37605   7.447   7.155   4.575
 8525SOL    HW137606   7.376   7.143   4.505
 8525SOL    HW237607   7.448   7.076   4.635
 8526SOL     OW37608   5.807   6.900   5.568
 8526SOL    HW137609   5.742   6.827   5.547
 8526SOL    HW237610   5.811   6.914   5.666
 8527SOL     OW37611   5.665   6.826   4.377
 8527SOL    HW137612   5.664   6.779   4.465
 8527SOL    HW237613   5.747   6.798   4.326
 8528SOL     OW37614   7.410   5.778   4.951
 8528SOL    HW137615   7.406   5.688   4.995
 8528SOL    HW237616   7.413   5.767   4.852
 8529SOL     OW37617   5.903   6.133   5.004
 8529SOL    HW137618   5.941   6.074   5.076
 8529SOL    HW237619   5.943   6.107   4.916
 8530SOL     OW37620   6.398   7.172   4.411
 8530SOL    HW137621   6.430   7.182   4.317
 8530SOL    HW237622   6.319   7.110   4.413
 8531SOL     OW37623   6.587   5.620   4.878
 8531SOL    HW137624   6.524   5.548   4.847
 8531SOL    HW237625   6.680   5.584   4.878
 8532SOL     OW37626   6.356   6.916   4.025
 8532SOL    HW137627   6.310   6.829   4.042
 8532SOL    HW237628   6.447   6.913   4.066
 8533SOL     OW37629   6.886   6.039   4.415
 8533SOL    HW137630   6.827   6.119   4.419
 8533SOL    HW237631   6.901   6.004   4.508
 8534SOL     OW37632   7.179   5.807   4.606
 8534SOL    HW137633   7.095   5.806   4.660
 8534SOL    HW237634   7.181   5.890   4.550
 8535SOL     OW37635   5.816   6.214   5.699
 8535SOL    HW137636   5.723   6.212   5.736
 8535SOL    HW237637   5.817   6.175   5.607
 8536SOL     OW37638   5.811   5.861   6.582
 8536SOL    HW137639   5.846   5.844   6.674
 8536SOL    HW237640   5.723   5.816   6.570
 8537SOL     OW37641   5.605   5.954   6.233
 8537SOL    HW137642   5.523   5.997   6.272
 8537SOL    HW237643   5.577   5.881   6.170
 8538SOL     OW37644   6.155   6.861   6.751
 8538SOL    HW137645   6.062   6.854   6.714
 8538SOL    HW237646   6.166   6.950   6.795
 8539SOL     OW37647   7.141   7.097   6.289
 8539SOL    HW137648   7.084   7.081   6.370
 8539SOL    HW237649   7.082   7.107   6.209
 8540SOL     OW37650   6.721   6.289   6.303
 8540SOL    HW137651   6.778   6.367   6.278
 8540SOL    HW237652   6.661   6.315   6.379
 8541SOL     OW37653   7.341   6.193   5.817
 8541SOL    HW137654   7.329   6.180   5.718
 8541SOL    HW237655   7.311   6.112   5.866
 8542SOL     OW37656   6.354   6.730   6.609
 8542SOL    HW137657   6.276   6.747   6.669
 8542SOL    HW237658   6.388   6.817   6.573
 8543SOL     OW37659   6.271   6.598   6.251
 8543SOL    HW137660   6.340   6.582   6.321
 8543SOL    HW237661   6.198   6.655   6.289
 8544SOL     OW37662   5.921   7.021   6.647
 8544SOL    HW137663   5.843   6.990   6.594
 8544SOL    HW237664   5.979   7.079   6.590
 8545SOL     OW37665   7.046   7.091   6.925
 8545SOL    HW137666   7.070   7.185   6.951
 8545SOL    HW237667   7.030   7.037   7.007
 8546SOL     OW37668   6.024   5.978   7.085
 8546SOL    HW137669   6.106   5.922   7.094
 8546SOL    HW237670   5.943   5.920   7.089
 8547SOL     OW37671   7.189   6.033   6.323
 8547SOL    HW137672   7.115   6.079   6.273
 8547SOL    HW237673   7.240   6.101   6.376
 8548SOL     OW37674   5.817   7.299   6.069
 8548SOL    HW137675   5.851   7.376   6.123
 8548SOL    HW237676   5.861   7.299   5.979
 8549SOL     OW37677   5.816   7.020   6.124
 8549SOL    HW137678   5.790   7.116   6.124
 8549SOL    HW237679   5.745   6.966   6.169
 8550SOL     OW37680   5.826   6.677   6.472
 8550SOL    HW137681   5.840   6.593   6.524
 8550SOL    HW237682   5.771   6.741   6.527
 8551SOL     OW37683   6.206   7.372   7.025
 8551SOL    HW137684   6.114   7.355   7.060
 8551SOL    HW237685   6.234   7.464   7.051
 8552SOL     OW37686   6.192   6.550   5.709
 8552SOL    HW137687   6.199   6.634   5.655
 8552SOL    HW237688   6.238   6.563   5.797
 8553SOL     OW37689   7.180   5.700   7.066
 8553SOL    HW137690   7.162   5.767   6.994
 8553SOL    HW237691   7.177   5.746   7.155
 8554SOL     OW37692   5.708   6.229   6.149
 8554SOL    HW137693   5.663   6.141   6.166
 8554SOL    HW237694   5.707   6.283   6.233
 8555SOL     OW37695   7.428   7.353   5.945
 8555SOL    HW137696   7.482   7.324   6.025
 8555SOL    HW237697   7.458   7.443   5.916
 8556SOL     OW37698   5.613   7.182   5.703
 8556SOL    HW137699   5.594   7.086   5.724
 8556SOL    HW237700   5.580   7.240   5.778
 8557SOL     OW37701   7.275   6.508   6.198
 8557SOL    HW137702   7.370   6.479   6.206
 8557SOL    HW237703   7.267   6.573   6.123
 8558SOL     OW37704   7.227   6.694   6.018
 8558SOL    HW137705   7.313   6.696   5.966
 8558SOL    HW237706   7.241   6.741   6.106
 8559SOL     OW37707   6.199   6.951   6.312
 8559SOL    HW137708   6.150   6.864   6.321
 8559SOL    HW237709   6.176   6.994   6.225
 8560SOL     OW37710   6.395   5.590   6.088
 8560SOL    HW137711   6.435   5.681   6.079
 8560SOL    HW237712   6.295   5.598   6.094
 8561SOL     OW37713   5.783   6.562   6.850
 8561SOL    HW137714   5.872   6.517   6.836
 8561SOL    HW237715   5.710   6.497   6.831
 8562SOL     OW37716   7.111   6.585   5.776
 8562SOL    HW137717   7.048   6.509   5.789
 8562SOL    HW237718   7.159   6.603   5.862
 8563SOL     OW37719   7.052   7.003   6.539
 8563SOL    HW137720   6.993   7.009   6.619
 8563SOL    HW237721   7.037   6.915   6.493
 8564SOL     OW37722   7.253   7.300   6.158
 8564SOL    HW137723   7.212   7.277   6.070
 8564SOL    HW237724   7.235   7.226   6.223
 8565SOL     OW37725   6.184   6.315   5.856
 8565SOL    HW137726   6.208   6.384   5.788
 8565SOL    HW237727   6.106   6.348   5.910
 8566SOL     OW37728   6.867   5.931   6.530
 8566SOL    HW137729   6.781   5.881   6.517
 8566SOL    HW237730   6.929   5.877   6.586
 8567SOL     OW37731   7.162   7.248   5.893
 8567SOL    HW137732   7.251   7.294   5.896
 8567SOL    HW237733   7.141   7.224   5.798
 8568SOL     OW37734   6.393   6.191   7.051
 8568SOL    HW137735   6.346   6.188   7.140
 8568SOL    HW237736   6.342   6.136   6.985
 8569SOL     OW37737   6.577   5.996   6.828
 8569SOL    HW137738   6.500   6.030   6.882
 8569SOL    HW237739   6.543   5.945   6.749
 8570SOL     OW37740   6.627   6.287   6.015
 8570SOL    HW137741   6.653   6.283   6.111
 8570SOL    HW237742   6.542   6.236   6.001
 8571SOL     OW37743   5.662   6.397   6.375
 8571SOL    HW137744   5.761   6.385   6.384
 8571SOL    HW237745   5.638   6.492   6.396
 8572SOL     OW37746   5.716   7.407   7.157
 8572SOL    HW137747   5.706   7.392   7.256
 8572SOL    HW237748   5.630   7.443   7.121
 8573SOL     OW37749   6.451   5.934   5.781
 8573SOL    HW137750   6.510   5.997   5.732
 8573SOL    HW237751   6.470   5.840   5.752
 8574SOL     OW37752   6.948   6.730   6.131
 8574SOL    HW137753   7.031   6.701   6.083
 8574SOL    HW237754   6.899   6.797   6.075
 8575SOL     OW37755   6.136   5.782   6.471
 8575SOL    HW137756   6.131   5.777   6.571
 8575SOL    HW237757   6.138   5.878   6.442
 8576SOL     OW37758   6.594   7.042   6.063
 8576SOL    HW137759   6.548   7.114   6.011
 8576SOL    HW237760   6.590   7.062   6.161
 8577SOL     OW37761   5.937   7.387   6.439
 8577SOL    HW137762   5.987   7.301   6.445
 8577SOL    HW237763   6.002   7.464   6.436
 8578SOL     OW37764   7.381   6.652   6.459
 8578SOL    HW137765   7.319   6.637   6.383
 8578SOL    HW237766   7.329   6.663   6.544
 8579SOL     OW37767   5.907   6.529   5.828
 8579SOL    HW137768   5.989   6.568   5.786
 8579SOL    HW237769   5.880   6.447   5.779
 8580SOL     OW37770   7.044   6.321   6.314
 8580SOL    HW137771   7.039   6.256   6.389
 8580SOL    HW237772   7.124   6.380   6.327
 8581SOL     OW37773   6.697   7.362   5.823
 8581SOL    HW137774   6.637   7.300   5.873
 8581SOL    HW237775   6.728   7.318   5.738
 8582SOL     OW37776   5.788   5.871   7.084
 8582SOL    HW137777   5.708   5.931   7.071
 8582SOL    HW237778   5.778   5.822   7.170
 8583SOL     OW37779   6.050   7.329   5.909
 8583SOL    HW137780   6.083   7.368   5.995
 8583SOL    HW237781   6.126   7.322   5.844
 8584SOL     OW37782   6.986   5.693   6.012
 8584SOL    HW137783   6.962   5.656   5.922
 8584SOL    HW237784   7.085   5.709   6.016
 8585SOL     OW37785   5.835   7.371   6.827
 8585SOL    HW137786   5.892   7.306   6.877
 8585SOL    HW237787   5.819   7.338   6.734
 8586SOL     OW37788   6.526   7.284   6.490
 8586SOL    HW137789   6.606   7.227   6.511
 8586SOL    HW237790   6.477   7.244   6.413
 8587SOL     OW37791   5.968   6.286   6.066
 8587SOL    HW137792   6.013   6.196   6.063
 8587SOL    HW237793   5.874   6.275   6.099
 8588SOL     OW37794   6.200   5.708   5.703
 8588SOL    HW137795   6.298   5.686   5.710
 8588SOL    HW237796   6.169   5.691   5.610
 8589SOL     OW37797   6.474   7.100   6.781
 8589SOL    HW137798   6.451   7.075   6.687
 8589SOL    HW237799   6.535   7.031   6.820
 8590SOL     OW37800   6.389   6.988   6.510
 8590SOL    HW137801   6.479   7.002   6.468
 8590SOL    HW237802   6.318   6.990   6.439
 8591SOL     OW37803   6.508   6.089   6.485
 8591SOL    HW137804   6.483   6.080   6.389
 8591SOL    HW237805   6.556   6.007   6.516
 8592SOL     OW37806   6.125   5.650   6.098
 8592SOL    HW137807   6.044   5.651   6.156
 8592SOL    HW237808   6.128   5.733   6.043
 8593SOL     OW37809   6.521   5.822   6.066
 8593SOL    HW137810   6.473   5.863   5.988
 8593SOL    HW237811   6.620   5.820   6.047
 8594SOL     OW37812   6.813   7.156   6.379
 8594SOL    HW137813   6.834   7.230   6.314
 8594SOL    HW237814   6.881   7.156   6.452
 8595SOL     OW37815   6.045   6.738   6.327
 8595SOL    HW137816   5.974   6.711   6.392
 8595SOL    HW237817   6.019   6.710   6.234
 8596SOL     OW37818   6.857   7.383   6.177
 8596SOL    HW137819   6.901   7.447   6.113
 8596SOL    HW237820   6.807   7.435   6.247
 8597SOL     OW37821   6.618   6.135   5.602
 8597SOL    HW137822   6.577   6.217   5.563
 8597SOL    HW237823   6.682   6.161   5.675
 8598SOL     OW37824   5.664   6.142   6.972
 8598SOL    HW137825   5.756   6.141   6.931
 8598SOL    HW237826   5.658   6.216   7.039
 8599SOL     OW37827   6.147   5.808   6.733
 8599SOL    HW137828   6.185   5.724   6.770
 8599SOL    HW237829   6.059   5.827   6.777
 8600SOL     OW37830   6.452   6.040   6.228
 8600SOL    HW137831   6.420   6.112   6.166
 8600SOL    HW237832   6.476   5.959   6.175
 8601SOL     OW37833   6.603   5.625   6.339
 8601SOL    HW137834   6.531   5.630   6.270
 8601SOL    HW237835   6.579   5.556   6.408
 8602SOL     OW37836   7.015   6.759   6.453
 8602SOL    HW137837   6.960   6.675   6.446
 8602SOL    HW237838   7.041   6.788   6.361
 8603SOL     OW37839   7.052   6.176   6.578
 8603SOL    HW137840   7.022   6.081   6.585
 8603SOL    HW237841   7.125   6.192   6.644
 8604SOL     OW37842   7.443   6.419   5.963
 8604SOL    HW137843   7.485   6.355   6.027
 8604SOL    HW237844   7.405   6.368   5.885
 8605SOL     OW37845   6.074   6.971   5.760
 8605SOL    HW137846   5.987   6.956   5.807
 8605SOL    HW237847   6.057   6.997   5.665
 8606SOL     OW37848   7.250   6.866   6.243
 8606SOL    HW137849   7.349   6.874   6.257
 8606SOL    HW237850   7.205   6.950   6.274
 8607SOL     OW37851   6.976   6.161   5.664
 8607SOL    HW137852   6.922   6.140   5.745
 8607SOL    HW237853   7.067   6.120   5.673
 8608SOL     OW37854   6.113   5.842   5.914
 8608SOL    HW137855   6.140   5.783   5.839
 8608SOL    HW237856   6.113   5.937   5.883
 8609SOL     OW37857   6.650   6.933   6.926
 8609SOL    HW137858   6.570   6.910   6.981
 8609SOL    HW237859   6.733   6.907   6.975
 8610SOL     OW37860   6.697   6.781   6.686
 8610SOL    HW137861   6.657   6.825   6.767
 8610SOL    HW237862   6.656   6.818   6.603
 8611SOL     OW37863   7.224   6.685   6.665
 8611SOL    HW137864   7.229   6.766   6.724
 8611SOL    HW237865   7.138   6.687   6.614
 8612SOL     OW37866   6.501   5.675   6.988
 8612SOL    HW137867   6.526   5.655   6.893
 8612SOL    HW237868   6.573   5.731   7.030
 8613SOL     OW37869   6.291   6.636   5.954
 8613SOL    HW137870   6.277   6.643   6.053
 8613SOL    HW237871   6.375   6.585   5.936
 8614SOL     OW37872   5.996   6.399   6.837
 8614SOL    HW137873   6.082   6.411   6.887
 8614SOL    HW237874   5.954   6.312   6.864
 8615SOL     OW37875   6.860   5.972   6.848
 8615SOL    HW137876   6.881   6.046   6.912
 8615SOL    HW237877   6.771   5.989   6.805
 8616SOL     OW37878   5.650   7.150   6.917
 8616SOL    HW137879   5.604   7.232   6.883
 8616SOL    HW237880   5.748   7.169   6.926
 8617SOL     OW37881   5.953   6.686   6.087
 8617SOL    HW137882   5.946   6.769   6.031
 8617SOL    HW237883   5.957   6.606   6.027
 8618SOL     OW37884   6.152   6.123   6.451
 8618SOL    HW137885   6.164   6.189   6.377
 8618SOL    HW237886   6.198   6.157   6.534
 8619SOL     OW37887   6.838   6.934   5.974
 8619SOL    HW137888   6.888   7.011   6.014
 8619SOL    HW237889   6.743   6.936   6.006
 8620SOL     OW37890   6.858   7.031   6.728
 8620SOL    HW137891   6.905   7.044   6.815
 8620SOL    HW237892   6.792   6.957   6.737
 8621SOL     OW37893   7.168   6.225   6.058
 8621SOL    HW137894   7.137   6.286   6.131
 8621SOL    HW237895   7.218   6.277   5.989
 8622SOL     OW37896   5.940   7.096   6.915
 8622SOL    HW137897   5.919   7.052   6.828
 8622SOL    HW237898   6.037   7.122   6.918
 8623SOL     OW37899   5.988   6.337   7.184
 8623SOL    HW137900   6.056   6.392   7.137
 8623SOL    HW237901   6.028   6.249   7.211
 8624SOL     OW37902   7.173   6.365   7.256
 8624SOL    HW137903   7.081   6.403   7.251
 8624SOL    HW237904   7.233   6.412   7.191
 8625SOL     OW37905   6.159   6.456   6.615
 8625SOL    HW137906   6.203   6.545   6.606
 8625SOL    HW237907   6.096   6.456   6.692
 8626SOL     OW37908   6.946   6.448   6.631
 8626SOL    HW137909   6.871   6.448   6.565
 8626SOL    HW237910   6.983   6.356   6.640
 8627SOL     OW37911   6.795   6.111   5.861
 8627SOL    HW137912   6.808   6.027   5.915
 8627SOL    HW237913   6.766   6.185   5.921
 8628SOL     OW37914   5.893   5.799   6.817
 8628SOL    HW137915   5.870   5.836   6.907
 8628SOL    HW237916   5.863   5.704   6.811
 8629SOL     OW37917   5.623   6.896   6.868
 8629SOL    HW137918   5.676   6.847   6.936
 8629SOL    HW237919   5.645   6.994   6.873
 8630SOL     OW37920   6.318   6.220   6.650
 8630SOL    HW137921   6.377   6.194   6.574
 8630SOL    HW237922   6.290   6.316   6.639
 8631SOL     OW37923   5.893   5.649   6.204
 8631SOL    HW137924   5.882   5.743   6.237
 8631SOL    HW237925   5.888   5.586   6.281
 8632SOL     OW37926   7.208   5.953   5.960
 8632SOL    HW137927   7.210   5.877   6.024
 8632SOL    HW237928   7.160   6.030   6.000
 8633SOL     OW37929   6.609   6.352   6.552
 8633SOL    HW137930   6.624   6.373   6.648
 8633SOL    HW237931   6.579   6.257   6.543
 8634SOL     OW37932   6.566   7.159   7.286
 8634SOL    HW137933   6.546   7.203   7.198
 8634SOL    HW237934   6.605   7.068   7.270
 8635SOL     OW37935   7.126   5.860   5.711
 8635SOL    HW137936   7.065   5.785   5.734
 8635SOL    HW237937   7.148   5.912   5.794
 8636SOL     OW37938   6.889   6.424   5.628
 8636SOL    HW137939   6.923   6.331   5.643
 8636SOL    HW237940   6.907   6.451   5.533
 8637SOL     OW37941   6.654   6.919   6.435
 8637SOL    HW137942   6.661   6.835   6.380
 8637SOL    HW237943   6.716   6.988   6.399
 8638SOL     OW37944   5.905   6.396   6.535
 8638SOL    HW137945   5.998   6.432   6.540
 8638SOL    HW237946   5.899   6.311   6.587
 8639SOL     OW37947   5.925   6.095   6.592
 8639SOL    HW137948   5.873   6.012   6.575
 8639SOL    HW237949   6.002   6.100   6.528
 8640SOL     OW37950   6.724   5.966   7.264
 8640SOL    HW137951   6.679   6.029   7.328
 8640SOL    HW237952   6.817   5.997   7.247
 8641SOL     OW37953   6.746   5.793   7.063
 8641SOL    HW137954   6.746   5.857   7.140
 8641SOL    HW237955   6.774   5.841   6.980
 8642SOL     OW37956   5.594   6.912   5.786
 8642SOL    HW137957   5.501   6.933   5.755
 8642SOL    HW237958   5.604   6.813   5.799
 8643SOL     OW37959   5.674   7.387   6.513
 8643SOL    HW137960   5.632   7.301   6.486
 8643SOL    HW237961   5.768   7.390   6.479
 8644SOL     OW37962   6.090   7.154   6.496
 8644SOL    HW137963   6.156   7.228   6.505
 8644SOL    HW237964   6.134   7.075   6.454
 8645SOL     OW37965   6.588   6.382   6.824
 8645SOL    HW137966   6.629   6.350   6.910
 8645SOL    HW237967   6.492   6.355   6.821
 8646SOL     OW37968   5.626   6.130   6.700
 8646SOL    HW137969   5.711   6.097   6.659
 8646SOL    HW237970   5.639   6.145   6.798
 8647SOL     OW37971   6.401   6.158   5.911
 8647SOL    HW137972   6.408   6.069   5.865
 8647SOL    HW237973   6.307   6.192   5.903
 8648SOL     OW37974   7.243   6.190   6.792
 8648SOL    HW137975   7.205   6.121   6.854
 8648SOL    HW237976   7.325   6.154   6.748
 8649SOL     OW37977   6.257   6.050   6.855
 8649SOL    HW137978   6.223   5.961   6.825
 8649SOL    HW237979   6.283   6.104   6.775
 8650SOL     OW37980   6.516   7.264   7.051
 8650SOL    HW137981   6.492   7.246   6.956
 8650SOL    HW237982   6.546   7.358   7.061
 8651SOL     OW37983   6.059   6.086   5.777
 8651SOL    HW137984   6.120   6.166   5.781
 8651SOL    HW237985   5.964   6.117   5.784
 8652SOL     OW37986   5.745   6.723   7.052
 8652SOL    HW137987   5.767   6.662   7.128
 8652SOL    HW237988   5.755   6.674   6.966
 8653SOL     OW37989   6.933   6.645   6.820
 8653SOL    HW137990   6.957   6.582   6.746
 8653SOL    HW237991   6.843   6.685   6.802
 8654SOL     OW37992   6.888   6.441   5.895
 8654SOL    HW137993   6.802   6.410   5.937
 8654SOL    HW237994   6.884   6.427   5.796
 8655SOL     OW37995   7.345   7.333   6.740
 8655SOL    HW137996   7.406   7.363   6.667
 8655SOL    HW237997   7.307   7.244   6.718
 8656SOL     OW37998   6.838   7.317   6.714
 8656SOL    HW137999   6.922   7.322   6.660
 8656SOL    HW238000   6.815   7.221   6.732
 8657SOL     OW38001   5.669   6.844   6.608
 8657SOL    HW138002   5.664   6.843   6.708
 8657SOL    HW238003   5.586   6.803   6.570
 8658SOL     OW38004   7.312   5.721   6.109
 8658SOL    HW138005   7.385   5.704   6.042
 8658SOL    HW238006   7.281   5.634   6.147
 8659SOL     OW38007   6.974   7.159   6.063
 8659SOL    HW138008   7.041   7.171   5.989
 8659SOL    HW238009   6.934   7.248   6.086
 8660SOL     OW38010   6.866   6.513   6.258
 8660SOL    HW138011   6.926   6.432   6.260
 8660SOL    HW238012   6.906   6.582   6.198
 8661SOL     OW38013   6.258   7.202   5.740
 8661SOL    HW138014   6.267   7.212   5.641
 8661SOL    HW238015   6.218   7.113   5.761
 8662SOL     OW38016   7.236   7.306   6.980
 8662SOL    HW138017   7.289   7.316   6.896
 8662SOL    HW238018   7.209   7.396   7.014
 8663SOL     OW38019   7.427   5.761   6.549
 8663SOL    HW138020   7.466   5.676   6.513
 8663SOL    HW238021   7.329   5.763   6.530
 8664SOL     OW38022   5.849   5.912   6.306
 8664SOL    HW138023   5.770   5.963   6.272
 8664SOL    HW238024   5.840   5.897   6.404
 8665SOL     OW38025   6.780   7.198   5.617
 8665SOL    HW138026   6.786   7.105   5.654
 8665SOL    HW238027   6.721   7.198   5.537
 8666SOL     OW38028   6.408   6.588   6.958
 8666SOL    HW138029   6.448   6.587   6.866
 8666SOL    HW238030   6.418   6.680   6.998
 8667SOL     OW38031   6.502   6.496   5.877
 8667SOL    HW138032   6.565   6.534   5.809
 8667SOL    HW238033   6.542   6.413   5.916
 8668SOL     OW38034   5.958   6.874   7.076
 8668SOL    HW138035   5.945   6.967   7.042
 8668SOL    HW238036   5.874   6.822   7.063
 8669SOL     OW38037   7.200   6.878   6.875
 8669SOL    HW138038   7.260   6.881   6.955
 8669SOL    HW238039   7.125   6.942   6.888
 8670SOL     OW38040   6.625   6.684   6.282
 8670SOL    HW138041   6.555   6.637   6.336
 8670SOL    HW238042   6.684   6.616   6.239
 8671SOL     OW38043   6.600   5.822   6.557
 8671SOL    HW138044   6.592   5.786   6.464
 8671SOL    HW238045   6.598   5.746   6.622
 8672SOL     OW38046   6.176   7.073   6.077
 8672SOL    HW138047   6.218   7.015   6.007
 8672SOL    HW238048   6.132   7.152   6.033
 8673SOL     OW38049   7.295   5.971   6.967
 8673SOL    HW138050   7.368   6.040   6.971
 8673SOL    HW238051   7.323   5.896   6.908
 8674SOL     OW38052   5.841   6.934   5.876
 8674SOL    HW138053   5.745   6.935   5.849
 8674SOL    HW238054   5.853   6.987   5.960
 8675SOL     OW38055   7.026   6.442   6.984
 8675SOL    HW138056   6.969   6.494   6.921
 8675SOL    HW238057   7.122   6.454   6.960
 8676SOL     OW38058   5.658   5.752   5.904
 8676SOL    HW138059   5.641   5.835   5.850
 8676SOL    HW238060   5.748   5.715   5.882
 8677SOL     OW38061   6.769   6.921   5.705
 8677SOL    HW138062   6.670   6.910   5.707
 8677SOL    HW238063   6.803   6.936   5.798
 8678SOL     OW38064   6.199   6.428   7.017
 8678SOL    HW138065   6.255   6.509   7.000
 8678SOL    HW238066   6.258   6.348   7.020
 8679SOL     OW38067   7.079   7.353   6.545
 8679SOL    HW138068   7.112   7.417   6.476
 8679SOL    HW238069   7.145   7.347   6.620
 8680SOL     OW38070   5.976   7.327   7.146
 8680SOL    HW138071   5.885   7.368   7.144
 8680SOL    HW238072   5.969   7.233   7.178
 8681SOL     OW38073   7.260   6.469   6.840
 8681SOL    HW138074   7.233   6.380   6.803
 8681SOL    HW238075   7.261   6.537   6.767
 8682SOL     OW38076   6.811   5.911   6.035
 8682SOL    HW138077   6.876   5.837   6.024
 8682SOL    HW238078   6.831   5.961   6.119
 8683SOL     OW38079   6.180   6.331   6.238
 8683SOL    HW138080   6.230   6.416   6.219
 8683SOL    HW238081   6.092   6.333   6.190
 8684SOL     OW38082   7.363   5.928   7.228
 8684SOL    HW138083   7.346   5.959   7.134
 8684SOL    HW238084   7.279   5.891   7.266
 8685SOL     OW38085   7.316   6.520   7.103
 8685SOL    HW138086   7.354   6.611   7.118
 8685SOL    HW238087   7.308   6.503   7.004
 8686SOL     OW38088   6.445   6.960   5.602
 8686SOL    HW138089   6.399   6.975   5.690
 8686SOL    HW238090   6.489   7.045   5.572
 8687SOL     OW38091   6.247   7.376   6.539
 8687SOL    HW138092   6.201   7.464   6.526
 8687SOL    HW238093   6.346   7.388   6.532
 8688SOL     OW38094   6.445   6.542   6.447
 8688SOL    HW138095   6.499   6.473   6.495
 8688SOL    HW238096   6.413   6.611   6.513
 8689SOL     OW38097   6.669   6.570   5.673
 8689SOL    HW138098   6.646   6.623   5.591
 8689SOL    HW238099   6.750   6.514   5.654
 8690SOL     OW38100   7.447   7.155   6.437
 8690SOL    HW138101   7.376   7.143   6.367
 8690SOL    HW238102   7.448   7.076   6.497
 8691SOL     OW38103   5.665   6.826   6.239
 8691SOL    HW138104   5.664   6.779   6.327
 8691SOL    HW238105   5.747   6.798   6.188
 8692SOL     OW38106   7.410   5.778   6.813
 8692SOL    HW138107   7.406   5.688   6.857
 8692SOL    HW238108   7.413   5.767   6.714
 8693SOL     OW38109   6.014   6.010   6.106
 8693SOL    HW138110   6.044   5.938   6.044
 8693SOL    HW238111   5.975   5.970   6.189
 8694SOL     OW38112   7.291   7.073   6.690
 8694SOL    HW138113   7.198   7.048   6.663
 8694SOL    HW238114   7.317   7.023   6.772
 8695SOL     OW38115   5.903   6.133   6.866
 8695SOL    HW138116   5.941   6.074   6.938
 8695SOL    HW238117   5.943   6.107   6.778
 8696SOL     OW38118   6.398   7.172   6.273
 8696SOL    HW138119   6.430   7.182   6.179
 8696SOL    HW238120   6.319   7.110   6.275
 8697SOL     OW38121   7.010   5.800   6.698
 8697SOL    HW138122   7.062   5.735   6.753
 8697SOL    HW238123   6.961   5.863   6.759
 8698SOL     OW38124   6.587   5.620   6.740
 8698SOL    HW138125   6.524   5.548   6.709
 8698SOL    HW238126   6.680   5.584   6.740
 8699SOL     OW38127   6.356   6.916   5.887
 8699SOL    HW138128   6.310   6.829   5.904
 8699SOL    HW238129   6.447   6.913   5.928
 8700SOL     OW38130   6.204   7.153   6.870
 8700SOL    HW138131   6.199   7.235   6.927
 8700SOL    HW238132   6.293   7.150   6.825
 8701SOL     OW38133   6.938   5.638   5.754
 8701SOL    HW138134   6.973   5.597   5.670
 8701SOL    HW238135   6.848   5.600   5.774
 8702SOL     OW38136   6.886   6.039   6.277
 8702SOL    HW138137   6.827   6.119   6.281
 8702SOL    HW238138   6.901   6.004   6.370
 8703SOL     OW38139   7.179   5.807   6.468
 8703SOL    HW138140   7.095   5.806   6.522
 8703SOL    HW238141   7.181   5.890   6.412
 8704SOL     OW38142   5.625   6.663   5.886
 8704SOL    HW138143   5.724   6.652   5.877
 8704SOL    HW238144   5.585   6.577   5.918
 8705SOL     OW38145   6.461   7.232   5.923
 8705SOL    HW138146   6.384   7.197   5.869
 8705SOL    HW238147   6.429   7.303   5.985
 8706SOL     OW38148   5.816   8.076   0.113
 8706SOL    HW138149   5.723   8.074   0.150
 8706SOL    HW238150   5.817   8.037   0.021
 8707SOL     OW38151   5.811   7.723   0.996
 8707SOL    HW138152   5.846   7.706   1.088
 8707SOL    HW238153   5.723   7.678   0.984
 8708SOL     OW38154   5.605   7.816   0.647
 8708SOL    HW138155   5.523   7.859   0.686
 8708SOL    HW238156   5.577   7.743   0.584
 8709SOL     OW38157   6.721   8.151   0.717
 8709SOL    HW138158   6.778   8.229   0.692
 8709SOL    HW238159   6.661   8.177   0.793
 8710SOL     OW38160   7.341   8.055   0.231
 8710SOL    HW138161   7.329   8.042   0.132
 8710SOL    HW238162   7.311   7.974   0.280
 8711SOL     OW38163   6.354   8.592   1.023
 8711SOL    HW138164   6.276   8.609   1.083
 8711SOL    HW238165   6.388   8.679   0.987
 8712SOL     OW38166   6.436   8.246   1.823
 8712SOL    HW138167   6.432   8.322   1.888
 8712SOL    HW238168   6.458   8.282   1.732
 8713SOL     OW38169   6.271   8.460   0.665
 8713SOL    HW138170   6.340   8.444   0.735
 8713SOL    HW238171   6.198   8.517   0.703
 8714SOL     OW38172   6.024   7.840   1.499
 8714SOL    HW138173   6.106   7.784   1.508
 8714SOL    HW238174   5.943   7.782   1.503
 8715SOL     OW38175   7.189   7.895   0.737
 8715SOL    HW138176   7.115   7.941   0.687
 8715SOL    HW238177   7.240   7.963   0.790
 8716SOL     OW38178   5.826   8.539   0.886
 8716SOL    HW138179   5.840   8.455   0.938
 8716SOL    HW238180   5.771   8.603   0.941
 8717SOL     OW38181   7.180   7.562   1.480
 8717SOL    HW138182   7.162   7.629   1.408
 8717SOL    HW238183   7.177   7.608   1.569
 8718SOL     OW38184   5.708   8.091   0.563
 8718SOL    HW138185   5.663   8.003   0.580
 8718SOL    HW238186   5.707   8.145   0.647
 8719SOL     OW38187   5.699   8.185   1.597
 8719SOL    HW138188   5.787   8.172   1.642
 8719SOL    HW238189   5.686   8.282   1.575
 8720SOL     OW38190   6.395   7.452   0.502
 8720SOL    HW138191   6.435   7.543   0.493
 8720SOL    HW238192   6.295   7.460   0.508
 8721SOL     OW38193   5.783   8.424   1.264
 8721SOL    HW138194   5.872   8.379   1.250
 8721SOL    HW238195   5.710   8.359   1.245
 8722SOL     OW38196   7.111   8.447   0.190
 8722SOL    HW138197   7.048   8.371   0.203
 8722SOL    HW238198   7.159   8.465   0.276
 8723SOL     OW38199   5.903   7.699   1.801
 8723SOL    HW138200   5.974   7.770   1.807
 8723SOL    HW238201   5.815   7.738   1.829
 8724SOL     OW38202   6.184   8.177   0.270
 8724SOL    HW138203   6.208   8.246   0.202
 8724SOL    HW238204   6.106   8.210   0.324
 8725SOL     OW38205   6.867   7.793   0.944
 8725SOL    HW138206   6.781   7.743   0.931
 8725SOL    HW238207   6.929   7.739   1.000
 8726SOL     OW38208   6.393   8.053   1.465
 8726SOL    HW138209   6.346   8.050   1.554
 8726SOL    HW238210   6.342   7.998   1.399
 8727SOL     OW38211   6.559   8.338   1.572
 8727SOL    HW138212   6.605   8.254   1.543
 8727SOL    HW238213   6.503   8.372   1.497
 8728SOL     OW38214   6.577   7.858   1.242
 8728SOL    HW138215   6.500   7.892   1.296
 8728SOL    HW238216   6.543   7.807   1.163
 8729SOL     OW38217   6.627   8.149   0.429
 8729SOL    HW138218   6.653   8.145   0.525
 8729SOL    HW238219   6.542   8.098   0.415
 8730SOL     OW38220   5.662   8.259   0.789
 8730SOL    HW138221   5.761   8.247   0.798
 8730SOL    HW238222   5.638   8.354   0.810
 8731SOL     OW38223   6.451   7.796   0.195
 8731SOL    HW138224   6.510   7.859   0.146
 8731SOL    HW238225   6.470   7.702   0.166
 8732SOL     OW38226   6.136   7.644   0.885
 8732SOL    HW138227   6.131   7.639   0.985
 8732SOL    HW238228   6.138   7.740   0.856
 8733SOL     OW38229   7.044   8.183   0.728
 8733SOL    HW138230   7.039   8.118   0.803
 8733SOL    HW238231   7.124   8.242   0.741
 8734SOL     OW38232   5.788   7.733   1.498
 8734SOL    HW138233   5.708   7.793   1.485
 8734SOL    HW238234   5.778   7.684   1.584
 8735SOL     OW38235   6.986   7.555   0.426
 8735SOL    HW138236   6.962   7.518   0.336
 8735SOL    HW238237   7.085   7.571   0.430
 8736SOL     OW38238   5.968   8.148   0.480
 8736SOL    HW138239   6.013   8.058   0.477
 8736SOL    HW238240   5.874   8.137   0.513
 8737SOL     OW38241   7.133   7.670   1.729
 8737SOL    HW138242   7.128   7.707   1.821
 8737SOL    HW238243   7.061   7.601   1.717
 8738SOL     OW38244   6.200   7.570   0.117
 8738SOL    HW138245   6.298   7.548   0.124
 8738SOL    HW238246   6.169   7.553   0.024
 8739SOL     OW38247   6.367   7.712   1.749
 8739SOL    HW138248   6.434   7.651   1.792
 8739SOL    HW238249   6.294   7.731   1.814
 8740SOL     OW38250   6.937   8.038   1.433
 8740SOL    HW138251   6.965   7.995   1.518
 8740SOL    HW238252   6.962   8.134   1.434
 8741SOL     OW38253   6.508   7.951   0.899
 8741SOL    HW138254   6.483   7.942   0.803
 8741SOL    HW238255   6.556   7.869   0.930
 8742SOL     OW38256   6.125   7.512   0.512
 8742SOL    HW138257   6.044   7.513   0.570
 8742SOL    HW238258   6.128   7.595   0.457
 8743SOL     OW38259   5.883   7.483   0.171
 8743SOL    HW138260   5.932   7.567   0.150
 8743SOL    HW238261   5.945   7.418   0.216
 8744SOL     OW38262   6.521   7.684   0.480
 8744SOL    HW138263   6.473   7.725   0.402
 8744SOL    HW238264   6.620   7.682   0.461
 8745SOL     OW38265   6.662   8.131   1.464
 8745SOL    HW138266   6.582   8.070   1.467
 8745SOL    HW238267   6.743   8.078   1.440
 8746SOL     OW38268   6.618   7.997   0.016
 8746SOL    HW138269   6.577   8.079  -0.023
 8746SOL    HW238270   6.682   8.023   0.089
 8747SOL     OW38271   5.664   8.004   1.386
 8747SOL    HW138272   5.756   8.003   1.345
 8747SOL    HW238273   5.658   8.078   1.453
 8748SOL     OW38274   6.147   7.670   1.147
 8748SOL    HW138275   6.185   7.586   1.184
 8748SOL    HW238276   6.059   7.689   1.191
 8749SOL     OW38277   6.452   7.902   0.642
 8749SOL    HW138278   6.420   7.974   0.580
 8749SOL    HW238279   6.476   7.821   0.589
 8750SOL     OW38280   6.603   7.487   0.753
 8750SOL    HW138281   6.531   7.492   0.684
 8750SOL    HW238282   6.579   7.418   0.822
 8751SOL     OW38283   7.052   8.038   0.992
 8751SOL    HW138284   7.022   7.943   0.999
 8751SOL    HW238285   7.125   8.054   1.058
 8752SOL     OW38286   7.443   8.281   0.377
 8752SOL    HW138287   7.485   8.217   0.441
 8752SOL    HW238288   7.405   8.230   0.299
 8753SOL     OW38289   6.976   8.023   0.078
 8753SOL    HW138290   6.922   8.002   0.159
 8753SOL    HW238291   7.067   7.982   0.087
 8754SOL     OW38292   6.113   7.704   0.328
 8754SOL    HW138293   6.140   7.645   0.253
 8754SOL    HW238294   6.113   7.799   0.297
 8755SOL     OW38295   7.224   8.547   1.079
 8755SOL    HW138296   7.229   8.628   1.138
 8755SOL    HW238297   7.138   8.549   1.028
 8756SOL     OW38298   6.501   7.537   1.402
 8756SOL    HW138299   6.526   7.517   1.307
 8756SOL    HW238300   6.573   7.593   1.444
 8757SOL     OW38301   5.996   8.261   1.251
 8757SOL    HW138302   6.082   8.273   1.301
 8757SOL    HW238303   5.954   8.174   1.278
 8758SOL     OW38304   6.860   7.834   1.262
 8758SOL    HW138305   6.881   7.908   1.326
 8758SOL    HW238306   6.771   7.851   1.219
 8759SOL     OW38307   6.152   7.985   0.865
 8759SOL    HW138308   6.164   8.051   0.791
 8759SOL    HW238309   6.198   8.019   0.948
 8760SOL     OW38310   7.168   8.087   0.472
 8760SOL    HW138311   7.137   8.148   0.545
 8760SOL    HW238312   7.218   8.139   0.403
 8761SOL     OW38313   5.988   8.199   1.598
 8761SOL    HW138314   6.056   8.254   1.551
 8761SOL    HW238315   6.028   8.111   1.625
 8762SOL     OW38316   6.599   7.553   1.770
 8762SOL    HW138317   6.605   7.638   1.718
 8762SOL    HW238318   6.631   7.477   1.713
 8763SOL     OW38319   6.090   7.498   1.740
 8763SOL    HW138320   6.048   7.441   1.670
 8763SOL    HW238321   6.024   7.567   1.772
 8764SOL     OW38322   6.159   8.318   1.029
 8764SOL    HW138323   6.203   8.407   1.020
 8764SOL    HW238324   6.096   8.318   1.106
 8765SOL     OW38325   6.946   8.310   1.045
 8765SOL    HW138326   6.871   8.310   0.979
 8765SOL    HW238327   6.983   8.218   1.054
 8766SOL     OW38328   6.795   7.973   0.275
 8766SOL    HW138329   6.808   7.889   0.329
 8766SOL    HW238330   6.766   8.047   0.335
 8767SOL     OW38331   5.893   7.661   1.231
 8767SOL    HW138332   5.870   7.698   1.321
 8767SOL    HW238333   5.863   7.566   1.225
 8768SOL     OW38334   6.318   8.082   1.064
 8768SOL    HW138335   6.377   8.056   0.988
 8768SOL    HW238336   6.290   8.178   1.053
 8769SOL     OW38337   5.893   7.511   0.618
 8769SOL    HW138338   5.882   7.605   0.651
 8769SOL    HW238339   5.888   7.448   0.695
 8770SOL     OW38340   7.208   7.815   0.374
 8770SOL    HW138341   7.210   7.739   0.438
 8770SOL    HW238342   7.160   7.892   0.414
 8771SOL     OW38343   6.609   8.214   0.966
 8771SOL    HW138344   6.624   8.235   1.062
 8771SOL    HW238345   6.579   8.119   0.957
 8772SOL     OW38346   5.936   8.346   1.804
 8772SOL    HW138347   6.012   8.390   1.852
 8772SOL    HW238348   5.971   8.299   1.722
 8773SOL     OW38349   7.126   7.722   0.125
 8773SOL    HW138350   7.065   7.647   0.148
 8773SOL    HW238351   7.148   7.774   0.208
 8774SOL     OW38352   6.889   8.286   0.042
 8774SOL    HW138353   6.923   8.193   0.057
 8774SOL    HW238354   6.907   8.313  -0.053
 8775SOL     OW38355   5.905   8.258   0.949
 8775SOL    HW138356   5.998   8.294   0.954
 8775SOL    HW238357   5.899   8.173   1.001
 8776SOL     OW38358   5.925   7.957   1.006
 8776SOL    HW138359   5.873   7.874   0.989
 8776SOL    HW238360   6.002   7.962   0.942
 8777SOL     OW38361   6.724   7.828   1.678
 8777SOL    HW138362   6.679   7.891   1.742
 8777SOL    HW238363   6.817   7.859   1.661
 8778SOL     OW38364   6.746   7.655   1.477
 8778SOL    HW138365   6.746   7.719   1.554
 8778SOL    HW238366   6.774   7.703   1.394
 8779SOL     OW38367   6.588   8.244   1.238
 8779SOL    HW138368   6.629   8.212   1.324
 8779SOL    HW238369   6.492   8.217   1.235
 8780SOL     OW38370   5.626   7.992   1.114
 8780SOL    HW138371   5.711   7.959   1.073
 8780SOL    HW238372   5.639   8.007   1.212
 8781SOL     OW38373   5.775   7.968   1.722
 8781SOL    HW138374   5.834   7.928   1.652
 8781SOL    HW238375   5.717   8.039   1.681
 8782SOL     OW38376   6.401   8.020   0.325
 8782SOL    HW138377   6.408   7.931   0.279
 8782SOL    HW238378   6.307   8.054   0.317
 8783SOL     OW38379   7.243   8.052   1.206
 8783SOL    HW138380   7.205   7.983   1.268
 8783SOL    HW238381   7.325   8.016   1.162
 8784SOL     OW38382   6.257   7.912   1.269
 8784SOL    HW138383   6.223   7.823   1.239
 8784SOL    HW238384   6.283   7.966   1.189
 8785SOL     OW38385   6.059   7.948   0.191
 8785SOL    HW138386   6.120   8.028   0.195
 8785SOL    HW238387   5.964   7.979   0.198
 8786SOL     OW38388   5.745   8.585   1.466
 8786SOL    HW138389   5.767   8.524   1.542
 8786SOL    HW238390   5.755   8.536   1.380
 8787SOL     OW38391   6.933   8.507   1.234
 8787SOL    HW138392   6.957   8.444   1.160
 8787SOL    HW238393   6.843   8.547   1.216
 8788SOL     OW38394   6.888   8.303   0.309
 8788SOL    HW138395   6.802   8.272   0.351
 8788SOL    HW238396   6.884   8.289   0.210
 8789SOL     OW38397   6.489   7.534   0.133
 8789SOL    HW138398   6.540   7.535   0.047
 8789SOL    HW238399   6.545   7.492   0.204
 8790SOL     OW38400   7.312   7.583   0.523
 8790SOL    HW138401   7.385   7.566   0.456
 8790SOL    HW238402   7.281   7.496   0.561
 8791SOL     OW38403   6.866   8.375   0.672
 8791SOL    HW138404   6.926   8.294   0.674
 8791SOL    HW238405   6.906   8.444   0.612
 8792SOL     OW38406   7.427   7.623   0.963
 8792SOL    HW138407   7.466   7.538   0.927
 8792SOL    HW238408   7.329   7.625   0.944
 8793SOL     OW38409   5.849   7.774   0.720
 8793SOL    HW138410   5.770   7.825   0.686
 8793SOL    HW238411   5.840   7.759   0.818
 8794SOL     OW38412   6.502   8.358   0.291
 8794SOL    HW138413   6.565   8.396   0.223
 8794SOL    HW238414   6.542   8.275   0.330
 8795SOL     OW38415   6.600   7.684   0.971
 8795SOL    HW138416   6.592   7.648   0.878
 8795SOL    HW238417   6.598   7.608   1.036
 8796SOL     OW38418   7.295   7.833   1.381
 8796SOL    HW138419   7.368   7.902   1.385
 8796SOL    HW238420   7.323   7.758   1.322
 8797SOL     OW38421   5.691   8.461   1.726
 8797SOL    HW138422   5.614   8.428   1.780
 8797SOL    HW238423   5.776   8.431   1.768
 8798SOL     OW38424   6.258   7.651   1.489
 8798SOL    HW138425   6.348   7.635   1.449
 8798SOL    HW238426   6.266   7.656   1.588
 8799SOL     OW38427   5.658   7.614   0.318
 8799SOL    HW138428   5.641   7.697   0.264
 8799SOL    HW238429   5.748   7.577   0.296
 8800SOL     OW38430   6.199   8.290   1.431
 8800SOL    HW138431   6.255   8.371   1.414
 8800SOL    HW238432   6.258   8.210   1.434
 8801SOL     OW38433   6.302   8.013   1.708
 8801SOL    HW138434   6.321   8.078   1.782
 8801SOL    HW238435   6.362   7.933   1.717
 8802SOL     OW38436   7.260   8.331   1.254
 8802SOL    HW138437   7.233   8.242   1.217
 8802SOL    HW238438   7.261   8.399   1.181
 8803SOL     OW38439   6.811   7.773   0.449
 8803SOL    HW138440   6.876   7.699   0.438
 8803SOL    HW238441   6.831   7.823   0.533
 8804SOL     OW38442   6.180   8.193   0.652
 8804SOL    HW138443   6.230   8.278   0.633
 8804SOL    HW238444   6.092   8.195   0.604
 8805SOL     OW38445   7.316   8.382   1.517
 8805SOL    HW138446   7.354   8.473   1.532
 8805SOL    HW238447   7.308   8.365   1.418
 8806SOL     OW38448   6.669   8.432   0.087
 8806SOL    HW138449   6.646   8.485   0.005
 8806SOL    HW238450   6.750   8.376   0.068
 8807SOL     OW38451   7.410   7.640   1.227
 8807SOL    HW138452   7.406   7.550   1.271
 8807SOL    HW238453   7.413   7.629   1.128
 8808SOL     OW38454   6.014   7.872   0.520
 8808SOL    HW138455   6.044   7.800   0.458
 8808SOL    HW238456   5.975   7.832   0.603
 8809SOL     OW38457   5.903   7.995   1.280
 8809SOL    HW138458   5.941   7.936   1.352
 8809SOL    HW238459   5.943   7.969   1.192
 8810SOL     OW38460   7.010   7.662   1.112
 8810SOL    HW138461   7.062   7.597   1.167
 8810SOL    HW238462   6.961   7.725   1.173
 8811SOL     OW38463   6.587   7.482   1.154
 8811SOL    HW138464   6.524   7.410   1.123
 8811SOL    HW238465   6.680   7.446   1.154
 8812SOL     OW38466   6.938   7.500   0.168
 8812SOL    HW138467   6.973   7.459   0.084
 8812SOL    HW238468   6.848   7.462   0.188
 8813SOL     OW38469   6.886   7.901   0.691
 8813SOL    HW138470   6.827   7.981   0.695
 8813SOL    HW238471   6.901   7.866   0.784
 8814SOL     OW38472   7.179   7.669   0.882
 8814SOL    HW138473   7.095   7.668   0.936
 8814SOL    HW238474   7.181   7.752   0.826
 8815SOL     OW38475   5.816   8.076   1.975
 8815SOL    HW138476   5.723   8.074   2.012
 8815SOL    HW238477   5.817   8.037   1.883
 8816SOL     OW38478   6.436   8.246   3.685
 8816SOL    HW138479   6.432   8.322   3.750
 8816SOL    HW238480   6.458   8.282   3.594
 8817SOL     OW38481   7.189   7.895   2.599
 8817SOL    HW138482   7.115   7.941   2.549
 8817SOL    HW238483   7.240   7.963   2.652
 8818SOL     OW38484   7.180   7.562   3.342
 8818SOL    HW138485   7.162   7.629   3.270
 8818SOL    HW238486   7.177   7.608   3.431
 8819SOL     OW38487   5.708   8.091   2.425
 8819SOL    HW138488   5.663   8.003   2.442
 8819SOL    HW238489   5.707   8.145   2.509
 8820SOL     OW38490   5.783   8.424   3.126
 8820SOL    HW138491   5.872   8.379   3.112
 8820SOL    HW238492   5.710   8.359   3.107
 8821SOL     OW38493   6.559   8.338   3.434
 8821SOL    HW138494   6.605   8.254   3.405
 8821SOL    HW238495   6.503   8.372   3.359
 8822SOL     OW38496   6.451   7.796   2.057
 8822SOL    HW138497   6.510   7.859   2.008
 8822SOL    HW238498   6.470   7.702   2.028
 8823SOL     OW38499   5.968   8.148   2.342
 8823SOL    HW138500   6.013   8.058   2.339
 8823SOL    HW238501   5.874   8.137   2.375
 8824SOL     OW38502   7.133   7.670   3.591
 8824SOL    HW138503   7.128   7.707   3.683
 8824SOL    HW238504   7.061   7.601   3.579
 8825SOL     OW38505   6.200   7.570   1.979
 8825SOL    HW138506   6.298   7.548   1.986
 8825SOL    HW238507   6.169   7.553   1.886
 8826SOL     OW38508   6.937   8.038   3.295
 8826SOL    HW138509   6.965   7.995   3.380
 8826SOL    HW238510   6.962   8.134   3.296
 8827SOL     OW38511   6.508   7.951   2.761
 8827SOL    HW138512   6.483   7.942   2.665
 8827SOL    HW238513   6.556   7.869   2.792
 8828SOL     OW38514   6.521   7.684   2.342
 8828SOL    HW138515   6.473   7.725   2.264
 8828SOL    HW238516   6.620   7.682   2.323
 8829SOL     OW38517   6.147   7.670   3.009
 8829SOL    HW138518   6.185   7.586   3.046
 8829SOL    HW238519   6.059   7.689   3.053
 8830SOL     OW38520   6.603   7.487   2.615
 8830SOL    HW138521   6.531   7.492   2.546
 8830SOL    HW238522   6.579   7.418   2.684
 8831SOL     OW38523   7.224   8.547   2.941
 8831SOL    HW138524   7.229   8.628   3.000
 8831SOL    HW238525   7.138   8.549   2.890
 8832SOL     OW38526   6.501   7.537   3.264
 8832SOL    HW138527   6.526   7.517   3.169
 8832SOL    HW238528   6.573   7.593   3.306
 8833SOL     OW38529   6.599   7.553   3.632
 8833SOL    HW138530   6.605   7.638   3.580
 8833SOL    HW238531   6.631   7.477   3.575
 8834SOL     OW38532   6.159   8.318   2.891
 8834SOL    HW138533   6.203   8.407   2.882
 8834SOL    HW238534   6.096   8.318   2.968
 8835SOL     OW38535   6.724   7.828   3.540
 8835SOL    HW138536   6.679   7.891   3.604
 8835SOL    HW238537   6.817   7.859   3.523
 8836SOL     OW38538   6.746   7.655   3.339
 8836SOL    HW138539   6.746   7.719   3.416
 8836SOL    HW238540   6.774   7.703   3.256
 8837SOL     OW38541   6.588   8.244   3.100
 8837SOL    HW138542   6.629   8.212   3.186
 8837SOL    HW238543   6.492   8.217   3.097
 8838SOL     OW38544   5.775   7.968   3.584
 8838SOL    HW138545   5.834   7.928   3.514
 8838SOL    HW238546   5.717   8.039   3.543
 8839SOL     OW38547   6.257   7.912   3.131
 8839SOL    HW138548   6.223   7.823   3.101
 8839SOL    HW238549   6.283   7.966   3.051
 8840SOL     OW38550   5.745   8.585   3.328
 8840SOL    HW138551   5.767   8.524   3.404
 8840SOL    HW238552   5.755   8.536   3.242
 8841SOL     OW38553   6.866   8.375   2.534
 8841SOL    HW138554   6.926   8.294   2.536
 8841SOL    HW238555   6.906   8.444   2.474
 8842SOL     OW38556   6.258   7.651   3.351
 8842SOL    HW138557   6.348   7.635   3.311
 8842SOL    HW238558   6.266   7.656   3.450
 8843SOL     OW38559   5.661   7.793   1.895
 8843SOL    HW138560   5.569   7.765   1.866
 8843SOL    HW238561   5.692   7.870   1.839
 8844SOL     OW38562   7.260   8.331   3.116
 8844SOL    HW138563   7.233   8.242   3.079
 8844SOL    HW238564   7.261   8.399   3.043
 8845SOL     OW38565   6.180   8.193   2.514
 8845SOL    HW138566   6.230   8.278   2.495
 8845SOL    HW238567   6.092   8.195   2.466
 8846SOL     OW38568   6.669   8.432   1.949
 8846SOL    HW138569   6.646   8.485   1.867
 8846SOL    HW238570   6.750   8.376   1.930
 8847SOL     OW38571   6.587   7.482   3.016
 8847SOL    HW138572   6.524   7.410   2.985
 8847SOL    HW238573   6.680   7.446   3.016
 8848SOL     OW38574   6.938   7.500   2.030
 8848SOL    HW138575   6.973   7.459   1.946
 8848SOL    HW238576   6.848   7.462   2.050
 8849SOL     OW38577   6.886   7.901   2.553
 8849SOL    HW138578   6.827   7.981   2.557
 8849SOL    HW238579   6.901   7.866   2.646
 8850SOL     OW38580   5.811   7.723   4.720
 8850SOL    HW138581   5.846   7.706   4.812
 8850SOL    HW238582   5.723   7.678   4.708
 8851SOL     OW38583   5.605   7.816   4.371
 8851SOL    HW138584   5.523   7.859   4.410
 8851SOL    HW238585   5.577   7.743   4.308
 8852SOL     OW38586   6.721   8.151   4.441
 8852SOL    HW138587   6.778   8.229   4.416
 8852SOL    HW238588   6.661   8.177   4.517
 8853SOL     OW38589   6.436   8.246   5.547
 8853SOL    HW138590   6.432   8.322   5.612
 8853SOL    HW238591   6.458   8.282   5.456
 8854SOL     OW38592   7.180   7.562   5.204
 8854SOL    HW138593   7.162   7.629   5.132
 8854SOL    HW238594   7.177   7.608   5.293
 8855SOL     OW38595   5.783   8.424   4.988
 8855SOL    HW138596   5.872   8.379   4.974
 8855SOL    HW238597   5.710   8.359   4.969
 8856SOL     OW38598   6.184   8.177   3.994
 8856SOL    HW138599   6.208   8.246   3.926
 8856SOL    HW238600   6.106   8.210   4.048
 8857SOL     OW38601   6.867   7.793   4.668
 8857SOL    HW138602   6.781   7.743   4.655
 8857SOL    HW238603   6.929   7.739   4.724
 8858SOL     OW38604   6.627   8.149   4.153
 8858SOL    HW138605   6.653   8.145   4.249
 8858SOL    HW238606   6.542   8.098   4.139
 8859SOL     OW38607   5.662   8.259   4.513
 8859SOL    HW138608   5.761   8.247   4.522
 8859SOL    HW238609   5.638   8.354   4.534
 8860SOL     OW38610   6.451   7.796   3.919
 8860SOL    HW138611   6.510   7.859   3.870
 8860SOL    HW238612   6.470   7.702   3.890
 8861SOL     OW38613   7.305   8.033   5.555
 8861SOL    HW138614   7.279   8.122   5.519
 8861SOL    HW238615   7.303   7.965   5.482
 8862SOL     OW38616   6.136   7.644   4.609
 8862SOL    HW138617   6.131   7.639   4.709
 8862SOL    HW238618   6.138   7.740   4.580
 8863SOL     OW38619   5.968   8.148   4.204
 8863SOL    HW138620   6.013   8.058   4.201
 8863SOL    HW238621   5.874   8.137   4.237
 8864SOL     OW38622   7.133   7.670   5.453
 8864SOL    HW138623   7.128   7.707   5.545
 8864SOL    HW238624   7.061   7.601   5.441
 8865SOL     OW38625   6.200   7.570   3.841
 8865SOL    HW138626   6.298   7.548   3.848
 8865SOL    HW238627   6.169   7.553   3.748
 8866SOL     OW38628   6.521   7.684   4.204
 8866SOL    HW138629   6.473   7.725   4.126
 8866SOL    HW238630   6.620   7.682   4.185
 8867SOL     OW38631   6.501   7.537   5.126
 8867SOL    HW138632   6.526   7.517   5.031
 8867SOL    HW238633   6.573   7.593   5.168
 8868SOL     OW38634   5.988   8.199   5.322
 8868SOL    HW138635   6.056   8.254   5.275
 8868SOL    HW238636   6.028   8.111   5.349
 8869SOL     OW38637   7.173   8.227   5.394
 8869SOL    HW138638   7.081   8.265   5.389
 8869SOL    HW238639   7.233   8.274   5.329
 8870SOL     OW38640   6.090   7.498   5.464
 8870SOL    HW138641   6.048   7.441   5.394
 8870SOL    HW238642   6.024   7.567   5.496
 8871SOL     OW38643   7.314   8.383   5.578
 8871SOL    HW138644   7.268   8.376   5.489
 8871SOL    HW238645   7.252   8.427   5.644
 8872SOL     OW38646   5.893   7.511   4.342
 8872SOL    HW138647   5.882   7.605   4.375
 8872SOL    HW238648   5.888   7.448   4.419
 8873SOL     OW38649   7.208   7.815   4.098
 8873SOL    HW138650   7.210   7.739   4.162
 8873SOL    HW238651   7.160   7.892   4.138
 8874SOL     OW38652   6.609   8.214   4.690
 8874SOL    HW138653   6.624   8.235   4.786
 8874SOL    HW238654   6.579   8.119   4.681
 8875SOL     OW38655   5.936   8.346   5.528
 8875SOL    HW138656   6.012   8.390   5.576
 8875SOL    HW238657   5.971   8.299   5.446
 8876SOL     OW38658   7.126   7.722   3.849
 8876SOL    HW138659   7.065   7.647   3.872
 8876SOL    HW238660   7.148   7.774   3.932
 8877SOL     OW38661   5.925   7.957   4.730
 8877SOL    HW138662   5.873   7.874   4.713
 8877SOL    HW238663   6.002   7.962   4.666
 8878SOL     OW38664   6.955   8.398   5.384
 8878SOL    HW138665   6.994   8.487   5.404
 8878SOL    HW238666   6.965   8.378   5.287
 8879SOL     OW38667   6.401   8.020   4.049
 8879SOL    HW138668   6.408   7.931   4.003
 8879SOL    HW238669   6.307   8.054   4.041
 8880SOL     OW38670   6.866   8.375   4.396
 8880SOL    HW138671   6.926   8.294   4.398
 8880SOL    HW238672   6.906   8.444   4.336
 8881SOL     OW38673   7.427   7.623   4.687
 8881SOL    HW138674   7.466   7.538   4.651
 8881SOL    HW238675   7.329   7.625   4.668
 8882SOL     OW38676   6.600   7.684   4.695
 8882SOL    HW138677   6.592   7.648   4.602
 8882SOL    HW238678   6.598   7.608   4.760
 8883SOL     OW38679   7.295   7.833   5.105
 8883SOL    HW138680   7.368   7.902   5.109
 8883SOL    HW238681   7.323   7.758   5.046
 8884SOL     OW38682   6.258   7.651   5.213
 8884SOL    HW138683   6.348   7.635   5.173
 8884SOL    HW238684   6.266   7.656   5.312
 8885SOL     OW38685   6.199   8.290   5.155
 8885SOL    HW138686   6.255   8.371   5.138
 8885SOL    HW238687   6.258   8.210   5.158
 8886SOL     OW38688   6.302   8.013   5.432
 8886SOL    HW138689   6.321   8.078   5.506
 8886SOL    HW238690   6.362   7.933   5.441
 8887SOL     OW38691   7.260   8.331   4.978
 8887SOL    HW138692   7.233   8.242   4.941
 8887SOL    HW238693   7.261   8.399   4.905
 8888SOL     OW38694   6.811   7.773   4.173
 8888SOL    HW138695   6.876   7.699   4.162
 8888SOL    HW238696   6.831   7.823   4.257
 8889SOL     OW38697   7.363   7.790   5.366
 8889SOL    HW138698   7.346   7.821   5.272
 8889SOL    HW238699   7.279   7.753   5.404
 8890SOL     OW38700   7.316   8.382   5.241
 8890SOL    HW138701   7.354   8.473   5.256
 8890SOL    HW238702   7.308   8.365   5.142
 8891SOL     OW38703   6.669   8.432   3.811
 8891SOL    HW138704   6.646   8.485   3.729
 8891SOL    HW238705   6.750   8.376   3.792
 8892SOL     OW38706   7.410   7.640   4.951
 8892SOL    HW138707   7.406   7.550   4.995
 8892SOL    HW238708   7.413   7.629   4.852
 8893SOL     OW38709   5.816   8.076   5.699
 8893SOL    HW138710   5.723   8.074   5.736
 8893SOL    HW238711   5.817   8.037   5.607
 8894SOL     OW38712   5.811   7.723   6.582
 8894SOL    HW138713   5.846   7.706   6.674
 8894SOL    HW238714   5.723   7.678   6.570
 8895SOL     OW38715   5.605   7.816   6.233
 8895SOL    HW138716   5.523   7.859   6.272
 8895SOL    HW238717   5.577   7.743   6.170
 8896SOL     OW38718   6.721   8.151   6.303
 8896SOL    HW138719   6.778   8.229   6.278
 8896SOL    HW238720   6.661   8.177   6.379
 8897SOL     OW38721   7.341   8.055   5.817
 8897SOL    HW138722   7.329   8.042   5.718
 8897SOL    HW238723   7.311   7.974   5.866
 8898SOL     OW38724   6.354   8.592   6.609
 8898SOL    HW138725   6.276   8.609   6.669
 8898SOL    HW238726   6.388   8.679   6.573
 8899SOL     OW38727   6.271   8.460   6.251
 8899SOL    HW138728   6.340   8.444   6.321
 8899SOL    HW238729   6.198   8.517   6.289
 8900SOL     OW38730   6.024   7.840   7.085
 8900SOL    HW138731   6.106   7.784   7.094
 8900SOL    HW238732   5.943   7.782   7.089
 8901SOL     OW38733   7.189   7.895   6.323
 8901SOL    HW138734   7.115   7.941   6.273
 8901SOL    HW238735   7.240   7.963   6.376
 8902SOL     OW38736   5.826   8.539   6.472
 8902SOL    HW138737   5.840   8.455   6.524
 8902SOL    HW238738   5.771   8.603   6.527
 8903SOL     OW38739   7.180   7.562   7.066
 8903SOL    HW138740   7.162   7.629   6.994
 8903SOL    HW238741   7.177   7.608   7.155
 8904SOL     OW38742   5.708   8.091   6.149
 8904SOL    HW138743   5.663   8.003   6.166
 8904SOL    HW238744   5.707   8.145   6.233
 8905SOL     OW38745   6.395   7.452   6.088
 8905SOL    HW138746   6.435   7.543   6.079
 8905SOL    HW238747   6.295   7.460   6.094
 8906SOL     OW38748   5.783   8.424   6.850
 8906SOL    HW138749   5.872   8.379   6.836
 8906SOL    HW238750   5.710   8.359   6.831
 8907SOL     OW38751   7.111   8.447   5.776
 8907SOL    HW138752   7.048   8.371   5.789
 8907SOL    HW238753   7.159   8.465   5.862
 8908SOL     OW38754   6.184   8.177   5.856
 8908SOL    HW138755   6.208   8.246   5.788
 8908SOL    HW238756   6.106   8.210   5.910
 8909SOL     OW38757   6.867   7.793   6.530
 8909SOL    HW138758   6.781   7.743   6.517
 8909SOL    HW238759   6.929   7.739   6.586
 8910SOL     OW38760   6.393   8.053   7.051
 8910SOL    HW138761   6.346   8.050   7.140
 8910SOL    HW238762   6.342   7.998   6.985
 8911SOL     OW38763   6.577   7.858   6.828
 8911SOL    HW138764   6.500   7.892   6.882
 8911SOL    HW238765   6.543   7.807   6.749
 8912SOL     OW38766   6.627   8.149   6.015
 8912SOL    HW138767   6.653   8.145   6.111
 8912SOL    HW238768   6.542   8.098   6.001
 8913SOL     OW38769   5.662   8.259   6.375
 8913SOL    HW138770   5.761   8.247   6.384
 8913SOL    HW238771   5.638   8.354   6.396
 8914SOL     OW38772   6.136   7.644   6.471
 8914SOL    HW138773   6.131   7.639   6.571
 8914SOL    HW238774   6.138   7.740   6.442
 8915SOL     OW38775   7.044   8.183   6.314
 8915SOL    HW138776   7.039   8.118   6.389
 8915SOL    HW238777   7.124   8.242   6.327
 8916SOL     OW38778   5.788   7.733   7.084
 8916SOL    HW138779   5.708   7.793   7.071
 8916SOL    HW238780   5.778   7.684   7.170
 8917SOL     OW38781   6.986   7.555   6.012
 8917SOL    HW138782   6.962   7.518   5.922
 8917SOL    HW238783   7.085   7.571   6.016
 8918SOL     OW38784   5.968   8.148   6.066
 8918SOL    HW138785   6.013   8.058   6.063
 8918SOL    HW238786   5.874   8.137   6.099
 8919SOL     OW38787   6.200   7.570   5.703
 8919SOL    HW138788   6.298   7.548   5.710
 8919SOL    HW238789   6.169   7.553   5.610
 8920SOL     OW38790   6.508   7.951   6.485
 8920SOL    HW138791   6.483   7.942   6.389
 8920SOL    HW238792   6.556   7.869   6.516
 8921SOL     OW38793   6.125   7.512   6.098
 8921SOL    HW138794   6.044   7.513   6.156
 8921SOL    HW238795   6.128   7.595   6.043
 8922SOL     OW38796   5.883   7.483   5.757
 8922SOL    HW138797   5.932   7.567   5.736
 8922SOL    HW238798   5.945   7.418   5.802
 8923SOL     OW38799   6.521   7.684   6.066
 8923SOL    HW138800   6.473   7.725   5.988
 8923SOL    HW238801   6.620   7.682   6.047
 8924SOL     OW38802   5.664   8.004   6.972
 8924SOL    HW138803   5.756   8.003   6.931
 8924SOL    HW238804   5.658   8.078   7.039
 8925SOL     OW38805   6.147   7.670   6.733
 8925SOL    HW138806   6.185   7.586   6.770
 8925SOL    HW238807   6.059   7.689   6.777
 8926SOL     OW38808   6.452   7.902   6.228
 8926SOL    HW138809   6.420   7.974   6.166
 8926SOL    HW238810   6.476   7.821   6.175
 8927SOL     OW38811   6.603   7.487   6.339
 8927SOL    HW138812   6.531   7.492   6.270
 8927SOL    HW238813   6.579   7.418   6.408
 8928SOL     OW38814   7.052   8.038   6.578
 8928SOL    HW138815   7.022   7.943   6.585
 8928SOL    HW238816   7.125   8.054   6.644
 8929SOL     OW38817   7.443   8.281   5.963
 8929SOL    HW138818   7.485   8.217   6.027
 8929SOL    HW238819   7.405   8.230   5.885
 8930SOL     OW38820   6.976   8.023   5.664
 8930SOL    HW138821   6.922   8.002   5.745
 8930SOL    HW238822   7.067   7.982   5.673
 8931SOL     OW38823   6.113   7.704   5.914
 8931SOL    HW138824   6.140   7.645   5.839
 8931SOL    HW238825   6.113   7.799   5.883
 8932SOL     OW38826   7.224   8.547   6.665
 8932SOL    HW138827   7.229   8.628   6.724
 8932SOL    HW238828   7.138   8.549   6.614
 8933SOL     OW38829   6.501   7.537   6.988
 8933SOL    HW138830   6.526   7.517   6.893
 8933SOL    HW238831   6.573   7.593   7.030
 8934SOL     OW38832   5.996   8.261   6.837
 8934SOL    HW138833   6.082   8.273   6.887
 8934SOL    HW238834   5.954   8.174   6.864
 8935SOL     OW38835   6.860   7.834   6.848
 8935SOL    HW138836   6.881   7.908   6.912
 8935SOL    HW238837   6.771   7.851   6.805
 8936SOL     OW38838   6.152   7.985   6.451
 8936SOL    HW138839   6.164   8.051   6.377
 8936SOL    HW238840   6.198   8.019   6.534
 8937SOL     OW38841   7.168   8.087   6.058
 8937SOL    HW138842   7.137   8.148   6.131
 8937SOL    HW238843   7.218   8.139   5.989
 8938SOL     OW38844   5.988   8.199   7.184
 8938SOL    HW138845   6.056   8.254   7.137
 8938SOL    HW238846   6.028   8.111   7.211
 8939SOL     OW38847   7.173   8.227   7.256
 8939SOL    HW138848   7.081   8.265   7.251
 8939SOL    HW238849   7.233   8.274   7.191
 8940SOL     OW38850   6.159   8.318   6.615
 8940SOL    HW138851   6.203   8.407   6.606
 8940SOL    HW238852   6.096   8.318   6.692
 8941SOL     OW38853   6.946   8.310   6.631
 8941SOL    HW138854   6.871   8.310   6.565
 8941SOL    HW238855   6.983   8.218   6.640
 8942SOL     OW38856   5.893   7.661   6.817
 8942SOL    HW138857   5.870   7.698   6.907
 8942SOL    HW238858   5.863   7.566   6.811
 8943SOL     OW38859   6.318   8.082   6.650
 8943SOL    HW138860   6.377   8.056   6.574
 8943SOL    HW238861   6.290   8.178   6.639
 8944SOL     OW38862   5.893   7.511   6.204
 8944SOL    HW138863   5.882   7.605   6.237
 8944SOL    HW238864   5.888   7.448   6.281
 8945SOL     OW38865   7.208   7.815   5.960
 8945SOL    HW138866   7.210   7.739   6.024
 8945SOL    HW238867   7.160   7.892   6.000
 8946SOL     OW38868   6.609   8.214   6.552
 8946SOL    HW138869   6.624   8.235   6.648
 8946SOL    HW238870   6.579   8.119   6.543
 8947SOL     OW38871   7.126   7.722   5.711
 8947SOL    HW138872   7.065   7.647   5.734
 8947SOL    HW238873   7.148   7.774   5.794
 8948SOL     OW38874   6.889   8.286   5.628
 8948SOL    HW138875   6.923   8.193   5.643
 8948SOL    HW238876   6.907   8.313   5.533
 8949SOL     OW38877   5.905   8.258   6.535
 8949SOL    HW138878   5.998   8.294   6.540
 8949SOL    HW238879   5.899   8.173   6.587
 8950SOL     OW38880   5.925   7.957   6.592
 8950SOL    HW138881   5.873   7.874   6.575
 8950SOL    HW238882   6.002   7.962   6.528
 8951SOL     OW38883   6.724   7.828   7.264
 8951SOL    HW138884   6.679   7.891   7.328
 8951SOL    HW238885   6.817   7.859   7.247
 8952SOL     OW38886   6.746   7.655   7.063
 8952SOL    HW138887   6.746   7.719   7.140
 8952SOL    HW238888   6.774   7.703   6.980
 8953SOL     OW38889   6.588   8.244   6.824
 8953SOL    HW138890   6.629   8.212   6.910
 8953SOL    HW238891   6.492   8.217   6.821
 8954SOL     OW38892   5.626   7.992   6.700
 8954SOL    HW138893   5.711   7.959   6.659
 8954SOL    HW238894   5.639   8.007   6.798
 8955SOL     OW38895   6.401   8.020   5.911
 8955SOL    HW138896   6.408   7.931   5.865
 8955SOL    HW238897   6.307   8.054   5.903
 8956SOL     OW38898   7.243   8.052   6.792
 8956SOL    HW138899   7.205   7.983   6.854
 8956SOL    HW238900   7.325   8.016   6.748
 8957SOL     OW38901   6.257   7.912   6.855
 8957SOL    HW138902   6.223   7.823   6.825
 8957SOL    HW238903   6.283   7.966   6.775
 8958SOL     OW38904   6.059   7.948   5.777
 8958SOL    HW138905   6.120   8.028   5.781
 8958SOL    HW238906   5.964   7.979   5.784
 8959SOL     OW38907   5.745   8.585   7.052
 8959SOL    HW138908   5.767   8.524   7.128
 8959SOL    HW238909   5.755   8.536   6.966
 8960SOL     OW38910   6.933   8.507   6.820
 8960SOL    HW138911   6.957   8.444   6.746
 8960SOL    HW238912   6.843   8.547   6.802
 8961SOL     OW38913   6.888   8.303   5.895
 8961SOL    HW138914   6.802   8.272   5.937
 8961SOL    HW238915   6.884   8.289   5.796
 8962SOL     OW38916   7.312   7.583   6.109
 8962SOL    HW138917   7.385   7.566   6.042
 8962SOL    HW238918   7.281   7.496   6.147
 8963SOL     OW38919   6.866   8.375   6.258
 8963SOL    HW138920   6.926   8.294   6.260
 8963SOL    HW238921   6.906   8.444   6.198
 8964SOL     OW38922   7.427   7.623   6.549
 8964SOL    HW138923   7.466   7.538   6.513
 8964SOL    HW238924   7.329   7.625   6.530
 8965SOL     OW38925   5.849   7.774   6.306
 8965SOL    HW138926   5.770   7.825   6.272
 8965SOL    HW238927   5.840   7.759   6.404
 8966SOL     OW38928   6.502   8.358   5.877
 8966SOL    HW138929   6.565   8.396   5.809
 8966SOL    HW238930   6.542   8.275   5.916
 8967SOL     OW38931   6.600   7.684   6.557
 8967SOL    HW138932   6.592   7.648   6.464
 8967SOL    HW238933   6.598   7.608   6.622
 8968SOL     OW38934   7.295   7.833   6.967
 8968SOL    HW138935   7.368   7.902   6.971
 8968SOL    HW238936   7.323   7.758   6.908
 8969SOL     OW38937   7.026   8.304   6.984
 8969SOL    HW138938   6.969   8.356   6.921
 8969SOL    HW238939   7.122   8.316   6.960
 8970SOL     OW38940   6.199   8.290   7.017
 8970SOL    HW138941   6.255   8.371   7.000
 8970SOL    HW238942   6.258   8.210   7.020
 8971SOL     OW38943   7.260   8.331   6.840
 8971SOL    HW138944   7.233   8.242   6.803
 8971SOL    HW238945   7.261   8.399   6.767
 8972SOL     OW38946   6.811   7.773   6.035
 8972SOL    HW138947   6.876   7.699   6.024
 8972SOL    HW238948   6.831   7.823   6.119
 8973SOL     OW38949   6.180   8.193   6.238
 8973SOL    HW138950   6.230   8.278   6.219
 8973SOL    HW238951   6.092   8.195   6.190
 8974SOL     OW38952   7.363   7.790   7.228
 8974SOL    HW138953   7.346   7.821   7.134
 8974SOL    HW238954   7.279   7.753   7.266
 8975SOL     OW38955   7.316   8.382   7.103
 8975SOL    HW138956   7.354   8.473   7.118
 8975SOL    HW238957   7.308   8.365   7.004
 8976SOL     OW38958   6.669   8.432   5.673
 8976SOL    HW138959   6.646   8.485   5.591
 8976SOL    HW238960   6.750   8.376   5.654
 8977SOL     OW38961   7.410   7.640   6.813
 8977SOL    HW138962   7.406   7.550   6.857
 8977SOL    HW238963   7.413   7.629   6.714
 8978SOL     OW38964   6.014   7.872   6.106
 8978SOL    HW138965   6.044   7.800   6.044
 8978SOL    HW238966   5.975   7.832   6.189
 8979SOL     OW38967   5.903   7.995   6.866
 8979SOL    HW138968   5.941   7.936   6.938
 8979SOL    HW238969   5.943   7.969   6.778
 8980SOL     OW38970   7.010   7.662   6.698
 8980SOL    HW138971   7.062   7.597   6.753
 8980SOL    HW238972   6.961   7.725   6.759
 8981SOL     OW38973   6.587   7.482   6.740
 8981SOL    HW138974   6.524   7.410   6.709
 8981SOL    HW238975   6.680   7.446   6.740
 8982SOL     OW38976   6.938   7.500   5.754
 8982SOL    HW138977   6.973   7.459   5.670
 8982SOL    HW238978   6.848   7.462   5.774
 8983SOL     OW38979   6.886   7.901   6.277
 8983SOL    HW138980   6.827   7.981   6.281
 8983SOL    HW238981   6.901   7.866   6.370
 8984SOL     OW38982   7.179   7.669   6.468
 8984SOL    HW138983   7.095   7.668   6.522
 8984SOL    HW238984   7.181   7.752   6.412
 8985SOL     OW38985   7.678   0.628   0.113
 8985SOL    HW138986   7.585   0.626   0.150
 8985SOL    HW238987   7.679   0.589   0.021
 8986SOL     OW38988   7.673   0.275   0.996
 8986SOL    HW138989   7.708   0.258   1.088
 8986SOL    HW238990   7.585   0.230   0.984
 8987SOL     OW38991   7.467   0.368   0.647
 8987SOL    HW138992   7.385   0.411   0.686
 8987SOL    HW238993   7.439   0.295   0.584
 8988SOL     OW38994   8.017   1.275   1.165
 8988SOL    HW138995   7.924   1.268   1.128
 8988SOL    HW238996   8.028   1.364   1.209
 8989SOL     OW38997   9.003   1.511   0.703
 8989SOL    HW138998   8.946   1.495   0.784
 8989SOL    HW238999   8.944   1.521   0.623
 8990SOL     OW39000   8.583   0.703   0.717
 8990SOL    HW139001   8.640   0.781   0.692
 8990SOL    HW239002   8.523   0.729   0.793
 8991SOL     OW39003   9.203   0.607   0.231
 8991SOL    HW139004   9.191   0.594   0.132
 8991SOL    HW239005   9.173   0.526   0.280
 8992SOL     OW39006   8.216   1.144   1.023
 8992SOL    HW139007   8.138   1.161   1.083
 8992SOL    HW239008   8.250   1.231   0.987
 8993SOL     OW39009   8.133   1.012   0.665
 8993SOL    HW139010   8.202   0.996   0.735
 8993SOL    HW239011   8.060   1.069   0.703
 8994SOL     OW39012   7.783   1.435   1.061
 8994SOL    HW139013   7.705   1.404   1.008
 8994SOL    HW239014   7.841   1.493   1.004
 8995SOL     OW39015   8.908   1.505   1.339
 8995SOL    HW139016   8.932   1.599   1.365
 8995SOL    HW239017   8.892   1.451   1.421
 8996SOL     OW39018   7.886   0.392   1.499
 8996SOL    HW139019   7.968   0.336   1.508
 8996SOL    HW239020   7.805   0.334   1.503
 8997SOL     OW39021   9.051   0.447   0.737
 8997SOL    HW139022   8.977   0.493   0.687
 8997SOL    HW239023   9.102   0.515   0.790
 8998SOL     OW39024   7.679   1.713   0.483
 8998SOL    HW139025   7.713   1.790   0.537
 8998SOL    HW239026   7.723   1.713   0.393
 8999SOL     OW39027   7.678   1.434   0.538
 8999SOL    HW139028   7.652   1.530   0.538
 8999SOL    HW239029   7.607   1.380   0.583
 9000SOL     OW39030   7.688   1.091   0.886
 9000SOL    HW139031   7.702   1.007   0.938
 9000SOL    HW239032   7.633   1.155   0.941
 9001SOL     OW39033   8.068   1.786   1.439
 9001SOL    HW139034   7.976   1.769   1.474
 9001SOL    HW239035   8.096   1.878   1.465
 9002SOL     OW39036   8.054   0.964   0.123
 9002SOL    HW139037   8.061   1.048   0.069
 9002SOL    HW239038   8.100   0.977   0.211
 9003SOL     OW39039   7.570   0.643   0.563
 9003SOL    HW139040   7.525   0.555   0.580
 9003SOL    HW239041   7.569   0.697   0.647
 9004SOL     OW39042   9.290   1.767   0.359
 9004SOL    HW139043   9.344   1.738   0.439
 9004SOL    HW239044   9.320   1.857   0.330
 9005SOL     OW39045   7.475   1.596   0.117
 9005SOL    HW139046   7.456   1.500   0.138
 9005SOL    HW239047   7.442   1.654   0.192
 9006SOL     OW39048   8.061   1.365   0.726
 9006SOL    HW139049   8.012   1.278   0.735
 9006SOL    HW239050   8.038   1.408   0.639
 9007SOL     OW39051   8.257   0.004   0.502
 9007SOL    HW139052   8.297   0.095   0.493
 9007SOL    HW239053   8.157   0.012   0.508
 9008SOL     OW39054   8.973   0.999   0.190
 9008SOL    HW139055   8.910   0.923   0.203
 9008SOL    HW239056   9.021   1.017   0.276
 9009SOL     OW39057   8.635   1.792   1.616
 9009SOL    HW139058   8.659   1.852   1.540
 9009SOL    HW239059   8.642   1.697   1.586
 9010SOL     OW39060   8.914   1.417   0.953
 9010SOL    HW139061   8.855   1.423   1.033
 9010SOL    HW239062   8.899   1.329   0.907
 9011SOL     OW39063   9.115   1.714   0.572
 9011SOL    HW139064   9.074   1.691   0.484
 9011SOL    HW239065   9.097   1.640   0.637
 9012SOL     OW39066   8.046   0.729   0.270
 9012SOL    HW139067   8.070   0.798   0.202
 9012SOL    HW239068   7.968   0.762   0.324
 9013SOL     OW39069   8.729   0.345   0.944
 9013SOL    HW139070   8.643   0.295   0.931
 9013SOL    HW239071   8.791   0.291   1.000
 9014SOL     OW39072   9.024   1.662   0.307
 9014SOL    HW139073   9.113   1.708   0.310
 9014SOL    HW239074   9.003   1.638   0.212
 9015SOL     OW39075   8.421   0.890   1.572
 9015SOL    HW139076   8.467   0.806   1.543
 9015SOL    HW239077   8.365   0.924   1.497
 9016SOL     OW39078   8.489   0.701   0.429
 9016SOL    HW139079   8.515   0.697   0.525
 9016SOL    HW239080   8.404   0.650   0.415
 9017SOL     OW39081   7.524   0.811   0.789
 9017SOL    HW139082   7.623   0.799   0.798
 9017SOL    HW239083   7.500   0.906   0.810
 9018SOL     OW39084   8.313   0.348   0.195
 9018SOL    HW139085   8.372   0.411   0.146
 9018SOL    HW239086   8.332   0.254   0.166
 9019SOL     OW39087   8.810   1.144   0.545
 9019SOL    HW139088   8.893   1.115   0.497
 9019SOL    HW239089   8.761   1.211   0.489
 9020SOL     OW39090   7.998   0.196   0.885
 9020SOL    HW139091   7.993   0.191   0.985
 9020SOL    HW239092   8.000   0.292   0.856
 9021SOL     OW39093   8.456   1.456   0.477
 9021SOL    HW139094   8.410   1.528   0.425
 9021SOL    HW239095   8.452   1.476   0.575
 9022SOL     OW39096   7.799   1.801   0.853
 9022SOL    HW139097   7.849   1.715   0.859
 9022SOL    HW239098   7.864   1.878   0.850
 9023SOL     OW39099   7.769   0.943   0.242
 9023SOL    HW139100   7.851   0.982   0.200
 9023SOL    HW239101   7.742   0.861   0.193
 9024SOL     OW39102   8.906   0.735   0.728
 9024SOL    HW139103   8.901   0.670   0.803
 9024SOL    HW239104   8.986   0.794   0.741
 9025SOL     OW39105   7.909   1.266   1.727
 9025SOL    HW139106   7.859   1.267   1.641
 9025SOL    HW239107   7.846   1.248   1.803
 9026SOL     OW39108   8.559   1.776   0.237
 9026SOL    HW139109   8.499   1.714   0.287
 9026SOL    HW239110   8.590   1.732   0.152
 9027SOL     OW39111   9.080   1.377   0.081
 9027SOL    HW139112   9.048   1.471   0.071
 9027SOL    HW239113   9.004   1.314   0.069
 9028SOL     OW39114   7.912   1.743   0.323
 9028SOL    HW139115   7.945   1.782   0.409
 9028SOL    HW239116   7.988   1.736   0.258
 9029SOL     OW39117   8.848   0.107   0.426
 9029SOL    HW139118   8.824   0.070   0.336
 9029SOL    HW239119   8.947   0.123   0.430
 9030SOL     OW39120   8.388   1.698   0.904
 9030SOL    HW139121   8.468   1.641   0.925
 9030SOL    HW239122   8.339   1.658   0.827
 9031SOL     OW39123   7.830   0.700   0.480
 9031SOL    HW139124   7.875   0.610   0.477
 9031SOL    HW239125   7.736   0.689   0.513
 9032SOL     OW39126   8.995   0.222   1.729
 9032SOL    HW139127   8.990   0.259   1.821
 9032SOL    HW239128   8.923   0.153   1.717
 9033SOL     OW39129   8.062   0.122   0.117
 9033SOL    HW139130   8.160   0.100   0.124
 9033SOL    HW239131   8.031   0.105   0.024
 9034SOL     OW39132   8.336   1.514   1.195
 9034SOL    HW139133   8.313   1.489   1.101
 9034SOL    HW239134   8.397   1.445   1.234
 9035SOL     OW39135   8.799   0.590   1.433
 9035SOL    HW139136   8.827   0.547   1.518
 9035SOL    HW239137   8.824   0.686   1.434
 9036SOL     OW39138   8.251   1.402   0.924
 9036SOL    HW139139   8.341   1.416   0.882
 9036SOL    HW239140   8.180   1.404   0.853
 9037SOL     OW39141   7.987   0.064   0.512
 9037SOL    HW139142   7.906   0.065   0.570
 9037SOL    HW239143   7.990   0.147   0.457
 9038SOL     OW39144   8.882   1.188   0.041
 9038SOL    HW139145   8.914   1.112   0.098
 9038SOL    HW239146   8.790   1.215   0.071
 9039SOL     OW39147   7.745   0.035   0.171
 9039SOL    HW139148   7.794   0.119   0.150
 9039SOL    HW239149   7.807  -0.030   0.216
 9040SOL     OW39150   8.383   0.236   0.480
 9040SOL    HW139151   8.335   0.277   0.402
 9040SOL    HW239152   8.482   0.234   0.461
 9041SOL     OW39153   8.524   0.683   1.464
 9041SOL    HW139154   8.444   0.622   1.467
 9041SOL    HW239155   8.605   0.630   1.440
 9042SOL     OW39156   8.675   1.570   0.793
 9042SOL    HW139157   8.696   1.644   0.728
 9042SOL    HW239158   8.743   1.570   0.866
 9043SOL     OW39159   7.907   1.152   0.741
 9043SOL    HW139160   7.836   1.125   0.806
 9043SOL    HW239161   7.881   1.124   0.648
 9044SOL     OW39162   8.719   1.797   0.591
 9044SOL    HW139163   8.763   1.861   0.527
 9044SOL    HW239164   8.669   1.849   0.661
 9045SOL     OW39165   8.480   0.549   0.016
 9045SOL    HW139166   8.439   0.631  -0.023
 9045SOL    HW239167   8.544   0.575   0.089
 9046SOL     OW39168   8.314   0.454   0.642
 9046SOL    HW139169   8.282   0.526   0.580
 9046SOL    HW239170   8.338   0.373   0.589
 9047SOL     OW39171   8.465   0.039   0.753
 9047SOL    HW139172   8.393   0.044   0.684
 9047SOL    HW239173   8.441  -0.030   0.822
 9048SOL     OW39174   8.914   0.590   0.992
 9048SOL    HW139175   8.884   0.495   0.999
 9048SOL    HW239176   8.987   0.606   1.058
 9049SOL     OW39177   9.305   0.833   0.377
 9049SOL    HW139178   9.347   0.769   0.441
 9049SOL    HW239179   9.267   0.782   0.299
 9050SOL     OW39180   7.936   1.385   0.174
 9050SOL    HW139181   7.849   1.370   0.221
 9050SOL    HW239182   7.919   1.411   0.079
 9051SOL     OW39183   8.838   0.575   0.078
 9051SOL    HW139184   8.784   0.554   0.159
 9051SOL    HW239185   8.929   0.534   0.087
 9052SOL     OW39186   7.975   0.256   0.328
 9052SOL    HW139187   8.002   0.197   0.253
 9052SOL    HW239188   7.975   0.351   0.297
 9053SOL     OW39189   8.559   1.195   1.100
 9053SOL    HW139190   8.519   1.239   1.181
 9053SOL    HW239191   8.518   1.232   1.017
 9054SOL     OW39192   8.428   1.116   1.719
 9054SOL    HW139193   8.329   1.122   1.729
 9054SOL    HW239194   8.451   1.036   1.663
 9055SOL     OW39195   8.153   1.050   0.368
 9055SOL    HW139196   8.139   1.057   0.467
 9055SOL    HW239197   8.237   0.999   0.350
 9056SOL     OW39198   8.722   0.386   1.262
 9056SOL    HW139199   8.743   0.460   1.326
 9056SOL    HW239200   8.633   0.403   1.219
 9057SOL     OW39201   7.512   1.564   1.331
 9057SOL    HW139202   7.466   1.646   1.297
 9057SOL    HW239203   7.610   1.583   1.340
 9058SOL     OW39204   7.815   1.100   0.501
 9058SOL    HW139205   7.808   1.183   0.445
 9058SOL    HW239206   7.819   1.020   0.441
 9059SOL     OW39207   8.014   0.537   0.865
 9059SOL    HW139208   8.026   0.603   0.791
 9059SOL    HW239209   8.060   0.571   0.948
 9060SOL     OW39210   8.700   1.348   0.388
 9060SOL    HW139211   8.750   1.425   0.428
 9060SOL    HW239212   8.605   1.350   0.420
 9061SOL     OW39213   9.030   0.639   0.472
 9061SOL    HW139214   8.999   0.700   0.545
 9061SOL    HW239215   9.080   0.691   0.403
 9062SOL     OW39216   7.802   1.510   1.329
 9062SOL    HW139217   7.781   1.466   1.242
 9062SOL    HW239218   7.899   1.536   1.332
 9063SOL     OW39219   7.850   0.751   1.598
 9063SOL    HW139220   7.918   0.806   1.551
 9063SOL    HW239221   7.890   0.663   1.625
 9064SOL     OW39222   9.035   0.779   1.670
 9064SOL    HW139223   8.943   0.817   1.665
 9064SOL    HW239224   9.095   0.826   1.605
 9065SOL     OW39225   8.021   0.870   1.029
 9065SOL    HW139226   8.065   0.959   1.020
 9065SOL    HW239227   7.958   0.870   1.106
 9066SOL     OW39228   8.657   0.525   0.275
 9066SOL    HW139229   8.670   0.441   0.329
 9066SOL    HW239230   8.628   0.599   0.335
 9067SOL     OW39231   7.755   0.213   1.231
 9067SOL    HW139232   7.732   0.250   1.321
 9067SOL    HW239233   7.725   0.118   1.225
 9068SOL     OW39234   7.485   1.310   1.282
 9068SOL    HW139235   7.538   1.261   1.350
 9068SOL    HW239236   7.507   1.408   1.287
 9069SOL     OW39237   8.180   0.634   1.064
 9069SOL    HW139238   8.239   0.608   0.988
 9069SOL    HW239239   8.152   0.730   1.053
 9070SOL     OW39240   7.755   0.063   0.618
 9070SOL    HW139241   7.744   0.157   0.651
 9070SOL    HW239242   7.750   0.000   0.695
 9071SOL     OW39243   9.070   0.367   0.374
 9071SOL    HW139244   9.072   0.291   0.438
 9071SOL    HW239245   9.022   0.444   0.414
 9072SOL     OW39246   8.471   0.766   0.966
 9072SOL    HW139247   8.486   0.787   1.062
 9072SOL    HW239248   8.441   0.671   0.957
 9073SOL     OW39249   8.988   0.274   0.125
 9073SOL    HW139250   8.927   0.199   0.148
 9073SOL    HW239251   9.010   0.326   0.208
 9074SOL     OW39252   8.751   0.838   0.042
 9074SOL    HW139253   8.785   0.745   0.057
 9074SOL    HW239254   8.769   0.865  -0.053
 9075SOL     OW39255   8.516   1.333   0.849
 9075SOL    HW139256   8.523   1.249   0.794
 9075SOL    HW239257   8.578   1.402   0.813
 9076SOL     OW39258   7.767   0.810   0.949
 9076SOL    HW139259   7.860   0.846   0.954
 9076SOL    HW239260   7.761   0.725   1.001
 9077SOL     OW39261   7.787   0.509   1.006
 9077SOL    HW139262   7.735   0.426   0.989
 9077SOL    HW239263   7.864   0.514   0.942
 9078SOL     OW39264   7.456   1.326   0.200
 9078SOL    HW139265   7.363   1.347   0.169
 9078SOL    HW239266   7.466   1.227   0.213
 9079SOL     OW39267   7.536   1.801   0.927
 9079SOL    HW139268   7.494   1.715   0.900
 9079SOL    HW239269   7.630   1.804   0.893
 9080SOL     OW39270   7.952   1.568   0.910
 9080SOL    HW139271   8.018   1.642   0.919
 9080SOL    HW239272   7.996   1.489   0.868
 9081SOL     OW39273   8.450   0.796   1.238
 9081SOL    HW139274   8.491   0.764   1.324
 9081SOL    HW239275   8.354   0.769   1.235
 9082SOL     OW39276   7.488   0.544   1.114
 9082SOL    HW139277   7.573   0.511   1.073
 9082SOL    HW239278   7.501   0.559   1.212
 9083SOL     OW39279   8.263   0.572   0.325
 9083SOL    HW139280   8.270   0.483   0.279
 9083SOL    HW239281   8.169   0.606   0.317
 9084SOL     OW39282   7.700   1.564   1.744
 9084SOL    HW139283   7.670   1.621   1.820
 9084SOL    HW239284   7.693   1.467   1.770
 9085SOL     OW39285   8.378   1.678   1.465
 9085SOL    HW139286   8.354   1.660   1.370
 9085SOL    HW239287   8.408   1.772   1.475
 9086SOL     OW39288   7.921   0.500   0.191
 9086SOL    HW139289   7.982   0.580   0.195
 9086SOL    HW239290   7.826   0.531   0.198
 9087SOL     OW39291   8.750   0.855   0.309
 9087SOL    HW139292   8.664   0.824   0.351
 9087SOL    HW239293   8.746   0.841   0.210
 9088SOL     OW39294   9.207   1.747   1.154
 9088SOL    HW139295   9.268   1.777   1.081
 9088SOL    HW239296   9.169   1.658   1.132
 9089SOL     OW39297   7.531   1.258   1.022
 9089SOL    HW139298   7.526   1.257   1.122
 9089SOL    HW239299   7.448   1.217   0.984
 9090SOL     OW39300   8.136   1.662   1.716
 9090SOL    HW139301   8.080   1.743   1.725
 9090SOL    HW239302   8.188   1.666   1.630
 9091SOL     OW39303   8.351   0.086   0.133
 9091SOL    HW139304   8.402   0.087   0.047
 9091SOL    HW239305   8.407   0.044   0.204
 9092SOL     OW39306   9.174   0.135   0.523
 9092SOL    HW139307   9.247   0.118   0.456
 9092SOL    HW239308   9.143   0.048   0.561
 9093SOL     OW39309   8.836   1.573   0.477
 9093SOL    HW139310   8.903   1.585   0.403
 9093SOL    HW239311   8.796   1.662   0.500
 9094SOL     OW39312   8.728   0.927   0.672
 9094SOL    HW139313   8.788   0.846   0.674
 9094SOL    HW239314   8.768   0.996   0.612
 9095SOL     OW39315   8.120   1.616   0.154
 9095SOL    HW139316   8.129   1.626   0.055
 9095SOL    HW239317   8.080   1.527   0.175
 9096SOL     OW39318   9.098   1.720   1.394
 9096SOL    HW139319   9.151   1.730   1.310
 9096SOL    HW239320   9.071   1.810   1.428
 9097SOL     OW39321   9.289   0.175   0.963
 9097SOL    HW139322   9.328   0.090   0.927
 9097SOL    HW239323   9.191   0.177   0.944
 9098SOL     OW39324   7.711   0.326   0.720
 9098SOL    HW139325   7.632   0.377   0.686
 9098SOL    HW239326   7.702   0.311   0.818
 9099SOL     OW39327   8.642   1.612   0.031
 9099SOL    HW139328   8.648   1.519   0.068
 9099SOL    HW239329   8.583   1.612  -0.049
 9100SOL     OW39330   8.270   1.002   1.372
 9100SOL    HW139331   8.310   1.001   1.280
 9100SOL    HW239332   8.280   1.094   1.412
 9101SOL     OW39333   8.364   0.910   0.291
 9101SOL    HW139334   8.427   0.948   0.223
 9101SOL    HW239335   8.404   0.827   0.330
 9102SOL     OW39336   8.952   1.607   0.044
 9102SOL    HW139337   8.860   1.644   0.051
 9102SOL    HW239338   8.990   1.627  -0.046
 9103SOL     OW39339   9.062   1.292   1.289
 9103SOL    HW139340   9.122   1.295   1.369
 9103SOL    HW239341   8.987   1.356   1.302
 9104SOL     OW39342   8.487   1.098   0.696
 9104SOL    HW139343   8.417   1.051   0.750
 9104SOL    HW239344   8.546   1.030   0.653
 9105SOL     OW39345   8.462   0.236   0.971
 9105SOL    HW139346   8.454   0.200   0.878
 9105SOL    HW239347   8.460   0.160   1.036
 9106SOL     OW39348   8.038   1.487   0.491
 9106SOL    HW139349   8.080   1.429   0.421
 9106SOL    HW239350   7.994   1.566   0.447
 9107SOL     OW39351   7.703   1.348   0.290
 9107SOL    HW139352   7.607   1.349   0.263
 9107SOL    HW239353   7.715   1.401   0.374
 9108SOL     OW39354   7.520   0.166   0.318
 9108SOL    HW139355   7.503   0.249   0.264
 9108SOL    HW239356   7.610   0.129   0.296
 9109SOL     OW39357   8.631   1.335   0.119
 9109SOL    HW139358   8.532   1.324   0.121
 9109SOL    HW239359   8.665   1.350   0.212
 9110SOL     OW39360   8.941   1.767   0.959
 9110SOL    HW139361   8.974   1.831   0.890
 9110SOL    HW239362   9.007   1.761   1.034
 9111SOL     OW39363   7.838   1.741   1.560
 9111SOL    HW139364   7.747   1.782   1.558
 9111SOL    HW239365   7.831   1.647   1.592
 9112SOL     OW39366   9.122   0.883   1.254
 9112SOL    HW139367   9.095   0.794   1.217
 9112SOL    HW239368   9.123   0.951   1.181
 9113SOL     OW39369   8.673   0.325   0.449
 9113SOL    HW139370   8.738   0.251   0.438
 9113SOL    HW239371   8.693   0.375   0.533
 9114SOL     OW39372   8.042   0.745   0.652
 9114SOL    HW139373   8.092   0.830   0.633
 9114SOL    HW239374   7.954   0.747   0.604
 9115SOL     OW39375   8.307   1.374   0.016
 9115SOL    HW139376   8.261   1.389   0.104
 9115SOL    HW239377   8.351   1.459  -0.014
 9116SOL     OW39378   8.109   1.790   0.953
 9116SOL    HW139379   8.063   1.878   0.940
 9116SOL    HW239380   8.208   1.802   0.946
 9117SOL     OW39381   8.307   0.956   0.861
 9117SOL    HW139382   8.361   0.887   0.909
 9117SOL    HW239383   8.275   1.025   0.927
 9118SOL     OW39384   8.531   0.984   0.087
 9118SOL    HW139385   8.508   1.037   0.005
 9118SOL    HW239386   8.612   0.928   0.068
 9119SOL     OW39387   9.309   1.569   0.851
 9119SOL    HW139388   9.238   1.557   0.781
 9119SOL    HW239389   9.310   1.490   0.911
 9120SOL     OW39390   7.527   1.240   0.653
 9120SOL    HW139391   7.526   1.193   0.741
 9120SOL    HW239392   7.609   1.212   0.602
 9121SOL     OW39393   9.272   0.192   1.227
 9121SOL    HW139394   9.268   0.102   1.271
 9121SOL    HW239395   9.275   0.181   1.128
 9122SOL     OW39396   7.876   0.424   0.520
 9122SOL    HW139397   7.906   0.352   0.458
 9122SOL    HW239398   7.837   0.384   0.603
 9123SOL     OW39399   9.153   1.487   1.104
 9123SOL    HW139400   9.060   1.462   1.077
 9123SOL    HW239401   9.179   1.437   1.186
 9124SOL     OW39402   7.765   0.547   1.280
 9124SOL    HW139403   7.803   0.488   1.352
 9124SOL    HW239404   7.805   0.521   1.192
 9125SOL     OW39405   8.260   1.586   0.687
 9125SOL    HW139406   8.292   1.596   0.593
 9125SOL    HW239407   8.181   1.524   0.689
 9126SOL     OW39408   8.872   0.214   1.112
 9126SOL    HW139409   8.924   0.149   1.167
 9126SOL    HW239410   8.823   0.277   1.173
 9127SOL     OW39411   8.449   0.034   1.154
 9127SOL    HW139412   8.386  -0.038   1.123
 9127SOL    HW239413   8.542  -0.002   1.154
 9128SOL     OW39414   8.218   1.330   0.301
 9128SOL    HW139415   8.172   1.243   0.318
 9128SOL    HW239416   8.309   1.327   0.342
 9129SOL     OW39417   8.800   0.052   0.168
 9129SOL    HW139418   8.835   0.011   0.084
 9129SOL    HW239419   8.710   0.014   0.188
 9130SOL     OW39420   8.748   0.453   0.691
 9130SOL    HW139421   8.689   0.533   0.695
 9130SOL    HW239422   8.763   0.418   0.784
 9131SOL     OW39423   9.041   0.221   0.882
 9131SOL    HW139424   8.957   0.220   0.936
 9131SOL    HW239425   9.043   0.304   0.826
 9132SOL     OW39426   7.487   1.077   0.300
 9132SOL    HW139427   7.586   1.066   0.291
 9132SOL    HW239428   7.447   0.991   0.332
 9133SOL     OW39429   8.323   1.646   0.337
 9133SOL    HW139430   8.246   1.611   0.283
 9133SOL    HW239431   8.291   1.717   0.399
 9134SOL     OW39432   7.673   0.275   2.858
 9134SOL    HW139433   7.708   0.258   2.950
 9134SOL    HW239434   7.585   0.230   2.846
 9135SOL     OW39435   7.467   0.368   2.509
 9135SOL    HW139436   7.385   0.411   2.548
 9135SOL    HW239437   7.439   0.295   2.446
 9136SOL     OW39438   8.298   0.798   3.685
 9136SOL    HW139439   8.294   0.874   3.750
 9136SOL    HW239440   8.320   0.834   3.594
 9137SOL     OW39441   8.134   1.161   3.665
 9137SOL    HW139442   8.194   1.240   3.679
 9137SOL    HW239443   8.048   1.192   3.624
 9138SOL     OW39444   7.783   1.435   2.923
 9138SOL    HW139445   7.705   1.404   2.870
 9138SOL    HW239446   7.841   1.493   2.866
 9139SOL     OW39447   8.575   1.341   3.552
 9139SOL    HW139448   8.622   1.341   3.640
 9139SOL    HW239449   8.527   1.254   3.541
 9140SOL     OW39450   7.688   1.091   2.748
 9140SOL    HW139451   7.702   1.007   2.800
 9140SOL    HW239452   7.633   1.155   2.803
 9141SOL     OW39453   8.741   1.228   3.285
 9141SOL    HW139454   8.778   1.155   3.227
 9141SOL    HW239455   8.793   1.233   3.370
 9142SOL     OW39456   8.729   0.345   2.806
 9142SOL    HW139457   8.643   0.295   2.793
 9142SOL    HW239458   8.791   0.291   2.862
 9143SOL     OW39459   8.255   0.605   3.327
 9143SOL    HW139460   8.208   0.602   3.416
 9143SOL    HW239461   8.204   0.550   3.261
 9144SOL     OW39462   8.842   0.469   3.536
 9144SOL    HW139463   8.822   0.512   3.624
 9144SOL    HW239464   8.920   0.407   3.545
 9145SOL     OW39465   8.439   0.410   3.104
 9145SOL    HW139466   8.362   0.444   3.158
 9145SOL    HW239467   8.405   0.359   3.025
 9146SOL     OW39468   9.243   1.066   2.735
 9146SOL    HW139469   9.181   1.051   2.659
 9146SOL    HW239470   9.191   1.077   2.820
 9147SOL     OW39471   8.675   1.550   3.368
 9147SOL    HW139472   8.681   1.473   3.432
 9147SOL    HW239473   8.623   1.524   3.288
 9148SOL     OW39474   8.906   0.735   2.590
 9148SOL    HW139475   8.901   0.670   2.665
 9148SOL    HW239476   8.986   0.794   2.603
 9149SOL     OW39477   7.909   1.266   3.589
 9149SOL    HW139478   7.859   1.267   3.503
 9149SOL    HW239479   7.846   1.248   3.665
 9150SOL     OW39480   7.912   1.743   2.185
 9150SOL    HW139481   7.945   1.782   2.271
 9150SOL    HW239482   7.988   1.736   2.120
 9151SOL     OW39483   8.062   0.122   1.979
 9151SOL    HW139484   8.160   0.100   1.986
 9151SOL    HW239485   8.031   0.105   1.886
 9152SOL     OW39486   8.370   0.503   2.761
 9152SOL    HW139487   8.345   0.494   2.665
 9152SOL    HW239488   8.418   0.421   2.792
 9153SOL     OW39489   8.524   0.683   3.326
 9153SOL    HW139490   8.444   0.622   3.329
 9153SOL    HW239491   8.605   0.630   3.302
 9154SOL     OW39492   8.719   1.797   2.453
 9154SOL    HW139493   8.763   1.861   2.389
 9154SOL    HW239494   8.669   1.849   2.523
 9155SOL     OW39495   7.526   0.556   3.248
 9155SOL    HW139496   7.618   0.555   3.207
 9155SOL    HW239497   7.520   0.630   3.315
 9156SOL     OW39498   9.305   0.833   2.239
 9156SOL    HW139499   9.347   0.769   2.303
 9156SOL    HW239500   9.267   0.782   2.161
 9157SOL     OW39501   8.838   0.575   1.940
 9157SOL    HW139502   8.784   0.554   2.021
 9157SOL    HW239503   8.929   0.534   1.949
 9158SOL     OW39504   9.086   1.099   2.941
 9158SOL    HW139505   9.091   1.180   3.000
 9158SOL    HW239506   9.000   1.101   2.890
 9159SOL     OW39507   7.858   0.813   3.113
 9159SOL    HW139508   7.944   0.825   3.163
 9159SOL    HW239509   7.816   0.726   3.140
 9160SOL     OW39510   8.720   1.445   3.004
 9160SOL    HW139511   8.767   1.458   3.091
 9160SOL    HW239512   8.654   1.371   3.013
 9161SOL     OW39513   9.030   0.639   2.334
 9161SOL    HW139514   8.999   0.700   2.407
 9161SOL    HW239515   9.080   0.691   2.265
 9162SOL     OW39516   7.850   0.751   3.460
 9162SOL    HW139517   7.918   0.806   3.413
 9162SOL    HW239518   7.890   0.663   3.487
 9163SOL     OW39519   9.035   0.779   3.532
 9163SOL    HW139520   8.943   0.817   3.527
 9163SOL    HW239521   9.095   0.826   3.467
 9164SOL     OW39522   9.176   0.935   3.716
 9164SOL    HW139523   9.130   0.928   3.627
 9164SOL    HW239524   9.114   0.979   3.782
 9165SOL     OW39525   9.070   0.367   2.236
 9165SOL    HW139526   9.072   0.291   2.300
 9165SOL    HW239527   9.022   0.444   2.276
 9166SOL     OW39528   7.767   0.810   2.811
 9166SOL    HW139529   7.860   0.846   2.816
 9166SOL    HW239530   7.761   0.725   2.863
 9167SOL     OW39531   7.787   0.509   2.868
 9167SOL    HW139532   7.735   0.426   2.851
 9167SOL    HW239533   7.864   0.514   2.804
 9168SOL     OW39534   8.586   0.380   3.540
 9168SOL    HW139535   8.541   0.443   3.604
 9168SOL    HW239536   8.679   0.411   3.523
 9169SOL     OW39537   7.536   1.801   2.789
 9169SOL    HW139538   7.494   1.715   2.762
 9169SOL    HW239539   7.630   1.804   2.755
 9170SOL     OW39540   8.450   0.796   3.100
 9170SOL    HW139541   8.491   0.764   3.186
 9170SOL    HW239542   8.354   0.769   3.097
 9171SOL     OW39543   8.817   0.950   3.522
 9171SOL    HW139544   8.856   1.039   3.542
 9171SOL    HW239545   8.827   0.930   3.425
 9172SOL     OW39546   9.105   0.604   3.068
 9172SOL    HW139547   9.067   0.535   3.130
 9172SOL    HW239548   9.187   0.568   3.024
 9173SOL     OW39549   7.700   1.564   3.606
 9173SOL    HW139550   7.670   1.621   3.682
 9173SOL    HW239551   7.693   1.467   3.632
 9174SOL     OW39552   8.119   0.464   3.131
 9174SOL    HW139553   8.085   0.375   3.101
 9174SOL    HW239554   8.145   0.518   3.051
 9175SOL     OW39555   9.207   1.747   3.016
 9175SOL    HW139556   9.268   1.777   2.943
 9175SOL    HW239557   9.169   1.658   2.994
 9176SOL     OW39558   8.136   1.662   3.578
 9176SOL    HW139559   8.080   1.743   3.587
 9176SOL    HW239560   8.188   1.666   3.492
 9177SOL     OW39561   8.120   1.616   2.016
 9177SOL    HW139562   8.129   1.626   1.917
 9177SOL    HW239563   8.080   1.527   2.037
 9178SOL     OW39564   9.289   0.175   2.825
 9178SOL    HW139565   9.328   0.090   2.789
 9178SOL    HW239566   9.191   0.177   2.806
 9179SOL     OW39567   8.462   0.236   2.833
 9179SOL    HW139568   8.454   0.200   2.740
 9179SOL    HW239569   8.460   0.160   2.898
 9180SOL     OW39570   8.164   0.565   3.570
 9180SOL    HW139571   8.183   0.630   3.644
 9180SOL    HW239572   8.224   0.485   3.579
 9181SOL     OW39573   8.898   1.220   3.495
 9181SOL    HW139574   8.889   1.210   3.594
 9181SOL    HW239575   8.994   1.213   3.469
 9182SOL     OW39576   8.042   0.745   2.514
 9182SOL    HW139577   8.092   0.830   2.495
 9182SOL    HW239578   7.954   0.747   2.466
 9183SOL     OW39579   8.307   1.374   1.878
 9183SOL    HW139580   8.261   1.389   1.966
 9183SOL    HW239581   8.351   1.459   1.848
 9184SOL     OW39582   8.109   1.790   2.815
 9184SOL    HW139583   8.063   1.878   2.802
 9184SOL    HW239584   8.208   1.802   2.808
 9185SOL     OW39585   8.531   0.984   1.949
 9185SOL    HW139586   8.508   1.037   1.867
 9185SOL    HW239587   8.612   0.928   1.930
 9186SOL     OW39588   7.669   1.314   3.706
 9186SOL    HW139589   7.604   1.241   3.685
 9186SOL    HW239590   7.673   1.328   3.804
 9187SOL     OW39591   8.120   1.391   3.486
 9187SOL    HW139592   8.042   1.341   3.524
 9187SOL    HW239593   8.117   1.486   3.517
 9188SOL     OW39594   8.066   1.567   3.146
 9188SOL    HW139595   8.061   1.649   3.203
 9188SOL    HW239596   8.155   1.564   3.101
 9189SOL     OW39597   8.800   0.052   2.030
 9189SOL    HW139598   8.835   0.011   1.946
 9189SOL    HW239599   8.710   0.014   2.050
 9190SOL     OW39600   9.203   0.607   3.955
 9190SOL    HW139601   9.191   0.594   3.856
 9190SOL    HW239602   9.173   0.526   4.004
 9191SOL     OW39603   8.216   1.144   4.747
 9191SOL    HW139604   8.138   1.161   4.807
 9191SOL    HW239605   8.250   1.231   4.711
 9192SOL     OW39606   8.298   0.798   5.547
 9192SOL    HW139607   8.294   0.874   5.612
 9192SOL    HW239608   8.320   0.834   5.456
 9193SOL     OW39609   8.133   1.012   4.389
 9193SOL    HW139610   8.202   0.996   4.459
 9193SOL    HW239611   8.060   1.069   4.427
 9194SOL     OW39612   8.134   1.161   5.527
 9194SOL    HW139613   8.194   1.240   5.541
 9194SOL    HW239614   8.048   1.192   5.486
 9195SOL     OW39615   7.679   1.713   4.207
 9195SOL    HW139616   7.713   1.790   4.261
 9195SOL    HW239617   7.723   1.713   4.117
 9196SOL     OW39618   8.068   1.786   5.163
 9196SOL    HW139619   7.976   1.769   5.198
 9196SOL    HW239620   8.096   1.878   5.189
 9197SOL     OW39621   7.475   1.596   3.841
 9197SOL    HW139622   7.456   1.500   3.862
 9197SOL    HW239623   7.442   1.654   3.916
 9198SOL     OW39624   8.061   1.365   4.450
 9198SOL    HW139625   8.012   1.278   4.459
 9198SOL    HW239626   8.038   1.408   4.363
 9199SOL     OW39627   8.741   1.228   5.147
 9199SOL    HW139628   8.778   1.155   5.089
 9199SOL    HW239629   8.793   1.233   5.232
 9200SOL     OW39630   7.645   0.976   4.988
 9200SOL    HW139631   7.734   0.931   4.974
 9200SOL    HW239632   7.572   0.911   4.969
 9201SOL     OW39633   8.914   1.417   4.677
 9201SOL    HW139634   8.855   1.423   4.757
 9201SOL    HW239635   8.899   1.329   4.631
 9202SOL     OW39636   9.024   1.662   4.031
 9202SOL    HW139637   9.113   1.708   4.034
 9202SOL    HW239638   9.003   1.638   3.936
 9203SOL     OW39639   8.255   0.605   5.189
 9203SOL    HW139640   8.208   0.602   5.278
 9203SOL    HW239641   8.204   0.550   5.123
 9204SOL     OW39642   8.313   0.348   3.919
 9204SOL    HW139643   8.372   0.411   3.870
 9204SOL    HW239644   8.332   0.254   3.890
 9205SOL     OW39645   7.998   0.196   4.609
 9205SOL    HW139646   7.993   0.191   4.709
 9205SOL    HW239647   8.000   0.292   4.580
 9206SOL     OW39648   8.675   1.550   5.230
 9206SOL    HW139649   8.681   1.473   5.294
 9206SOL    HW239650   8.623   1.524   5.150
 9207SOL     OW39651   7.909   1.266   5.451
 9207SOL    HW139652   7.859   1.267   5.365
 9207SOL    HW239653   7.846   1.248   5.527
 9208SOL     OW39654   7.650   0.285   5.222
 9208SOL    HW139655   7.570   0.345   5.209
 9208SOL    HW239656   7.640   0.236   5.308
 9209SOL     OW39657   7.912   1.743   4.047
 9209SOL    HW139658   7.945   1.782   4.133
 9209SOL    HW239659   7.988   1.736   3.982
 9210SOL     OW39660   8.848   0.107   4.150
 9210SOL    HW139661   8.824   0.070   4.060
 9210SOL    HW239662   8.947   0.123   4.154
 9211SOL     OW39663   8.388   1.698   4.628
 9211SOL    HW139664   8.468   1.641   4.649
 9211SOL    HW239665   8.339   1.658   4.551
 9212SOL     OW39666   7.830   0.700   4.204
 9212SOL    HW139667   7.875   0.610   4.201
 9212SOL    HW239668   7.736   0.689   4.237
 9213SOL     OW39669   8.995   0.222   5.453
 9213SOL    HW139670   8.990   0.259   5.545
 9213SOL    HW239671   8.923   0.153   5.441
 9214SOL     OW39672   8.370   0.503   4.623
 9214SOL    HW139673   8.345   0.494   4.527
 9214SOL    HW239674   8.418   0.421   4.654
 9215SOL     OW39675   7.907   1.152   4.465
 9215SOL    HW139676   7.836   1.125   4.530
 9215SOL    HW239677   7.881   1.124   4.372
 9216SOL     OW39678   7.526   0.556   5.110
 9216SOL    HW139679   7.618   0.555   5.069
 9216SOL    HW239680   7.520   0.630   5.177
 9217SOL     OW39681   8.838   0.575   3.802
 9217SOL    HW139682   8.784   0.554   3.883
 9217SOL    HW239683   8.929   0.534   3.811
 9218SOL     OW39684   7.975   0.256   4.052
 9218SOL    HW139685   8.002   0.197   3.977
 9218SOL    HW239686   7.975   0.351   4.021
 9219SOL     OW39687   9.202   1.223   5.312
 9219SOL    HW139688   9.293   1.184   5.299
 9219SOL    HW239689   9.210   1.319   5.336
 9220SOL     OW39690   8.559   1.195   4.824
 9220SOL    HW139691   8.519   1.239   4.905
 9220SOL    HW239692   8.518   1.232   4.741
 9221SOL     OW39693   8.428   1.116   5.443
 9221SOL    HW139694   8.329   1.122   5.453
 9221SOL    HW239695   8.451   1.036   5.387
 9222SOL     OW39696   7.858   0.813   4.975
 9222SOL    HW139697   7.944   0.825   5.025
 9222SOL    HW239698   7.816   0.726   5.002
 9223SOL     OW39699   7.815   1.100   4.225
 9223SOL    HW139700   7.808   1.183   4.169
 9223SOL    HW239701   7.819   1.020   4.165
 9224SOL     OW39702   8.720   1.445   4.866
 9224SOL    HW139703   8.767   1.458   4.953
 9224SOL    HW239704   8.654   1.371   4.875
 9225SOL     OW39705   9.030   0.639   4.196
 9225SOL    HW139706   8.999   0.700   4.269
 9225SOL    HW239707   9.080   0.691   4.127
 9226SOL     OW39708   7.952   0.050   5.464
 9226SOL    HW139709   7.910  -0.007   5.394
 9226SOL    HW239710   7.886   0.119   5.496
 9227SOL     OW39711   8.751   0.838   3.766
 9227SOL    HW139712   8.785   0.745   3.781
 9227SOL    HW239713   8.769   0.865   3.671
 9228SOL     OW39714   7.787   0.509   4.730
 9228SOL    HW139715   7.735   0.426   4.713
 9228SOL    HW239716   7.864   0.514   4.666
 9229SOL     OW39717   8.817   0.950   5.384
 9229SOL    HW139718   8.856   1.039   5.404
 9229SOL    HW239719   8.827   0.930   5.287
 9230SOL     OW39720   9.105   0.604   4.930
 9230SOL    HW139721   9.067   0.535   4.992
 9230SOL    HW239722   9.187   0.568   4.886
 9231SOL     OW39723   7.700   1.564   5.468
 9231SOL    HW139724   7.670   1.621   5.544
 9231SOL    HW239725   7.693   1.467   5.494
 9232SOL     OW39726   7.921   0.500   3.915
 9232SOL    HW139727   7.982   0.580   3.919
 9232SOL    HW239728   7.826   0.531   3.922
 9233SOL     OW39729   7.578   1.794   5.575
 9233SOL    HW139730   7.537   1.720   5.628
 9233SOL    HW239731   7.642   1.845   5.633
 9234SOL     OW39732   8.728   0.927   4.396
 9234SOL    HW139733   8.788   0.846   4.398
 9234SOL    HW239734   8.768   0.996   4.336
 9235SOL     OW39735   7.711   0.326   4.444
 9235SOL    HW139736   7.632   0.377   4.410
 9235SOL    HW239737   7.702   0.311   4.542
 9236SOL     OW39738   8.952   1.607   3.768
 9236SOL    HW139739   8.860   1.644   3.775
 9236SOL    HW239740   8.990   1.627   3.678
 9237SOL     OW39741   8.462   0.236   4.695
 9237SOL    HW139742   8.454   0.200   4.602
 9237SOL    HW239743   8.460   0.160   4.760
 9238SOL     OW39744   7.703   1.348   4.014
 9238SOL    HW139745   7.607   1.349   3.987
 9238SOL    HW239746   7.715   1.401   4.098
 9239SOL     OW39747   8.888   0.856   5.122
 9239SOL    HW139748   8.831   0.908   5.059
 9239SOL    HW239749   8.984   0.868   5.098
 9240SOL     OW39750   8.631   1.335   3.843
 9240SOL    HW139751   8.532   1.324   3.845
 9240SOL    HW239752   8.665   1.350   3.936
 9241SOL     OW39753   8.061   0.842   5.155
 9241SOL    HW139754   8.117   0.923   5.138
 9241SOL    HW239755   8.120   0.762   5.158
 9242SOL     OW39756   8.941   1.767   4.683
 9242SOL    HW139757   8.974   1.831   4.614
 9242SOL    HW239758   9.007   1.761   4.758
 9243SOL     OW39759   9.122   0.883   4.978
 9243SOL    HW139760   9.095   0.794   4.941
 9243SOL    HW239761   9.123   0.951   4.905
 9244SOL     OW39762   8.673   0.325   4.173
 9244SOL    HW139763   8.738   0.251   4.162
 9244SOL    HW239764   8.693   0.375   4.257
 9245SOL     OW39765   8.042   0.745   4.376
 9245SOL    HW139766   8.092   0.830   4.357
 9245SOL    HW239767   7.954   0.747   4.328
 9246SOL     OW39768   8.307   1.374   3.740
 9246SOL    HW139769   8.261   1.389   3.828
 9246SOL    HW239770   8.351   1.459   3.710
 9247SOL     OW39771   9.309   1.569   4.575
 9247SOL    HW139772   9.238   1.557   4.505
 9247SOL    HW239773   9.310   1.490   4.635
 9248SOL     OW39774   7.669   1.314   5.568
 9248SOL    HW139775   7.604   1.241   5.547
 9248SOL    HW239776   7.673   1.328   5.666
 9249SOL     OW39777   7.876   0.424   4.244
 9249SOL    HW139778   7.906   0.352   4.182
 9249SOL    HW239779   7.837   0.384   4.327
 9250SOL     OW39780   7.765   0.547   5.004
 9250SOL    HW139781   7.803   0.488   5.076
 9250SOL    HW239782   7.805   0.521   4.916
 9251SOL     OW39783   8.872   0.214   4.836
 9251SOL    HW139784   8.924   0.149   4.891
 9251SOL    HW239785   8.823   0.277   4.897
 9252SOL     OW39786   8.449   0.034   4.878
 9252SOL    HW139787   8.386  -0.038   4.847
 9252SOL    HW239788   8.542  -0.002   4.878
 9253SOL     OW39789   8.218   1.330   4.025
 9253SOL    HW139790   8.172   1.243   4.042
 9253SOL    HW239791   8.309   1.327   4.066
 9254SOL     OW39792   7.487   1.077   4.024
 9254SOL    HW139793   7.586   1.066   4.015
 9254SOL    HW239794   7.447   0.991   4.056
 9255SOL     OW39795   7.673   0.275   6.582
 9255SOL    HW139796   7.708   0.258   6.674
 9255SOL    HW239797   7.585   0.230   6.570
 9256SOL     OW39798   7.467   0.368   6.233
 9256SOL    HW139799   7.385   0.411   6.272
 9256SOL    HW239800   7.439   0.295   6.170
 9257SOL     OW39801   8.017   1.275   6.751
 9257SOL    HW139802   7.924   1.268   6.714
 9257SOL    HW239803   8.028   1.364   6.795
 9258SOL     OW39804   9.003   1.511   6.289
 9258SOL    HW139805   8.946   1.495   6.370
 9258SOL    HW239806   8.944   1.521   6.209
 9259SOL     OW39807   8.583   0.703   6.303
 9259SOL    HW139808   8.640   0.781   6.278
 9259SOL    HW239809   8.523   0.729   6.379
 9260SOL     OW39810   9.203   0.607   5.817
 9260SOL    HW139811   9.191   0.594   5.718
 9260SOL    HW239812   9.173   0.526   5.866
 9261SOL     OW39813   8.216   1.144   6.609
 9261SOL    HW139814   8.138   1.161   6.669
 9261SOL    HW239815   8.250   1.231   6.573
 9262SOL     OW39816   8.133   1.012   6.251
 9262SOL    HW139817   8.202   0.996   6.321
 9262SOL    HW239818   8.060   1.069   6.289
 9263SOL     OW39819   7.783   1.435   6.647
 9263SOL    HW139820   7.705   1.404   6.594
 9263SOL    HW239821   7.841   1.493   6.590
 9264SOL     OW39822   8.908   1.505   6.925
 9264SOL    HW139823   8.932   1.599   6.951
 9264SOL    HW239824   8.892   1.451   7.007
 9265SOL     OW39825   7.886   0.392   7.085
 9265SOL    HW139826   7.968   0.336   7.094
 9265SOL    HW239827   7.805   0.334   7.089
 9266SOL     OW39828   9.051   0.447   6.323
 9266SOL    HW139829   8.977   0.493   6.273
 9266SOL    HW239830   9.102   0.515   6.376
 9267SOL     OW39831   7.678   1.434   6.124
 9267SOL    HW139832   7.652   1.530   6.124
 9267SOL    HW239833   7.607   1.380   6.169
 9268SOL     OW39834   7.688   1.091   6.472
 9268SOL    HW139835   7.702   1.007   6.524
 9268SOL    HW239836   7.633   1.155   6.527
 9269SOL     OW39837   8.068   1.786   7.025
 9269SOL    HW139838   7.976   1.769   7.060
 9269SOL    HW239839   8.096   1.878   7.051
 9270SOL     OW39840   8.054   0.964   5.709
 9270SOL    HW139841   8.061   1.048   5.655
 9270SOL    HW239842   8.100   0.977   5.797
 9271SOL     OW39843   9.042   0.114   7.066
 9271SOL    HW139844   9.024   0.181   6.994
 9271SOL    HW239845   9.039   0.160   7.155
 9272SOL     OW39846   7.570   0.643   6.149
 9272SOL    HW139847   7.525   0.555   6.166
 9272SOL    HW239848   7.569   0.697   6.233
 9273SOL     OW39849   9.290   1.767   5.945
 9273SOL    HW139850   9.344   1.738   6.025
 9273SOL    HW239851   9.320   1.857   5.916
 9274SOL     OW39852   9.137   0.922   6.198
 9274SOL    HW139853   9.232   0.893   6.206
 9274SOL    HW239854   9.129   0.987   6.123
 9275SOL     OW39855   9.089   1.108   6.018
 9275SOL    HW139856   9.175   1.110   5.966
 9275SOL    HW239857   9.103   1.155   6.106
 9276SOL     OW39858   8.061   1.365   6.312
 9276SOL    HW139859   8.012   1.278   6.321
 9276SOL    HW239860   8.038   1.408   6.225
 9277SOL     OW39861   8.257   0.004   6.088
 9277SOL    HW139862   8.297   0.095   6.079
 9277SOL    HW239863   8.157   0.012   6.094
 9278SOL     OW39864   7.645   0.976   6.850
 9278SOL    HW139865   7.734   0.931   6.836
 9278SOL    HW239866   7.572   0.911   6.831
 9279SOL     OW39867   8.973   0.999   5.776
 9279SOL    HW139868   8.910   0.923   5.789
 9279SOL    HW239869   9.021   1.017   5.862
 9280SOL     OW39870   8.914   1.417   6.539
 9280SOL    HW139871   8.855   1.423   6.619
 9280SOL    HW239872   8.899   1.329   6.493
 9281SOL     OW39873   9.115   1.714   6.158
 9281SOL    HW139874   9.074   1.691   6.070
 9281SOL    HW239875   9.097   1.640   6.223
 9282SOL     OW39876   8.046   0.729   5.856
 9282SOL    HW139877   8.070   0.798   5.788
 9282SOL    HW239878   7.968   0.762   5.910
 9283SOL     OW39879   8.729   0.345   6.530
 9283SOL    HW139880   8.643   0.295   6.517
 9283SOL    HW239881   8.791   0.291   6.586
 9284SOL     OW39882   9.024   1.662   5.893
 9284SOL    HW139883   9.113   1.708   5.896
 9284SOL    HW239884   9.003   1.638   5.798
 9285SOL     OW39885   8.255   0.605   7.051
 9285SOL    HW139886   8.208   0.602   7.140
 9285SOL    HW239887   8.204   0.550   6.985
 9286SOL     OW39888   8.439   0.410   6.828
 9286SOL    HW139889   8.362   0.444   6.882
 9286SOL    HW239890   8.405   0.359   6.749
 9287SOL     OW39891   8.489   0.701   6.015
 9287SOL    HW139892   8.515   0.697   6.111
 9287SOL    HW239893   8.404   0.650   6.001
 9288SOL     OW39894   7.524   0.811   6.375
 9288SOL    HW139895   7.623   0.799   6.384
 9288SOL    HW239896   7.500   0.906   6.396
 9289SOL     OW39897   7.578   1.821   7.157
 9289SOL    HW139898   7.568   1.806   7.256
 9289SOL    HW239899   7.492   1.857   7.121
 9290SOL     OW39900   8.313   0.348   5.781
 9290SOL    HW139901   8.372   0.411   5.732
 9290SOL    HW239902   8.332   0.254   5.752
 9291SOL     OW39903   8.810   1.144   6.131
 9291SOL    HW139904   8.893   1.115   6.083
 9291SOL    HW239905   8.761   1.211   6.075
 9292SOL     OW39906   7.998   0.196   6.471
 9292SOL    HW139907   7.993   0.191   6.571
 9292SOL    HW239908   8.000   0.292   6.442
 9293SOL     OW39909   8.456   1.456   6.063
 9293SOL    HW139910   8.410   1.528   6.011
 9293SOL    HW239911   8.452   1.476   6.161
 9294SOL     OW39912   7.799   1.801   6.439
 9294SOL    HW139913   7.849   1.715   6.445
 9294SOL    HW239914   7.864   1.878   6.436
 9295SOL     OW39915   9.243   1.066   6.459
 9295SOL    HW139916   9.181   1.051   6.383
 9295SOL    HW239917   9.191   1.077   6.544
 9296SOL     OW39918   7.769   0.943   5.828
 9296SOL    HW139919   7.851   0.982   5.786
 9296SOL    HW239920   7.742   0.861   5.779
 9297SOL     OW39921   8.906   0.735   6.314
 9297SOL    HW139922   8.901   0.670   6.389
 9297SOL    HW239923   8.986   0.794   6.327
 9298SOL     OW39924   7.650   0.285   7.084
 9298SOL    HW139925   7.570   0.345   7.071
 9298SOL    HW239926   7.640   0.236   7.170
 9299SOL     OW39927   8.848   0.107   6.012
 9299SOL    HW139928   8.824   0.070   5.922
 9299SOL    HW239929   8.947   0.123   6.016
 9300SOL     OW39930   7.697   1.785   6.827
 9300SOL    HW139931   7.754   1.720   6.877
 9300SOL    HW239932   7.681   1.752   6.734
 9301SOL     OW39933   8.388   1.698   6.490
 9301SOL    HW139934   8.468   1.641   6.511
 9301SOL    HW239935   8.339   1.658   6.413
 9302SOL     OW39936   7.830   0.700   6.066
 9302SOL    HW139937   7.875   0.610   6.063
 9302SOL    HW239938   7.736   0.689   6.099
 9303SOL     OW39939   8.062   0.122   5.703
 9303SOL    HW139940   8.160   0.100   5.710
 9303SOL    HW239941   8.031   0.105   5.610
 9304SOL     OW39942   8.336   1.514   6.781
 9304SOL    HW139943   8.313   1.489   6.687
 9304SOL    HW239944   8.397   1.445   6.820
 9305SOL     OW39945   8.251   1.402   6.510
 9305SOL    HW139946   8.341   1.416   6.468
 9305SOL    HW239947   8.180   1.404   6.439
 9306SOL     OW39948   8.370   0.503   6.485
 9306SOL    HW139949   8.345   0.494   6.389
 9306SOL    HW239950   8.418   0.421   6.516
 9307SOL     OW39951   7.987   0.064   6.098
 9307SOL    HW139952   7.906   0.065   6.156
 9307SOL    HW239953   7.990   0.147   6.043
 9308SOL     OW39954   7.745   0.035   5.757
 9308SOL    HW139955   7.794   0.119   5.736
 9308SOL    HW239956   7.807  -0.030   5.802
 9309SOL     OW39957   8.383   0.236   6.066
 9309SOL    HW139958   8.335   0.277   5.988
 9309SOL    HW239959   8.482   0.234   6.047
 9310SOL     OW39960   8.675   1.570   6.379
 9310SOL    HW139961   8.696   1.644   6.314
 9310SOL    HW239962   8.743   1.570   6.452
 9311SOL     OW39963   7.907   1.152   6.327
 9311SOL    HW139964   7.836   1.125   6.392
 9311SOL    HW239965   7.881   1.124   6.234
 9312SOL     OW39966   8.719   1.797   6.177
 9312SOL    HW139967   8.763   1.861   6.113
 9312SOL    HW239968   8.669   1.849   6.247
 9313SOL     OW39969   8.480   0.549   5.602
 9313SOL    HW139970   8.439   0.631   5.563
 9313SOL    HW239971   8.544   0.575   5.675
 9314SOL     OW39972   7.526   0.556   6.972
 9314SOL    HW139973   7.618   0.555   6.931
 9314SOL    HW239974   7.520   0.630   7.039
 9315SOL     OW39975   8.009   0.222   6.733
 9315SOL    HW139976   8.047   0.138   6.770
 9315SOL    HW239977   7.921   0.241   6.777
 9316SOL     OW39978   8.314   0.454   6.228
 9316SOL    HW139979   8.282   0.526   6.166
 9316SOL    HW239980   8.338   0.373   6.175
 9317SOL     OW39981   8.465   0.039   6.339
 9317SOL    HW139982   8.393   0.044   6.270
 9317SOL    HW239983   8.441  -0.030   6.408
 9318SOL     OW39984   8.877   1.173   6.453
 9318SOL    HW139985   8.822   1.089   6.446
 9318SOL    HW239986   8.903   1.202   6.361
 9319SOL     OW39987   8.914   0.590   6.578
 9319SOL    HW139988   8.884   0.495   6.585
 9319SOL    HW239989   8.987   0.606   6.644
 9320SOL     OW39990   9.305   0.833   5.963
 9320SOL    HW139991   9.347   0.769   6.027
 9320SOL    HW239992   9.267   0.782   5.885
 9321SOL     OW39993   9.112   1.280   6.243
 9321SOL    HW139994   9.211   1.288   6.257
 9321SOL    HW239995   9.067   1.364   6.274
 9322SOL     OW39996   7.975   0.256   5.914
 9322SOL    HW139997   8.002   0.197   5.839
 9322SOL    HW239998   7.975   0.351   5.883
 9323SOL     OW39999   8.512   1.347   6.926
 9323SOL    HW140000   8.432   1.324   6.981
 9323SOL    HW240001   8.595   1.321   6.975
 9324SOL     OW40002   8.559   1.195   6.686
 9324SOL    HW140003   8.519   1.239   6.767
 9324SOL    HW240004   8.518   1.232   6.603
 9325SOL     OW40005   9.086   1.099   6.665
 9325SOL    HW140006   9.091   1.180   6.724
 9325SOL    HW240007   9.000   1.101   6.614
 9326SOL     OW40008   8.363   0.089   6.988
 9326SOL    HW140009   8.388   0.069   6.893
 9326SOL    HW240010   8.435   0.145   7.030
 9327SOL     OW40011   8.153   1.050   5.954
 9327SOL    HW140012   8.139   1.057   6.053
 9327SOL    HW240013   8.237   0.999   5.936
 9328SOL     OW40014   7.858   0.813   6.837
 9328SOL    HW140015   7.944   0.825   6.887
 9328SOL    HW240016   7.816   0.726   6.864
 9329SOL     OW40017   8.722   0.386   6.848
 9329SOL    HW140018   8.743   0.460   6.912
 9329SOL    HW240019   8.633   0.403   6.805
 9330SOL     OW40020   7.512   1.564   6.917
 9330SOL    HW140021   7.466   1.646   6.883
 9330SOL    HW240022   7.610   1.583   6.926
 9331SOL     OW40023   7.815   1.100   6.087
 9331SOL    HW140024   7.808   1.183   6.031
 9331SOL    HW240025   7.819   1.020   6.027
 9332SOL     OW40026   8.014   0.537   6.451
 9332SOL    HW140027   8.026   0.603   6.377
 9332SOL    HW240028   8.060   0.571   6.534
 9333SOL     OW40029   8.700   1.348   5.974
 9333SOL    HW140030   8.750   1.425   6.014
 9333SOL    HW240031   8.605   1.350   6.006
 9334SOL     OW40032   8.720   1.445   6.728
 9334SOL    HW140033   8.767   1.458   6.815
 9334SOL    HW240034   8.654   1.371   6.737
 9335SOL     OW40035   9.030   0.639   6.058
 9335SOL    HW140036   8.999   0.700   6.131
 9335SOL    HW240037   9.080   0.691   5.989
 9336SOL     OW40038   7.802   1.510   6.915
 9336SOL    HW140039   7.781   1.466   6.828
 9336SOL    HW240040   7.899   1.536   6.918
 9337SOL     OW40041   7.850   0.751   7.184
 9337SOL    HW140042   7.918   0.806   7.137
 9337SOL    HW240043   7.890   0.663   7.211
 9338SOL     OW40044   9.035   0.779   7.256
 9338SOL    HW140045   8.943   0.817   7.251
 9338SOL    HW240046   9.095   0.826   7.191
 9339SOL     OW40047   8.021   0.870   6.615
 9339SOL    HW140048   8.065   0.959   6.606
 9339SOL    HW240049   7.958   0.870   6.692
 9340SOL     OW40050   8.808   0.862   6.631
 9340SOL    HW140051   8.733   0.862   6.565
 9340SOL    HW240052   8.845   0.770   6.640
 9341SOL     OW40053   8.657   0.525   5.861
 9341SOL    HW140054   8.670   0.441   5.915
 9341SOL    HW240055   8.628   0.599   5.921
 9342SOL     OW40056   7.755   0.213   6.817
 9342SOL    HW140057   7.732   0.250   6.907
 9342SOL    HW240058   7.725   0.118   6.811
 9343SOL     OW40059   7.485   1.310   6.868
 9343SOL    HW140060   7.538   1.261   6.936
 9343SOL    HW240061   7.507   1.408   6.873
 9344SOL     OW40062   8.180   0.634   6.650
 9344SOL    HW140063   8.239   0.608   6.574
 9344SOL    HW240064   8.152   0.730   6.639
 9345SOL     OW40065   7.755   0.063   6.204
 9345SOL    HW140066   7.744   0.157   6.237
 9345SOL    HW240067   7.750   0.000   6.281
 9346SOL     OW40068   9.070   0.367   5.960
 9346SOL    HW140069   9.072   0.291   6.024
 9346SOL    HW240070   9.022   0.444   6.000
 9347SOL     OW40071   8.471   0.766   6.552
 9347SOL    HW140072   8.486   0.787   6.648
 9347SOL    HW240073   8.441   0.671   6.543
 9348SOL     OW40074   8.428   1.573   7.286
 9348SOL    HW140075   8.408   1.617   7.198
 9348SOL    HW240076   8.467   1.482   7.270
 9349SOL     OW40077   8.516   1.333   6.435
 9349SOL    HW140078   8.523   1.249   6.380
 9349SOL    HW240079   8.578   1.402   6.399
 9350SOL     OW40080   7.767   0.810   6.535
 9350SOL    HW140081   7.860   0.846   6.540
 9350SOL    HW240082   7.761   0.725   6.587
 9351SOL     OW40083   7.787   0.509   6.592
 9351SOL    HW140084   7.735   0.426   6.575
 9351SOL    HW240085   7.864   0.514   6.528
 9352SOL     OW40086   8.586   0.380   7.264
 9352SOL    HW140087   8.541   0.443   7.328
 9352SOL    HW240088   8.679   0.411   7.247
 9353SOL     OW40089   8.608   0.207   7.063
 9353SOL    HW140090   8.608   0.271   7.140
 9353SOL    HW240091   8.636   0.255   6.980
 9354SOL     OW40092   7.456   1.326   5.786
 9354SOL    HW140093   7.363   1.347   5.755
 9354SOL    HW240094   7.466   1.227   5.799
 9355SOL     OW40095   7.536   1.801   6.513
 9355SOL    HW140096   7.494   1.715   6.486
 9355SOL    HW240097   7.630   1.804   6.479
 9356SOL     OW40098   7.952   1.568   6.496
 9356SOL    HW140099   8.018   1.642   6.505
 9356SOL    HW240100   7.996   1.489   6.454
 9357SOL     OW40101   8.450   0.796   6.824
 9357SOL    HW140102   8.491   0.764   6.910
 9357SOL    HW240103   8.354   0.769   6.821
 9358SOL     OW40104   7.488   0.544   6.700
 9358SOL    HW140105   7.573   0.511   6.659
 9358SOL    HW240106   7.501   0.559   6.798
 9359SOL     OW40107   8.263   0.572   5.911
 9359SOL    HW140108   8.270   0.483   5.865
 9359SOL    HW240109   8.169   0.606   5.903
 9360SOL     OW40110   9.105   0.604   6.792
 9360SOL    HW140111   9.067   0.535   6.854
 9360SOL    HW240112   9.187   0.568   6.748
 9361SOL     OW40113   8.119   0.464   6.855
 9361SOL    HW140114   8.085   0.375   6.825
 9361SOL    HW240115   8.145   0.518   6.775
 9362SOL     OW40116   8.378   1.678   7.051
 9362SOL    HW140117   8.354   1.660   6.956
 9362SOL    HW240118   8.408   1.772   7.061
 9363SOL     OW40119   7.921   0.500   5.777
 9363SOL    HW140120   7.982   0.580   5.781
 9363SOL    HW240121   7.826   0.531   5.784
 9364SOL     OW40122   7.607   1.137   7.052
 9364SOL    HW140123   7.629   1.076   7.128
 9364SOL    HW240124   7.617   1.088   6.966
 9365SOL     OW40125   8.795   1.059   6.820
 9365SOL    HW140126   8.819   0.996   6.746
 9365SOL    HW240127   8.705   1.099   6.802
 9366SOL     OW40128   8.750   0.855   5.895
 9366SOL    HW140129   8.664   0.824   5.937
 9366SOL    HW240130   8.746   0.841   5.796
 9367SOL     OW40131   9.207   1.747   6.740
 9367SOL    HW140132   9.268   1.777   6.667
 9367SOL    HW240133   9.169   1.658   6.718
 9368SOL     OW40134   8.700   1.731   6.714
 9368SOL    HW140135   8.784   1.736   6.660
 9368SOL    HW240136   8.677   1.635   6.732
 9369SOL     OW40137   7.531   1.258   6.608
 9369SOL    HW140138   7.526   1.257   6.708
 9369SOL    HW240139   7.448   1.217   6.570
 9370SOL     OW40140   9.174   0.135   6.109
 9370SOL    HW140141   9.247   0.118   6.042
 9370SOL    HW240142   9.143   0.048   6.147
 9371SOL     OW40143   8.836   1.573   6.063
 9371SOL    HW140144   8.903   1.585   5.989
 9371SOL    HW240145   8.796   1.662   6.086
 9372SOL     OW40146   8.728   0.927   6.258
 9372SOL    HW140147   8.788   0.846   6.260
 9372SOL    HW240148   8.768   0.996   6.198
 9373SOL     OW40149   9.098   1.720   6.980
 9373SOL    HW140150   9.151   1.730   6.896
 9373SOL    HW240151   9.071   1.810   7.014
 9374SOL     OW40152   9.289   0.175   6.549
 9374SOL    HW140153   9.328   0.090   6.513
 9374SOL    HW240154   9.191   0.177   6.530
 9375SOL     OW40155   7.711   0.326   6.306
 9375SOL    HW140156   7.632   0.377   6.272
 9375SOL    HW240157   7.702   0.311   6.404
 9376SOL     OW40158   8.270   1.002   6.958
 9376SOL    HW140159   8.310   1.001   6.866
 9376SOL    HW240160   8.280   1.094   6.998
 9377SOL     OW40161   8.364   0.910   5.877
 9377SOL    HW140162   8.427   0.948   5.809
 9377SOL    HW240163   8.404   0.827   5.916
 9378SOL     OW40164   8.952   1.607   5.630
 9378SOL    HW140165   8.860   1.644   5.637
 9378SOL    HW240166   8.990   1.627   5.540
 9379SOL     OW40167   7.820   1.288   7.076
 9379SOL    HW140168   7.807   1.381   7.042
 9379SOL    HW240169   7.736   1.236   7.063
 9380SOL     OW40170   9.062   1.292   6.875
 9380SOL    HW140171   9.122   1.295   6.955
 9380SOL    HW240172   8.987   1.356   6.888
 9381SOL     OW40173   8.487   1.098   6.282
 9381SOL    HW140174   8.417   1.051   6.336
 9381SOL    HW240175   8.546   1.030   6.239
 9382SOL     OW40176   8.462   0.236   6.557
 9382SOL    HW140177   8.454   0.200   6.464
 9382SOL    HW240178   8.460   0.160   6.622
 9383SOL     OW40179   9.157   0.385   6.967
 9383SOL    HW140180   9.230   0.454   6.971
 9383SOL    HW240181   9.185   0.310   6.908
 9384SOL     OW40182   8.888   0.856   6.984
 9384SOL    HW140183   8.831   0.908   6.921
 9384SOL    HW240184   8.984   0.868   6.960
 9385SOL     OW40185   7.520   0.166   5.904
 9385SOL    HW140186   7.503   0.249   5.850
 9385SOL    HW240187   7.610   0.129   5.882
 9386SOL     OW40188   8.061   0.842   7.017
 9386SOL    HW140189   8.117   0.923   7.000
 9386SOL    HW240190   8.120   0.762   7.020
 9387SOL     OW40191   8.941   1.767   6.545
 9387SOL    HW140192   8.974   1.831   6.476
 9387SOL    HW240193   9.007   1.761   6.620
 9388SOL     OW40194   7.838   1.741   7.146
 9388SOL    HW140195   7.747   1.782   7.144
 9388SOL    HW240196   7.831   1.647   7.178
 9389SOL     OW40197   9.122   0.883   6.840
 9389SOL    HW140198   9.095   0.794   6.803
 9389SOL    HW240199   9.123   0.951   6.767
 9390SOL     OW40200   8.673   0.325   6.035
 9390SOL    HW140201   8.738   0.251   6.024
 9390SOL    HW240202   8.693   0.375   6.119
 9391SOL     OW40203   8.042   0.745   6.238
 9391SOL    HW140204   8.092   0.830   6.219
 9391SOL    HW240205   7.954   0.747   6.190
 9392SOL     OW40206   9.225   0.342   7.228
 9392SOL    HW140207   9.208   0.373   7.134
 9392SOL    HW240208   9.141   0.305   7.266
 9393SOL     OW40209   9.178   0.934   7.103
 9393SOL    HW140210   9.216   1.025   7.118
 9393SOL    HW240211   9.170   0.917   7.004
 9394SOL     OW40212   8.109   1.790   6.539
 9394SOL    HW140213   8.063   1.878   6.526
 9394SOL    HW240214   8.208   1.802   6.532
 9395SOL     OW40215   8.307   0.956   6.447
 9395SOL    HW140216   8.361   0.887   6.495
 9395SOL    HW240217   8.275   1.025   6.513
 9396SOL     OW40218   8.531   0.984   5.673
 9396SOL    HW140219   8.508   1.037   5.591
 9396SOL    HW240220   8.612   0.928   5.654
 9397SOL     OW40221   9.309   1.569   6.437
 9397SOL    HW140222   9.238   1.557   6.367
 9397SOL    HW240223   9.310   1.490   6.497
 9398SOL     OW40224   7.527   1.240   6.239
 9398SOL    HW140225   7.526   1.193   6.327
 9398SOL    HW240226   7.609   1.212   6.188
 9399SOL     OW40227   9.272   0.192   6.813
 9399SOL    HW140228   9.268   0.102   6.857
 9399SOL    HW240229   9.275   0.181   6.714
 9400SOL     OW40230   7.876   0.424   6.106
 9400SOL    HW140231   7.906   0.352   6.044
 9400SOL    HW240232   7.837   0.384   6.189
 9401SOL     OW40233   9.153   1.487   6.690
 9401SOL    HW140234   9.060   1.462   6.663
 9401SOL    HW240235   9.179   1.437   6.772
 9402SOL     OW40236   7.765   0.547   6.866
 9402SOL    HW140237   7.803   0.488   6.938
 9402SOL    HW240238   7.805   0.521   6.778
 9403SOL     OW40239   8.260   1.586   6.273
 9403SOL    HW140240   8.292   1.596   6.179
 9403SOL    HW240241   8.181   1.524   6.275
 9404SOL     OW40242   8.872   0.214   6.698
 9404SOL    HW140243   8.924   0.149   6.753
 9404SOL    HW240244   8.823   0.277   6.759
 9405SOL     OW40245   8.449   0.034   6.740
 9405SOL    HW140246   8.386  -0.038   6.709
 9405SOL    HW240247   8.542  -0.002   6.740
 9406SOL     OW40248   8.218   1.330   5.887
 9406SOL    HW140249   8.172   1.243   5.904
 9406SOL    HW240250   8.309   1.327   5.928
 9407SOL     OW40251   8.066   1.567   6.870
 9407SOL    HW140252   8.061   1.649   6.927
 9407SOL    HW240253   8.155   1.564   6.825
 9408SOL     OW40254   8.748   0.453   6.277
 9408SOL    HW140255   8.689   0.533   6.281
 9408SOL    HW240256   8.763   0.418   6.370
 9409SOL     OW40257   9.041   0.221   6.468
 9409SOL    HW140258   8.957   0.220   6.522
 9409SOL    HW240259   9.043   0.304   6.412
 9410SOL     OW40260   7.487   1.077   5.886
 9410SOL    HW140261   7.586   1.066   5.877
 9410SOL    HW240262   7.447   0.991   5.918
 9411SOL     OW40263   8.323   1.646   5.923
 9411SOL    HW140264   8.246   1.611   5.869
 9411SOL    HW240265   8.291   1.717   5.985
 9412SOL     OW40266   7.678   2.490   0.113
 9412SOL    HW140267   7.585   2.488   0.150
 9412SOL    HW240268   7.679   2.451   0.021
 9413SOL     OW40269   7.673   2.137   0.996
 9413SOL    HW140270   7.708   2.120   1.088
 9413SOL    HW240271   7.585   2.092   0.984
 9414SOL     OW40272   7.467   2.230   0.647
 9414SOL    HW140273   7.385   2.273   0.686
 9414SOL    HW240274   7.439   2.157   0.584
 9415SOL     OW40275   8.017   3.137   1.165
 9415SOL    HW140276   7.924   3.130   1.128
 9415SOL    HW240277   8.028   3.226   1.209
 9416SOL     OW40278   9.003   3.373   0.703
 9416SOL    HW140279   8.946   3.357   0.784
 9416SOL    HW240280   8.944   3.383   0.623
 9417SOL     OW40281   8.583   2.565   0.717
 9417SOL    HW140282   8.640   2.643   0.692
 9417SOL    HW240283   8.523   2.591   0.793
 9418SOL     OW40284   9.203   2.469   0.231
 9418SOL    HW140285   9.191   2.456   0.132
 9418SOL    HW240286   9.173   2.388   0.280
 9419SOL     OW40287   8.216   3.006   1.023
 9419SOL    HW140288   8.138   3.023   1.083
 9419SOL    HW240289   8.250   3.093   0.987
 9420SOL     OW40290   8.133   2.874   0.665
 9420SOL    HW140291   8.202   2.858   0.735
 9420SOL    HW240292   8.060   2.931   0.703
 9421SOL     OW40293   7.783   3.297   1.061
 9421SOL    HW140294   7.705   3.266   1.008
 9421SOL    HW240295   7.841   3.355   1.004
 9422SOL     OW40296   9.051   2.309   0.737
 9422SOL    HW140297   8.977   2.355   0.687
 9422SOL    HW240298   9.102   2.377   0.790
 9423SOL     OW40299   7.679   3.575   0.483
 9423SOL    HW140300   7.713   3.652   0.537
 9423SOL    HW240301   7.723   3.575   0.393
 9424SOL     OW40302   7.678   3.296   0.538
 9424SOL    HW140303   7.652   3.392   0.538
 9424SOL    HW240304   7.607   3.242   0.583
 9425SOL     OW40305   7.688   2.953   0.886
 9425SOL    HW140306   7.702   2.869   0.938
 9425SOL    HW240307   7.633   3.017   0.941
 9426SOL     OW40308   8.068   3.648   1.439
 9426SOL    HW140309   7.976   3.631   1.474
 9426SOL    HW240310   8.096   3.740   1.465
 9427SOL     OW40311   8.054   2.826   0.123
 9427SOL    HW140312   8.061   2.910   0.069
 9427SOL    HW240313   8.100   2.839   0.211
 9428SOL     OW40314   7.570   2.505   0.563
 9428SOL    HW140315   7.525   2.417   0.580
 9428SOL    HW240316   7.569   2.559   0.647
 9429SOL     OW40317   9.290   3.629   0.359
 9429SOL    HW140318   9.344   3.600   0.439
 9429SOL    HW240319   9.320   3.719   0.330
 9430SOL     OW40320   7.475   3.458   0.117
 9430SOL    HW140321   7.456   3.362   0.138
 9430SOL    HW240322   7.442   3.516   0.192
 9431SOL     OW40323   9.137   2.784   0.612
 9431SOL    HW140324   9.232   2.755   0.620
 9431SOL    HW240325   9.129   2.849   0.537
 9432SOL     OW40326   9.089   2.970   0.432
 9432SOL    HW140327   9.175   2.972   0.380
 9432SOL    HW240328   9.103   3.017   0.520
 9433SOL     OW40329   7.561   2.599   1.597
 9433SOL    HW140330   7.649   2.586   1.642
 9433SOL    HW240331   7.548   2.696   1.575
 9434SOL     OW40332   8.061   3.227   0.726
 9434SOL    HW140333   8.012   3.140   0.735
 9434SOL    HW240334   8.038   3.270   0.639
 9435SOL     OW40335   8.257   1.866   0.502
 9435SOL    HW140336   8.297   1.957   0.493
 9435SOL    HW240337   8.157   1.874   0.508
 9436SOL     OW40338   7.645   2.838   1.264
 9436SOL    HW140339   7.734   2.793   1.250
 9436SOL    HW240340   7.572   2.773   1.245
 9437SOL     OW40341   8.973   2.861   0.190
 9437SOL    HW140342   8.910   2.785   0.203
 9437SOL    HW240343   9.021   2.879   0.276
 9438SOL     OW40344   7.765   2.113   1.801
 9438SOL    HW140345   7.836   2.184   1.807
 9438SOL    HW240346   7.677   2.152   1.829
 9439SOL     OW40347   8.914   3.279   0.953
 9439SOL    HW140348   8.855   3.285   1.033
 9439SOL    HW240349   8.899   3.191   0.907
 9440SOL     OW40350   9.115   3.576   0.572
 9440SOL    HW140351   9.074   3.553   0.484
 9440SOL    HW240352   9.097   3.502   0.637
 9441SOL     OW40353   8.046   2.591   0.270
 9441SOL    HW140354   8.070   2.660   0.202
 9441SOL    HW240355   7.968   2.624   0.324
 9442SOL     OW40356   8.729   2.207   0.944
 9442SOL    HW140357   8.643   2.157   0.931
 9442SOL    HW240358   8.791   2.153   1.000
 9443SOL     OW40359   9.024   3.524   0.307
 9443SOL    HW140360   9.113   3.570   0.310
 9443SOL    HW240361   9.003   3.500   0.212
 9444SOL     OW40362   8.255   2.467   1.465
 9444SOL    HW140363   8.208   2.464   1.554
 9444SOL    HW240364   8.204   2.412   1.399
 9445SOL     OW40365   8.842   2.331   1.674
 9445SOL    HW140366   8.822   2.374   1.762
 9445SOL    HW240367   8.920   2.269   1.683
 9446SOL     OW40368   8.421   2.752   1.572
 9446SOL    HW140369   8.467   2.668   1.543
 9446SOL    HW240370   8.365   2.786   1.497
 9447SOL     OW40371   8.439   2.272   1.242
 9447SOL    HW140372   8.362   2.306   1.296
 9447SOL    HW240373   8.405   2.221   1.163
 9448SOL     OW40374   8.489   2.563   0.429
 9448SOL    HW140375   8.515   2.559   0.525
 9448SOL    HW240376   8.404   2.512   0.415
 9449SOL     OW40377   7.524   2.673   0.789
 9449SOL    HW140378   7.623   2.661   0.798
 9449SOL    HW240379   7.500   2.768   0.810
 9450SOL     OW40380   8.313   2.210   0.195
 9450SOL    HW140381   8.372   2.273   0.146
 9450SOL    HW240382   8.332   2.116   0.166
 9451SOL     OW40383   8.810   3.006   0.545
 9451SOL    HW140384   8.893   2.977   0.497
 9451SOL    HW240385   8.761   3.073   0.489
 9452SOL     OW40386   7.998   2.058   0.885
 9452SOL    HW140387   7.993   2.053   0.985
 9452SOL    HW240388   8.000   2.154   0.856
 9453SOL     OW40389   8.456   3.318   0.477
 9453SOL    HW140390   8.410   3.390   0.425
 9453SOL    HW240391   8.452   3.338   0.575
 9454SOL     OW40392   7.799   3.663   0.853
 9454SOL    HW140393   7.849   3.577   0.859
 9454SOL    HW240394   7.864   3.740   0.850
 9455SOL     OW40395   9.243   2.928   0.873
 9455SOL    HW140396   9.181   2.913   0.797
 9455SOL    HW240397   9.191   2.939   0.958
 9456SOL     OW40398   7.769   2.805   0.242
 9456SOL    HW140399   7.851   2.844   0.200
 9456SOL    HW240400   7.742   2.723   0.193
 9457SOL     OW40401   8.906   2.597   0.728
 9457SOL    HW140402   8.901   2.532   0.803
 9457SOL    HW240403   8.986   2.656   0.741
 9458SOL     OW40404   7.909   3.128   1.727
 9458SOL    HW140405   7.859   3.129   1.641
 9458SOL    HW240406   7.846   3.110   1.803
 9459SOL     OW40407   8.559   3.638   0.237
 9459SOL    HW140408   8.499   3.576   0.287
 9459SOL    HW240409   8.590   3.594   0.152
 9460SOL     OW40410   9.080   3.239   0.081
 9460SOL    HW140411   9.048   3.333   0.071
 9460SOL    HW240412   9.004   3.176   0.069
 9461SOL     OW40413   7.912   3.605   0.323
 9461SOL    HW140414   7.945   3.644   0.409
 9461SOL    HW240415   7.988   3.598   0.258
 9462SOL     OW40416   8.848   1.969   0.426
 9462SOL    HW140417   8.824   1.932   0.336
 9462SOL    HW240418   8.947   1.985   0.430
 9463SOL     OW40419   7.697   3.647   1.241
 9463SOL    HW140420   7.754   3.582   1.291
 9463SOL    HW240421   7.681   3.614   1.148
 9464SOL     OW40422   8.388   3.560   0.904
 9464SOL    HW140423   8.468   3.503   0.925
 9464SOL    HW240424   8.339   3.520   0.827
 9465SOL     OW40425   7.830   2.562   0.480
 9465SOL    HW140426   7.875   2.472   0.477
 9465SOL    HW240427   7.736   2.551   0.513
 9466SOL     OW40428   8.062   1.984   0.117
 9466SOL    HW140429   8.160   1.962   0.124
 9466SOL    HW240430   8.031   1.967   0.024
 9467SOL     OW40431   8.229   2.126   1.749
 9467SOL    HW140432   8.296   2.065   1.792
 9467SOL    HW240433   8.156   2.145   1.814
 9468SOL     OW40434   8.336   3.376   1.195
 9468SOL    HW140435   8.313   3.351   1.101
 9468SOL    HW240436   8.397   3.307   1.234
 9469SOL     OW40437   8.799   2.452   1.433
 9469SOL    HW140438   8.827   2.409   1.518
 9469SOL    HW240439   8.824   2.548   1.434
 9470SOL     OW40440   8.251   3.264   0.924
 9470SOL    HW140441   8.341   3.278   0.882
 9470SOL    HW240442   8.180   3.266   0.853
 9471SOL     OW40443   8.370   2.365   0.899
 9471SOL    HW140444   8.345   2.356   0.803
 9471SOL    HW240445   8.418   2.283   0.930
 9472SOL     OW40446   7.987   1.926   0.512
 9472SOL    HW140447   7.906   1.927   0.570
 9472SOL    HW240448   7.990   2.009   0.457
 9473SOL     OW40449   8.882   3.050   0.041
 9473SOL    HW140450   8.914   2.974   0.098
 9473SOL    HW240451   8.790   3.077   0.071
 9474SOL     OW40452   7.745   1.897   0.171
 9474SOL    HW140453   7.794   1.981   0.150
 9474SOL    HW240454   7.807   1.832   0.216
 9475SOL     OW40455   8.383   2.098   0.480
 9475SOL    HW140456   8.335   2.139   0.402
 9475SOL    HW240457   8.482   2.096   0.461
 9476SOL     OW40458   8.524   2.545   1.464
 9476SOL    HW140459   8.444   2.484   1.467
 9476SOL    HW240460   8.605   2.492   1.440
 9477SOL     OW40461   8.675   3.432   0.793
 9477SOL    HW140462   8.696   3.506   0.728
 9477SOL    HW240463   8.743   3.432   0.866
 9478SOL     OW40464   7.907   3.014   0.741
 9478SOL    HW140465   7.836   2.987   0.806
 9478SOL    HW240466   7.881   2.986   0.648
 9479SOL     OW40467   8.719   3.659   0.591
 9479SOL    HW140468   8.763   3.723   0.527
 9479SOL    HW240469   8.669   3.711   0.661
 9480SOL     OW40470   8.480   2.411   0.016
 9480SOL    HW140471   8.439   2.493  -0.023
 9480SOL    HW240472   8.544   2.437   0.089
 9481SOL     OW40473   8.009   2.084   1.147
 9481SOL    HW140474   8.047   2.000   1.184
 9481SOL    HW240475   7.921   2.103   1.191
 9482SOL     OW40476   8.314   2.316   0.642
 9482SOL    HW140477   8.282   2.388   0.580
 9482SOL    HW240478   8.338   2.235   0.589
 9483SOL     OW40479   8.465   1.901   0.753
 9483SOL    HW140480   8.393   1.906   0.684
 9483SOL    HW240481   8.441   1.832   0.822
 9484SOL     OW40482   8.877   3.035   0.867
 9484SOL    HW140483   8.822   2.951   0.860
 9484SOL    HW240484   8.903   3.064   0.775
 9485SOL     OW40485   8.914   2.452   0.992
 9485SOL    HW140486   8.884   2.357   0.999
 9485SOL    HW240487   8.987   2.468   1.058
 9486SOL     OW40488   9.305   2.695   0.377
 9486SOL    HW140489   9.347   2.631   0.441
 9486SOL    HW240490   9.267   2.644   0.299
 9487SOL     OW40491   7.936   3.247   0.174
 9487SOL    HW140492   7.849   3.232   0.221
 9487SOL    HW240493   7.919   3.273   0.079
 9488SOL     OW40494   9.112   3.142   0.657
 9488SOL    HW140495   9.211   3.150   0.671
 9488SOL    HW240496   9.067   3.226   0.688
 9489SOL     OW40497   8.838   2.437   0.078
 9489SOL    HW140498   8.784   2.416   0.159
 9489SOL    HW240499   8.929   2.396   0.087
 9490SOL     OW40500   7.975   2.118   0.328
 9490SOL    HW140501   8.002   2.059   0.253
 9490SOL    HW240502   7.975   2.213   0.297
 9491SOL     OW40503   9.040   3.491   1.625
 9491SOL    HW140504   9.067   3.525   1.535
 9491SOL    HW240505   9.119   3.453   1.671
 9492SOL     OW40506   8.559   3.057   1.100
 9492SOL    HW140507   8.519   3.101   1.181
 9492SOL    HW240508   8.518   3.094   1.017
 9493SOL     OW40509   9.086   2.961   1.079
 9493SOL    HW140510   9.091   3.042   1.138
 9493SOL    HW240511   9.000   2.963   1.028
 9494SOL     OW40512   8.363   1.951   1.402
 9494SOL    HW140513   8.388   1.931   1.307
 9494SOL    HW240514   8.435   2.007   1.444
 9495SOL     OW40515   8.153   2.912   0.368
 9495SOL    HW140516   8.139   2.919   0.467
 9495SOL    HW240517   8.237   2.861   0.350
 9496SOL     OW40518   8.722   2.248   1.262
 9496SOL    HW140519   8.743   2.322   1.326
 9496SOL    HW240520   8.633   2.265   1.219
 9497SOL     OW40521   7.512   3.426   1.331
 9497SOL    HW140522   7.466   3.508   1.297
 9497SOL    HW240523   7.610   3.445   1.340
 9498SOL     OW40524   7.815   2.962   0.501
 9498SOL    HW140525   7.808   3.045   0.445
 9498SOL    HW240526   7.819   2.882   0.441
 9499SOL     OW40527   8.014   2.399   0.865
 9499SOL    HW140528   8.026   2.465   0.791
 9499SOL    HW240529   8.060   2.433   0.948
 9500SOL     OW40530   8.700   3.210   0.388
 9500SOL    HW140531   8.750   3.287   0.428
 9500SOL    HW240532   8.605   3.212   0.420
 9501SOL     OW40533   8.720   3.307   1.142
 9501SOL    HW140534   8.767   3.320   1.229
 9501SOL    HW240535   8.654   3.233   1.151
 9502SOL     OW40536   9.030   2.501   0.472
 9502SOL    HW140537   8.999   2.562   0.545
 9502SOL    HW240538   9.080   2.553   0.403
 9503SOL     OW40539   7.802   3.372   1.329
 9503SOL    HW140540   7.781   3.328   1.242
 9503SOL    HW240541   7.899   3.398   1.332
 9504SOL     OW40542   8.461   1.967   1.770
 9504SOL    HW140543   8.467   2.052   1.718
 9504SOL    HW240544   8.493   1.891   1.713
 9505SOL     OW40545   7.952   1.912   1.740
 9505SOL    HW140546   7.910   1.855   1.670
 9505SOL    HW240547   7.886   1.981   1.772
 9506SOL     OW40548   8.021   2.732   1.029
 9506SOL    HW140549   8.065   2.821   1.020
 9506SOL    HW240550   7.958   2.732   1.106
 9507SOL     OW40551   8.808   2.724   1.045
 9507SOL    HW140552   8.733   2.724   0.979
 9507SOL    HW240553   8.845   2.632   1.054
 9508SOL     OW40554   8.657   2.387   0.275
 9508SOL    HW140555   8.670   2.303   0.329
 9508SOL    HW240556   8.628   2.461   0.335
 9509SOL     OW40557   7.485   3.172   1.282
 9509SOL    HW140558   7.538   3.123   1.350
 9509SOL    HW240559   7.507   3.270   1.287
 9510SOL     OW40560   8.180   2.496   1.064
 9510SOL    HW140561   8.239   2.470   0.988
 9510SOL    HW240562   8.152   2.592   1.053
 9511SOL     OW40563   7.755   1.925   0.618
 9511SOL    HW140564   7.744   2.019   0.651
 9511SOL    HW240565   7.750   1.862   0.695
 9512SOL     OW40566   9.070   2.229   0.374
 9512SOL    HW140567   9.072   2.153   0.438
 9512SOL    HW240568   9.022   2.306   0.414
 9513SOL     OW40569   8.471   2.628   0.966
 9513SOL    HW140570   8.486   2.649   1.062
 9513SOL    HW240571   8.441   2.533   0.957
 9514SOL     OW40572   9.307   3.380   1.605
 9514SOL    HW140573   9.321   3.407   1.510
 9514SOL    HW240574   9.390   3.402   1.658
 9515SOL     OW40575   8.988   2.136   0.125
 9515SOL    HW140576   8.927   2.061   0.148
 9515SOL    HW240577   9.010   2.188   0.208
 9516SOL     OW40578   8.751   2.700   0.042
 9516SOL    HW140579   8.785   2.607   0.057
 9516SOL    HW240580   8.769   2.727  -0.053
 9517SOL     OW40581   8.516   3.195   0.849
 9517SOL    HW140582   8.523   3.111   0.794
 9517SOL    HW240583   8.578   3.264   0.813
 9518SOL     OW40584   7.767   2.672   0.949
 9518SOL    HW140585   7.860   2.708   0.954
 9518SOL    HW240586   7.761   2.587   1.001
 9519SOL     OW40587   7.787   2.371   1.006
 9519SOL    HW140588   7.735   2.288   0.989
 9519SOL    HW240589   7.864   2.376   0.942
 9520SOL     OW40590   8.608   2.069   1.477
 9520SOL    HW140591   8.608   2.133   1.554
 9520SOL    HW240592   8.636   2.117   1.394
 9521SOL     OW40593   7.456   3.188   0.200
 9521SOL    HW140594   7.363   3.209   0.169
 9521SOL    HW240595   7.466   3.089   0.213
 9522SOL     OW40596   7.536   3.663   0.927
 9522SOL    HW140597   7.494   3.577   0.900
 9522SOL    HW240598   7.630   3.666   0.893
 9523SOL     OW40599   7.952   3.430   0.910
 9523SOL    HW140600   8.018   3.504   0.919
 9523SOL    HW240601   7.996   3.351   0.868
 9524SOL     OW40602   8.450   2.658   1.238
 9524SOL    HW140603   8.491   2.626   1.324
 9524SOL    HW240604   8.354   2.631   1.235
 9525SOL     OW40605   7.488   2.406   1.114
 9525SOL    HW140606   7.573   2.373   1.073
 9525SOL    HW240607   7.501   2.421   1.212
 9526SOL     OW40608   8.817   2.812   1.660
 9526SOL    HW140609   8.856   2.901   1.680
 9526SOL    HW240610   8.827   2.792   1.563
 9527SOL     OW40611   8.263   2.434   0.325
 9527SOL    HW140612   8.270   2.345   0.279
 9527SOL    HW240613   8.169   2.468   0.317
 9528SOL     OW40614   9.105   2.466   1.206
 9528SOL    HW140615   9.067   2.397   1.268
 9528SOL    HW240616   9.187   2.430   1.162
 9529SOL     OW40617   8.119   2.326   1.269
 9529SOL    HW140618   8.085   2.237   1.239
 9529SOL    HW240619   8.145   2.380   1.189
 9530SOL     OW40620   8.378   3.540   1.465
 9530SOL    HW140621   8.354   3.522   1.370
 9530SOL    HW240622   8.408   3.634   1.475
 9531SOL     OW40623   7.921   2.362   0.191
 9531SOL    HW140624   7.982   2.442   0.195
 9531SOL    HW240625   7.826   2.393   0.198
 9532SOL     OW40626   7.607   2.999   1.466
 9532SOL    HW140627   7.629   2.938   1.542
 9532SOL    HW240628   7.617   2.950   1.380
 9533SOL     OW40629   8.795   2.921   1.234
 9533SOL    HW140630   8.819   2.858   1.160
 9533SOL    HW240631   8.705   2.961   1.216
 9534SOL     OW40632   8.750   2.717   0.309
 9534SOL    HW140633   8.664   2.686   0.351
 9534SOL    HW240634   8.746   2.703   0.210
 9535SOL     OW40635   9.207   3.609   1.154
 9535SOL    HW140636   9.268   3.639   1.081
 9535SOL    HW240637   9.169   3.520   1.132
 9536SOL     OW40638   8.700   3.593   1.128
 9536SOL    HW140639   8.784   3.598   1.074
 9536SOL    HW240640   8.677   3.497   1.146
 9537SOL     OW40641   7.531   3.120   1.022
 9537SOL    HW140642   7.526   3.119   1.122
 9537SOL    HW240643   7.448   3.079   0.984
 9538SOL     OW40644   8.136   3.524   1.716
 9538SOL    HW140645   8.080   3.605   1.725
 9538SOL    HW240646   8.188   3.528   1.630
 9539SOL     OW40647   8.351   1.948   0.133
 9539SOL    HW140648   8.402   1.949   0.047
 9539SOL    HW240649   8.407   1.906   0.204
 9540SOL     OW40650   9.174   1.997   0.523
 9540SOL    HW140651   9.247   1.980   0.456
 9540SOL    HW240652   9.143   1.910   0.561
 9541SOL     OW40653   8.836   3.435   0.477
 9541SOL    HW140654   8.903   3.447   0.403
 9541SOL    HW240655   8.796   3.524   0.500
 9542SOL     OW40656   8.728   2.789   0.672
 9542SOL    HW140657   8.788   2.708   0.674
 9542SOL    HW240658   8.768   2.858   0.612
 9543SOL     OW40659   8.120   3.478   0.154
 9543SOL    HW140660   8.129   3.488   0.055
 9543SOL    HW240661   8.080   3.389   0.175
 9544SOL     OW40662   9.289   2.037   0.963
 9544SOL    HW140663   9.328   1.952   0.927
 9544SOL    HW240664   9.191   2.039   0.944
 9545SOL     OW40665   7.711   2.188   0.720
 9545SOL    HW140666   7.632   2.239   0.686
 9545SOL    HW240667   7.702   2.173   0.818
 9546SOL     OW40668   8.642   3.474   0.031
 9546SOL    HW140669   8.648   3.381   0.068
 9546SOL    HW240670   8.583   3.474  -0.049
 9547SOL     OW40671   8.270   2.864   1.372
 9547SOL    HW140672   8.310   2.863   1.280
 9547SOL    HW240673   8.280   2.956   1.412
 9548SOL     OW40674   8.364   2.772   0.291
 9548SOL    HW140675   8.427   2.810   0.223
 9548SOL    HW240676   8.404   2.689   0.330
 9549SOL     OW40677   8.952   3.469   0.044
 9549SOL    HW140678   8.860   3.506   0.051
 9549SOL    HW240679   8.990   3.489  -0.046
 9550SOL     OW40680   7.820   3.150   1.490
 9550SOL    HW140681   7.807   3.243   1.456
 9550SOL    HW240682   7.736   3.098   1.477
 9551SOL     OW40683   9.062   3.154   1.289
 9551SOL    HW140684   9.122   3.157   1.369
 9551SOL    HW240685   8.987   3.218   1.302
 9552SOL     OW40686   8.487   2.960   0.696
 9552SOL    HW140687   8.417   2.913   0.750
 9552SOL    HW240688   8.546   2.892   0.653
 9553SOL     OW40689   8.038   3.349   0.491
 9553SOL    HW140690   8.080   3.291   0.421
 9553SOL    HW240691   7.994   3.428   0.447
 9554SOL     OW40692   9.157   2.247   1.381
 9554SOL    HW140693   9.230   2.316   1.385
 9554SOL    HW240694   9.185   2.172   1.322
 9555SOL     OW40695   7.703   3.210   0.290
 9555SOL    HW140696   7.607   3.211   0.263
 9555SOL    HW240697   7.715   3.263   0.374
 9556SOL     OW40698   7.553   2.875   1.726
 9556SOL    HW140699   7.476   2.842   1.780
 9556SOL    HW240700   7.638   2.845   1.768
 9557SOL     OW40701   8.120   2.065   1.489
 9557SOL    HW140702   8.210   2.049   1.449
 9557SOL    HW240703   8.128   2.070   1.588
 9558SOL     OW40704   8.888   2.718   1.398
 9558SOL    HW140705   8.831   2.770   1.335
 9558SOL    HW240706   8.984   2.730   1.374
 9559SOL     OW40707   7.520   2.028   0.318
 9559SOL    HW140708   7.503   2.111   0.264
 9559SOL    HW240709   7.610   1.991   0.296
 9560SOL     OW40710   8.631   3.197   0.119
 9560SOL    HW140711   8.532   3.186   0.121
 9560SOL    HW240712   8.665   3.212   0.212
 9561SOL     OW40713   8.061   2.704   1.431
 9561SOL    HW140714   8.117   2.785   1.414
 9561SOL    HW240715   8.120   2.624   1.434
 9562SOL     OW40716   8.941   3.629   0.959
 9562SOL    HW140717   8.974   3.693   0.890
 9562SOL    HW240718   9.007   3.623   1.034
 9563SOL     OW40719   7.838   3.603   1.560
 9563SOL    HW140720   7.747   3.644   1.558
 9563SOL    HW240721   7.831   3.509   1.592
 9564SOL     OW40722   9.122   2.745   1.254
 9564SOL    HW140723   9.095   2.656   1.217
 9564SOL    HW240724   9.123   2.813   1.181
 9565SOL     OW40725   8.673   2.187   0.449
 9565SOL    HW140726   8.738   2.113   0.438
 9565SOL    HW240727   8.693   2.237   0.533
 9566SOL     OW40728   8.042   2.607   0.652
 9566SOL    HW140729   8.092   2.692   0.633
 9566SOL    HW240730   7.954   2.609   0.604
 9567SOL     OW40731   8.307   3.236   0.016
 9567SOL    HW140732   8.261   3.251   0.104
 9567SOL    HW240733   8.351   3.321  -0.014
 9568SOL     OW40734   8.109   3.652   0.953
 9568SOL    HW140735   8.063   3.740   0.940
 9568SOL    HW240736   8.208   3.664   0.946
 9569SOL     OW40737   8.307   2.818   0.861
 9569SOL    HW140738   8.361   2.749   0.909
 9569SOL    HW240739   8.275   2.887   0.927
 9570SOL     OW40740   8.531   2.846   0.087
 9570SOL    HW140741   8.508   2.899   0.005
 9570SOL    HW240742   8.612   2.790   0.068
 9571SOL     OW40743   9.309   3.431   0.851
 9571SOL    HW140744   9.238   3.419   0.781
 9571SOL    HW240745   9.310   3.352   0.911
 9572SOL     OW40746   7.527   3.102   0.653
 9572SOL    HW140747   7.526   3.055   0.741
 9572SOL    HW240748   7.609   3.074   0.602
 9573SOL     OW40749   8.120   3.253   1.624
 9573SOL    HW140750   8.042   3.203   1.662
 9573SOL    HW240751   8.117   3.348   1.655
 9574SOL     OW40752   7.876   2.286   0.520
 9574SOL    HW140753   7.906   2.214   0.458
 9574SOL    HW240754   7.837   2.246   0.603
 9575SOL     OW40755   9.153   3.349   1.104
 9575SOL    HW140756   9.060   3.324   1.077
 9575SOL    HW240757   9.179   3.299   1.186
 9576SOL     OW40758   7.765   2.409   1.280
 9576SOL    HW140759   7.803   2.350   1.352
 9576SOL    HW240760   7.805   2.383   1.192
 9577SOL     OW40761   8.260   3.448   0.687
 9577SOL    HW140762   8.292   3.458   0.593
 9577SOL    HW240763   8.181   3.386   0.689
 9578SOL     OW40764   8.218   3.192   0.301
 9578SOL    HW140765   8.172   3.105   0.318
 9578SOL    HW240766   8.309   3.189   0.342
 9579SOL     OW40767   8.066   3.429   1.284
 9579SOL    HW140768   8.061   3.511   1.341
 9579SOL    HW240769   8.155   3.426   1.239
 9580SOL     OW40770   8.800   1.914   0.168
 9580SOL    HW140771   8.835   1.873   0.084
 9580SOL    HW240772   8.710   1.876   0.188
 9581SOL     OW40773   8.748   2.315   0.691
 9581SOL    HW140774   8.689   2.395   0.695
 9581SOL    HW240775   8.763   2.280   0.784
 9582SOL     OW40776   9.041   2.083   0.882
 9582SOL    HW140777   8.957   2.082   0.936
 9582SOL    HW240778   9.043   2.166   0.826
 9583SOL     OW40779   7.487   2.939   0.300
 9583SOL    HW140780   7.586   2.928   0.291
 9583SOL    HW240781   7.447   2.853   0.332
 9584SOL     OW40782   8.323   3.508   0.337
 9584SOL    HW140783   8.246   3.473   0.283
 9584SOL    HW240784   8.291   3.579   0.399
 9585SOL     OW40785   7.678   2.490   1.975
 9585SOL    HW140786   7.585   2.488   2.012
 9585SOL    HW240787   7.679   2.451   1.883
 9586SOL     OW40788   7.467   2.230   2.509
 9586SOL    HW140789   7.385   2.273   2.548
 9586SOL    HW240790   7.439   2.157   2.446
 9587SOL     OW40791   8.134   3.023   3.665
 9587SOL    HW140792   8.194   3.102   3.679
 9587SOL    HW240793   8.048   3.054   3.624
 9588SOL     OW40794   8.908   3.367   3.201
 9588SOL    HW140795   8.932   3.461   3.227
 9588SOL    HW240796   8.892   3.313   3.283
 9589SOL     OW40797   7.886   2.254   3.361
 9589SOL    HW140798   7.968   2.198   3.370
 9589SOL    HW240799   7.805   2.196   3.365
 9590SOL     OW40800   7.765   2.113   3.663
 9590SOL    HW140801   7.836   2.184   3.669
 9590SOL    HW240802   7.677   2.152   3.691
 9591SOL     OW40803   8.046   2.591   2.132
 9591SOL    HW140804   8.070   2.660   2.064
 9591SOL    HW240805   7.968   2.624   2.186
 9592SOL     OW40806   8.842   2.331   3.536
 9592SOL    HW140807   8.822   2.374   3.624
 9592SOL    HW240808   8.920   2.269   3.545
 9593SOL     OW40809   8.421   2.752   3.434
 9593SOL    HW140810   8.467   2.668   3.405
 9593SOL    HW240811   8.365   2.786   3.359
 9594SOL     OW40812   7.524   2.673   2.651
 9594SOL    HW140813   7.623   2.661   2.660
 9594SOL    HW240814   7.500   2.768   2.672
 9595SOL     OW40815   7.578   3.683   3.433
 9595SOL    HW140816   7.568   3.668   3.532
 9595SOL    HW240817   7.492   3.719   3.397
 9596SOL     OW40818   7.998   2.058   2.747
 9596SOL    HW140819   7.993   2.053   2.847
 9596SOL    HW240820   8.000   2.154   2.718
 9597SOL     OW40821   9.243   2.928   2.735
 9597SOL    HW140822   9.181   2.913   2.659
 9597SOL    HW240823   9.191   2.939   2.820
 9598SOL     OW40824   8.675   3.412   3.368
 9598SOL    HW140825   8.681   3.335   3.432
 9598SOL    HW240826   8.623   3.386   3.288
 9599SOL     OW40827   7.909   3.128   3.589
 9599SOL    HW140828   7.859   3.129   3.503
 9599SOL    HW240829   7.846   3.110   3.665
 9600SOL     OW40830   7.650   2.147   3.360
 9600SOL    HW140831   7.570   2.207   3.347
 9600SOL    HW240832   7.640   2.098   3.446
 9601SOL     OW40833   7.912   3.605   2.185
 9601SOL    HW140834   7.945   3.644   2.271
 9601SOL    HW240835   7.988   3.598   2.120
 9602SOL     OW40836   7.830   2.562   2.342
 9602SOL    HW140837   7.875   2.472   2.339
 9602SOL    HW240838   7.736   2.551   2.375
 9603SOL     OW40839   8.995   2.084   3.591
 9603SOL    HW140840   8.990   2.121   3.683
 9603SOL    HW240841   8.923   2.015   3.579
 9604SOL     OW40842   8.062   1.984   1.979
 9604SOL    HW140843   8.160   1.962   1.986
 9604SOL    HW240844   8.031   1.967   1.886
 9605SOL     OW40845   8.229   2.126   3.611
 9605SOL    HW140846   8.296   2.065   3.654
 9605SOL    HW240847   8.156   2.145   3.676
 9606SOL     OW40848   8.370   2.365   2.761
 9606SOL    HW140849   8.345   2.356   2.665
 9606SOL    HW240850   8.418   2.283   2.792
 9607SOL     OW40851   8.524   2.545   3.326
 9607SOL    HW140852   8.444   2.484   3.329
 9607SOL    HW240853   8.605   2.492   3.302
 9608SOL     OW40854   7.907   3.014   2.603
 9608SOL    HW140855   7.836   2.987   2.668
 9608SOL    HW240856   7.881   2.986   2.510
 9609SOL     OW40857   8.719   3.659   2.453
 9609SOL    HW140858   8.763   3.723   2.389
 9609SOL    HW240859   8.669   3.711   2.523
 9610SOL     OW40860   9.305   2.695   2.239
 9610SOL    HW140861   9.347   2.631   2.303
 9610SOL    HW240862   9.267   2.644   2.161
 9611SOL     OW40863   8.838   2.437   1.940
 9611SOL    HW140864   8.784   2.416   2.021
 9611SOL    HW240865   8.929   2.396   1.949
 9612SOL     OW40866   9.202   3.085   3.450
 9612SOL    HW140867   9.293   3.046   3.437
 9612SOL    HW240868   9.210   3.181   3.474
 9613SOL     OW40869   8.363   1.951   3.264
 9613SOL    HW140870   8.388   1.931   3.169
 9613SOL    HW240871   8.435   2.007   3.306
 9614SOL     OW40872   7.850   2.613   3.460
 9614SOL    HW140873   7.918   2.668   3.413
 9614SOL    HW240874   7.890   2.525   3.487
 9615SOL     OW40875   7.952   1.912   3.602
 9615SOL    HW140876   7.910   1.855   3.532
 9615SOL    HW240877   7.886   1.981   3.634
 9616SOL     OW40878   7.755   2.075   3.093
 9616SOL    HW140879   7.732   2.112   3.183
 9616SOL    HW240880   7.725   1.980   3.087
 9617SOL     OW40881   7.485   3.172   3.144
 9617SOL    HW140882   7.538   3.123   3.212
 9617SOL    HW240883   7.507   3.270   3.149
 9618SOL     OW40884   9.176   2.797   3.716
 9618SOL    HW140885   9.130   2.790   3.627
 9618SOL    HW240886   9.114   2.841   3.782
 9619SOL     OW40887   8.428   3.435   3.562
 9619SOL    HW140888   8.408   3.479   3.474
 9619SOL    HW240889   8.467   3.344   3.546
 9620SOL     OW40890   9.307   3.380   3.467
 9620SOL    HW140891   9.321   3.407   3.372
 9620SOL    HW240892   9.390   3.402   3.520
 9621SOL     OW40893   8.751   2.700   1.904
 9621SOL    HW140894   8.785   2.607   1.919
 9621SOL    HW240895   8.769   2.727   1.809
 9622SOL     OW40896   8.516   3.195   2.711
 9622SOL    HW140897   8.523   3.111   2.656
 9622SOL    HW240898   8.578   3.264   2.675
 9623SOL     OW40899   8.608   2.069   3.339
 9623SOL    HW140900   8.608   2.133   3.416
 9623SOL    HW240901   8.636   2.117   3.256
 9624SOL     OW40902   7.536   3.663   2.789
 9624SOL    HW140903   7.494   3.577   2.762
 9624SOL    HW240904   7.630   3.666   2.755
 9625SOL     OW40905   7.488   2.406   2.976
 9625SOL    HW140906   7.573   2.373   2.935
 9625SOL    HW240907   7.501   2.421   3.074
 9626SOL     OW40908   8.817   2.812   3.522
 9626SOL    HW140909   8.856   2.901   3.542
 9626SOL    HW240910   8.827   2.792   3.425
 9627SOL     OW40911   9.105   2.466   3.068
 9627SOL    HW140912   9.067   2.397   3.130
 9627SOL    HW240913   9.187   2.430   3.024
 9628SOL     OW40914   8.119   2.326   3.131
 9628SOL    HW140915   8.085   2.237   3.101
 9628SOL    HW240916   8.145   2.380   3.051
 9629SOL     OW40917   7.921   2.362   2.053
 9629SOL    HW140918   7.982   2.442   2.057
 9629SOL    HW240919   7.826   2.393   2.060
 9630SOL     OW40920   9.207   3.609   3.016
 9630SOL    HW140921   9.268   3.639   2.943
 9630SOL    HW240922   9.169   3.520   2.994
 9631SOL     OW40923   9.174   1.997   2.385
 9631SOL    HW140924   9.247   1.980   2.318
 9631SOL    HW240925   9.143   1.910   2.423
 9632SOL     OW40926   9.098   3.582   3.256
 9632SOL    HW140927   9.151   3.592   3.172
 9632SOL    HW240928   9.071   3.672   3.290
 9633SOL     OW40929   8.364   2.772   2.153
 9633SOL    HW140930   8.427   2.810   2.085
 9633SOL    HW240931   8.404   2.689   2.192
 9634SOL     OW40932   8.120   2.065   3.351
 9634SOL    HW140933   8.210   2.049   3.311
 9634SOL    HW240934   8.128   2.070   3.450
 9635SOL     OW40935   8.941   3.629   2.821
 9635SOL    HW140936   8.974   3.693   2.752
 9635SOL    HW240937   9.007   3.623   2.896
 9636SOL     OW40938   8.898   3.082   3.495
 9636SOL    HW140939   8.889   3.072   3.594
 9636SOL    HW240940   8.994   3.075   3.469
 9637SOL     OW40941   9.178   2.796   3.379
 9637SOL    HW140942   9.216   2.887   3.394
 9637SOL    HW240943   9.170   2.779   3.280
 9638SOL     OW40944   8.307   3.236   1.878
 9638SOL    HW140945   8.261   3.251   1.966
 9638SOL    HW240946   8.351   3.321   1.848
 9639SOL     OW40947   8.307   2.818   2.723
 9639SOL    HW140948   8.361   2.749   2.771
 9639SOL    HW240949   8.275   2.887   2.789
 9640SOL     OW40950   8.531   2.846   1.949
 9640SOL    HW140951   8.508   2.899   1.867
 9640SOL    HW240952   8.612   2.790   1.930
 9641SOL     OW40953   8.260   3.448   2.549
 9641SOL    HW140954   8.292   3.458   2.455
 9641SOL    HW240955   8.181   3.386   2.551
 9642SOL     OW40956   8.872   2.076   2.974
 9642SOL    HW140957   8.924   2.011   3.029
 9642SOL    HW240958   8.823   2.139   3.035
 9643SOL     OW40959   8.066   3.429   3.146
 9643SOL    HW140960   8.061   3.511   3.203
 9643SOL    HW240961   8.155   3.426   3.101
 9644SOL     OW40962   9.041   2.083   2.744
 9644SOL    HW140963   8.957   2.082   2.798
 9644SOL    HW240964   9.043   2.166   2.688
 9645SOL     OW40965   7.678   2.490   3.837
 9645SOL    HW140966   7.585   2.488   3.874
 9645SOL    HW240967   7.679   2.451   3.745
 9646SOL     OW40968   7.467   2.230   4.371
 9646SOL    HW140969   7.385   2.273   4.410
 9646SOL    HW240970   7.439   2.157   4.308
 9647SOL     OW40971   9.203   2.469   3.955
 9647SOL    HW140972   9.191   2.456   3.856
 9647SOL    HW240973   9.173   2.388   4.004
 9648SOL     OW40974   8.216   3.006   4.747
 9648SOL    HW140975   8.138   3.023   4.807
 9648SOL    HW240976   8.250   3.093   4.711
 9649SOL     OW40977   8.575   3.203   5.414
 9649SOL    HW140978   8.622   3.203   5.502
 9649SOL    HW240979   8.527   3.116   5.403
 9650SOL     OW40980   9.089   2.970   4.156
 9650SOL    HW140981   9.175   2.972   4.104
 9650SOL    HW240982   9.103   3.017   4.244
 9651SOL     OW40983   7.561   2.599   5.321
 9651SOL    HW140984   7.649   2.586   5.366
 9651SOL    HW240985   7.548   2.696   5.299
 9652SOL     OW40986   8.061   3.227   4.450
 9652SOL    HW140987   8.012   3.140   4.459
 9652SOL    HW240988   8.038   3.270   4.363
 9653SOL     OW40989   8.741   3.090   5.147
 9653SOL    HW140990   8.778   3.017   5.089
 9653SOL    HW240991   8.793   3.095   5.232
 9654SOL     OW40992   8.046   2.591   3.994
 9654SOL    HW140993   8.070   2.660   3.926
 9654SOL    HW240994   7.968   2.624   4.048
 9655SOL     OW40995   8.729   2.207   4.668
 9655SOL    HW140996   8.643   2.157   4.655
 9655SOL    HW240997   8.791   2.153   4.724
 9656SOL     OW40998   8.842   2.331   5.398
 9656SOL    HW140999   8.822   2.374   5.486
 9656SOL    HW241000   8.920   2.269   5.407
 9657SOL     OW41001   8.439   2.272   4.966
 9657SOL    HW141002   8.362   2.306   5.020
 9657SOL    HW241003   8.405   2.221   4.887
 9658SOL     OW41004   8.489   2.563   4.153
 9658SOL    HW141005   8.515   2.559   4.249
 9658SOL    HW241006   8.404   2.512   4.139
 9659SOL     OW41007   7.524   2.673   4.513
 9659SOL    HW141008   7.623   2.661   4.522
 9659SOL    HW241009   7.500   2.768   4.534
 9660SOL     OW41010   7.578   3.683   5.295
 9660SOL    HW141011   7.568   3.668   5.394
 9660SOL    HW241012   7.492   3.719   5.259
 9661SOL     OW41013   8.456   3.318   4.201
 9661SOL    HW141014   8.410   3.390   4.149
 9661SOL    HW241015   8.452   3.338   4.299
 9662SOL     OW41016   7.769   2.805   3.966
 9662SOL    HW141017   7.851   2.844   3.924
 9662SOL    HW241018   7.742   2.723   3.917
 9663SOL     OW41019   8.559   3.638   3.961
 9663SOL    HW141020   8.499   3.576   4.011
 9663SOL    HW241021   8.590   3.594   3.876
 9664SOL     OW41022   9.080   3.239   3.805
 9664SOL    HW141023   9.048   3.333   3.795
 9664SOL    HW241024   9.004   3.176   3.793
 9665SOL     OW41025   8.995   2.084   5.453
 9665SOL    HW141026   8.990   2.121   5.545
 9665SOL    HW241027   8.923   2.015   5.441
 9666SOL     OW41028   8.799   2.452   5.157
 9666SOL    HW141029   8.827   2.409   5.242
 9666SOL    HW241030   8.824   2.548   5.158
 9667SOL     OW41031   7.745   1.897   3.895
 9667SOL    HW141032   7.794   1.981   3.874
 9667SOL    HW241033   7.807   1.832   3.940
 9668SOL     OW41034   8.675   3.432   4.517
 9668SOL    HW141035   8.696   3.506   4.452
 9668SOL    HW241036   8.743   3.432   4.590
 9669SOL     OW41037   8.719   3.659   4.315
 9669SOL    HW141038   8.763   3.723   4.251
 9669SOL    HW241039   8.669   3.711   4.385
 9670SOL     OW41040   8.480   2.411   3.740
 9670SOL    HW141041   8.439   2.493   3.701
 9670SOL    HW241042   8.544   2.437   3.813
 9671SOL     OW41043   9.112   3.142   4.381
 9671SOL    HW141044   9.211   3.150   4.395
 9671SOL    HW241045   9.067   3.226   4.412
 9672SOL     OW41046   7.975   2.118   4.052
 9672SOL    HW141047   8.002   2.059   3.977
 9672SOL    HW241048   7.975   2.213   4.021
 9673SOL     OW41049   8.559   3.057   4.824
 9673SOL    HW141050   8.519   3.101   4.905
 9673SOL    HW241051   8.518   3.094   4.741
 9674SOL     OW41052   9.086   2.961   4.803
 9674SOL    HW141053   9.091   3.042   4.862
 9674SOL    HW241054   9.000   2.963   4.752
 9675SOL     OW41055   8.720   3.307   4.866
 9675SOL    HW141056   8.767   3.320   4.953
 9675SOL    HW241057   8.654   3.233   4.875
 9676SOL     OW41058   7.802   3.372   5.053
 9676SOL    HW141059   7.781   3.328   4.966
 9676SOL    HW241060   7.899   3.398   5.056
 9677SOL     OW41061   8.657   2.387   3.999
 9677SOL    HW141062   8.670   2.303   4.053
 9677SOL    HW241063   8.628   2.461   4.059
 9678SOL     OW41064   9.307   3.380   5.329
 9678SOL    HW141065   9.321   3.407   5.234
 9678SOL    HW241066   9.390   3.402   5.382
 9679SOL     OW41067   8.751   2.700   3.766
 9679SOL    HW141068   8.785   2.607   3.781
 9679SOL    HW241069   8.769   2.727   3.671
 9680SOL     OW41070   7.767   2.672   4.673
 9680SOL    HW141071   7.860   2.708   4.678
 9680SOL    HW241072   7.761   2.587   4.725
 9681SOL     OW41073   8.586   2.242   5.402
 9681SOL    HW141074   8.541   2.305   5.466
 9681SOL    HW241075   8.679   2.273   5.385
 9682SOL     OW41076   7.637   2.382   5.446
 9682SOL    HW141077   7.696   2.342   5.376
 9682SOL    HW241078   7.579   2.453   5.405
 9683SOL     OW41079   8.817   2.812   5.384
 9683SOL    HW141080   8.856   2.901   5.404
 9683SOL    HW241081   8.827   2.792   5.287
 9684SOL     OW41082   8.263   2.434   4.049
 9684SOL    HW141083   8.270   2.345   4.003
 9684SOL    HW241084   8.169   2.468   4.041
 9685SOL     OW41085   8.750   2.717   4.033
 9685SOL    HW141086   8.664   2.686   4.075
 9685SOL    HW241087   8.746   2.703   3.934
 9686SOL     OW41088   8.700   3.593   4.852
 9686SOL    HW141089   8.784   3.598   4.798
 9686SOL    HW241090   8.677   3.497   4.870
 9687SOL     OW41091   8.728   2.789   4.396
 9687SOL    HW141092   8.788   2.708   4.398
 9687SOL    HW241093   8.768   2.858   4.336
 9688SOL     OW41094   9.098   3.582   5.118
 9688SOL    HW141095   9.151   3.592   5.034
 9688SOL    HW241096   9.071   3.672   5.152
 9689SOL     OW41097   8.642   3.474   3.755
 9689SOL    HW141098   8.648   3.381   3.792
 9689SOL    HW241099   8.583   3.474   3.675
 9690SOL     OW41100   8.952   3.469   3.768
 9690SOL    HW141101   8.860   3.506   3.775
 9690SOL    HW241102   8.990   3.489   3.678
 9691SOL     OW41103   7.820   3.150   5.214
 9691SOL    HW141104   7.807   3.243   5.180
 9691SOL    HW241105   7.736   3.098   5.201
 9692SOL     OW41106   9.062   3.154   5.013
 9692SOL    HW141107   9.122   3.157   5.093
 9692SOL    HW241108   8.987   3.218   5.026
 9693SOL     OW41109   7.553   2.875   5.450
 9693SOL    HW141110   7.476   2.842   5.504
 9693SOL    HW241111   7.638   2.845   5.492
 9694SOL     OW41112   8.061   2.704   5.155
 9694SOL    HW141113   8.117   2.785   5.138
 9694SOL    HW241114   8.120   2.624   5.158
 9695SOL     OW41115   8.941   3.629   4.683
 9695SOL    HW141116   8.974   3.693   4.614
 9695SOL    HW241117   9.007   3.623   4.758
 9696SOL     OW41118   8.164   2.427   5.432
 9696SOL    HW141119   8.183   2.492   5.506
 9696SOL    HW241120   8.224   2.347   5.441
 9697SOL     OW41121   8.673   2.187   4.173
 9697SOL    HW141122   8.738   2.113   4.162
 9697SOL    HW241123   8.693   2.237   4.257
 9698SOL     OW41124   9.225   2.204   5.366
 9698SOL    HW141125   9.208   2.235   5.272
 9698SOL    HW241126   9.141   2.167   5.404
 9699SOL     OW41127   9.178   2.796   5.241
 9699SOL    HW141128   9.216   2.887   5.256
 9699SOL    HW241129   9.170   2.779   5.142
 9700SOL     OW41130   7.669   3.176   5.568
 9700SOL    HW141131   7.604   3.103   5.547
 9700SOL    HW241132   7.673   3.190   5.666
 9701SOL     OW41133   8.120   3.253   5.348
 9701SOL    HW141134   8.042   3.203   5.386
 9701SOL    HW241135   8.117   3.348   5.379
 9702SOL     OW41136   7.876   2.286   4.244
 9702SOL    HW141137   7.906   2.214   4.182
 9702SOL    HW241138   7.837   2.246   4.327
 9703SOL     OW41139   8.218   3.192   4.025
 9703SOL    HW141140   8.172   3.105   4.042
 9703SOL    HW241141   8.309   3.189   4.066
 9704SOL     OW41142   7.487   2.939   4.024
 9704SOL    HW141143   7.586   2.928   4.015
 9704SOL    HW241144   7.447   2.853   4.056
 9705SOL     OW41145   7.678   2.490   5.699
 9705SOL    HW141146   7.585   2.488   5.736
 9705SOL    HW241147   7.679   2.451   5.607
 9706SOL     OW41148   7.673   2.137   6.582
 9706SOL    HW141149   7.708   2.120   6.674
 9706SOL    HW241150   7.585   2.092   6.570
 9707SOL     OW41151   7.467   2.230   6.233
 9707SOL    HW141152   7.385   2.273   6.272
 9707SOL    HW241153   7.439   2.157   6.170
 9708SOL     OW41154   8.017   3.137   6.751
 9708SOL    HW141155   7.924   3.130   6.714
 9708SOL    HW241156   8.028   3.226   6.795
 9709SOL     OW41157   9.003   3.373   6.289
 9709SOL    HW141158   8.946   3.357   6.370
 9709SOL    HW241159   8.944   3.383   6.209
 9710SOL     OW41160   8.583   2.565   6.303
 9710SOL    HW141161   8.640   2.643   6.278
 9710SOL    HW241162   8.523   2.591   6.379
 9711SOL     OW41163   9.203   2.469   5.817
 9711SOL    HW141164   9.191   2.456   5.718
 9711SOL    HW241165   9.173   2.388   5.866
 9712SOL     OW41166   8.216   3.006   6.609
 9712SOL    HW141167   8.138   3.023   6.669
 9712SOL    HW241168   8.250   3.093   6.573
 9713SOL     OW41169   7.783   3.297   6.647
 9713SOL    HW141170   7.705   3.266   6.594
 9713SOL    HW241171   7.841   3.355   6.590
 9714SOL     OW41172   8.908   3.367   6.925
 9714SOL    HW141173   8.932   3.461   6.951
 9714SOL    HW241174   8.892   3.313   7.007
 9715SOL     OW41175   7.886   2.254   7.085
 9715SOL    HW141176   7.968   2.198   7.094
 9715SOL    HW241177   7.805   2.196   7.089
 9716SOL     OW41178   9.051   2.309   6.323
 9716SOL    HW141179   8.977   2.355   6.273
 9716SOL    HW241180   9.102   2.377   6.376
 9717SOL     OW41181   7.688   2.953   6.472
 9717SOL    HW141182   7.702   2.869   6.524
 9717SOL    HW241183   7.633   3.017   6.527
 9718SOL     OW41184   8.068   3.648   7.025
 9718SOL    HW141185   7.976   3.631   7.060
 9718SOL    HW241186   8.096   3.740   7.051
 9719SOL     OW41187   9.042   1.976   7.066
 9719SOL    HW141188   9.024   2.043   6.994
 9719SOL    HW241189   9.039   2.022   7.155
 9720SOL     OW41190   7.570   2.505   6.149
 9720SOL    HW141191   7.525   2.417   6.166
 9720SOL    HW241192   7.569   2.559   6.233
 9721SOL     OW41193   9.137   2.784   6.198
 9721SOL    HW141194   9.232   2.755   6.206
 9721SOL    HW241195   9.129   2.849   6.123
 9722SOL     OW41196   9.089   2.970   6.018
 9722SOL    HW141197   9.175   2.972   5.966
 9722SOL    HW241198   9.103   3.017   6.106
 9723SOL     OW41199   8.257   1.866   6.088
 9723SOL    HW141200   8.297   1.957   6.079
 9723SOL    HW241201   8.157   1.874   6.094
 9724SOL     OW41202   7.645   2.838   6.850
 9724SOL    HW141203   7.734   2.793   6.836
 9724SOL    HW241204   7.572   2.773   6.831
 9725SOL     OW41205   8.973   2.861   5.776
 9725SOL    HW141206   8.910   2.785   5.789
 9725SOL    HW241207   9.021   2.879   5.862
 9726SOL     OW41208   8.914   3.279   6.539
 9726SOL    HW141209   8.855   3.285   6.619
 9726SOL    HW241210   8.899   3.191   6.493
 9727SOL     OW41211   9.115   3.576   6.158
 9727SOL    HW141212   9.074   3.553   6.070
 9727SOL    HW241213   9.097   3.502   6.223
 9728SOL     OW41214   8.729   2.207   6.530
 9728SOL    HW141215   8.643   2.157   6.517
 9728SOL    HW241216   8.791   2.153   6.586
 9729SOL     OW41217   9.024   3.524   5.893
 9729SOL    HW141218   9.113   3.570   5.896
 9729SOL    HW241219   9.003   3.500   5.798
 9730SOL     OW41220   8.255   2.467   7.051
 9730SOL    HW141221   8.208   2.464   7.140
 9730SOL    HW241222   8.204   2.412   6.985
 9731SOL     OW41223   8.439   2.272   6.828
 9731SOL    HW141224   8.362   2.306   6.882
 9731SOL    HW241225   8.405   2.221   6.749
 9732SOL     OW41226   8.489   2.563   6.015
 9732SOL    HW141227   8.515   2.559   6.111
 9732SOL    HW241228   8.404   2.512   6.001
 9733SOL     OW41229   7.524   2.673   6.375
 9733SOL    HW141230   7.623   2.661   6.384
 9733SOL    HW241231   7.500   2.768   6.396
 9734SOL     OW41232   7.578   3.683   7.157
 9734SOL    HW141233   7.568   3.668   7.256
 9734SOL    HW241234   7.492   3.719   7.121
 9735SOL     OW41235   8.313   2.210   5.781
 9735SOL    HW141236   8.372   2.273   5.732
 9735SOL    HW241237   8.332   2.116   5.752
 9736SOL     OW41238   8.810   3.006   6.131
 9736SOL    HW141239   8.893   2.977   6.083
 9736SOL    HW241240   8.761   3.073   6.075
 9737SOL     OW41241   7.998   2.058   6.471
 9737SOL    HW141242   7.993   2.053   6.571
 9737SOL    HW241243   8.000   2.154   6.442
 9738SOL     OW41244   8.456   3.318   6.063
 9738SOL    HW141245   8.410   3.390   6.011
 9738SOL    HW241246   8.452   3.338   6.161
 9739SOL     OW41247   7.799   3.663   6.439
 9739SOL    HW141248   7.849   3.577   6.445
 9739SOL    HW241249   7.864   3.740   6.436
 9740SOL     OW41250   9.243   2.928   6.459
 9740SOL    HW141251   9.181   2.913   6.383
 9740SOL    HW241252   9.191   2.939   6.544
 9741SOL     OW41253   7.769   2.805   5.828
 9741SOL    HW141254   7.851   2.844   5.786
 9741SOL    HW241255   7.742   2.723   5.779
 9742SOL     OW41256   8.906   2.597   6.314
 9742SOL    HW141257   8.901   2.532   6.389
 9742SOL    HW241258   8.986   2.656   6.327
 9743SOL     OW41259   7.650   2.147   7.084
 9743SOL    HW141260   7.570   2.207   7.071
 9743SOL    HW241261   7.640   2.098   7.170
 9744SOL     OW41262   8.848   1.969   6.012
 9744SOL    HW141263   8.824   1.932   5.922
 9744SOL    HW241264   8.947   1.985   6.016
 9745SOL     OW41265   7.697   3.647   6.827
 9745SOL    HW141266   7.754   3.582   6.877
 9745SOL    HW241267   7.681   3.614   6.734
 9746SOL     OW41268   8.388   3.560   6.490
 9746SOL    HW141269   8.468   3.503   6.511
 9746SOL    HW241270   8.339   3.520   6.413
 9747SOL     OW41271   7.830   2.562   6.066
 9747SOL    HW141272   7.875   2.472   6.063
 9747SOL    HW241273   7.736   2.551   6.099
 9748SOL     OW41274   8.336   3.376   6.781
 9748SOL    HW141275   8.313   3.351   6.687
 9748SOL    HW241276   8.397   3.307   6.820
 9749SOL     OW41277   8.251   3.264   6.510
 9749SOL    HW141278   8.341   3.278   6.468
 9749SOL    HW241279   8.180   3.266   6.439
 9750SOL     OW41280   8.370   2.365   6.485
 9750SOL    HW141281   8.345   2.356   6.389
 9750SOL    HW241282   8.418   2.283   6.516
 9751SOL     OW41283   7.987   1.926   6.098
 9751SOL    HW141284   7.906   1.927   6.156
 9751SOL    HW241285   7.990   2.009   6.043
 9752SOL     OW41286   8.882   3.050   5.627
 9752SOL    HW141287   8.914   2.974   5.684
 9752SOL    HW241288   8.790   3.077   5.657
 9753SOL     OW41289   8.383   2.098   6.066
 9753SOL    HW141290   8.335   2.139   5.988
 9753SOL    HW241291   8.482   2.096   6.047
 9754SOL     OW41292   8.675   3.432   6.379
 9754SOL    HW141293   8.696   3.506   6.314
 9754SOL    HW241294   8.743   3.432   6.452
 9755SOL     OW41295   7.907   3.014   6.327
 9755SOL    HW141296   7.836   2.987   6.392
 9755SOL    HW241297   7.881   2.986   6.234
 9756SOL     OW41298   8.719   3.659   6.177
 9756SOL    HW141299   8.763   3.723   6.113
 9756SOL    HW241300   8.669   3.711   6.247
 9757SOL     OW41301   7.526   2.418   6.972
 9757SOL    HW141302   7.618   2.417   6.931
 9757SOL    HW241303   7.520   2.492   7.039
 9758SOL     OW41304   8.009   2.084   6.733
 9758SOL    HW141305   8.047   2.000   6.770
 9758SOL    HW241306   7.921   2.103   6.777
 9759SOL     OW41307   8.314   2.316   6.228
 9759SOL    HW141308   8.282   2.388   6.166
 9759SOL    HW241309   8.338   2.235   6.175
 9760SOL     OW41310   8.465   1.901   6.339
 9760SOL    HW141311   8.393   1.906   6.270
 9760SOL    HW241312   8.441   1.832   6.408
 9761SOL     OW41313   8.877   3.035   6.453
 9761SOL    HW141314   8.822   2.951   6.446
 9761SOL    HW241315   8.903   3.064   6.361
 9762SOL     OW41316   8.914   2.452   6.578
 9762SOL    HW141317   8.884   2.357   6.585
 9762SOL    HW241318   8.987   2.468   6.644
 9763SOL     OW41319   9.305   2.695   5.963
 9763SOL    HW141320   9.347   2.631   6.027
 9763SOL    HW241321   9.267   2.644   5.885
 9764SOL     OW41322   9.112   3.142   6.243
 9764SOL    HW141323   9.211   3.150   6.257
 9764SOL    HW241324   9.067   3.226   6.274
 9765SOL     OW41325   8.512   3.209   6.926
 9765SOL    HW141326   8.432   3.186   6.981
 9765SOL    HW241327   8.595   3.183   6.975
 9766SOL     OW41328   8.559   3.057   6.686
 9766SOL    HW141329   8.519   3.101   6.767
 9766SOL    HW241330   8.518   3.094   6.603
 9767SOL     OW41331   9.086   2.961   6.665
 9767SOL    HW141332   9.091   3.042   6.724
 9767SOL    HW241333   9.000   2.963   6.614
 9768SOL     OW41334   8.363   1.951   6.988
 9768SOL    HW141335   8.388   1.931   6.893
 9768SOL    HW241336   8.435   2.007   7.030
 9769SOL     OW41337   7.858   2.675   6.837
 9769SOL    HW141338   7.944   2.687   6.887
 9769SOL    HW241339   7.816   2.588   6.864
 9770SOL     OW41340   8.722   2.248   6.848
 9770SOL    HW141341   8.743   2.322   6.912
 9770SOL    HW241342   8.633   2.265   6.805
 9771SOL     OW41343   7.512   3.426   6.917
 9771SOL    HW141344   7.466   3.508   6.883
 9771SOL    HW241345   7.610   3.445   6.926
 9772SOL     OW41346   7.815   2.962   6.087
 9772SOL    HW141347   7.808   3.045   6.031
 9772SOL    HW241348   7.819   2.882   6.027
 9773SOL     OW41349   8.014   2.399   6.451
 9773SOL    HW141350   8.026   2.465   6.377
 9773SOL    HW241351   8.060   2.433   6.534
 9774SOL     OW41352   8.700   3.210   5.974
 9774SOL    HW141353   8.750   3.287   6.014
 9774SOL    HW241354   8.605   3.212   6.006
 9775SOL     OW41355   8.720   3.307   6.728
 9775SOL    HW141356   8.767   3.320   6.815
 9775SOL    HW241357   8.654   3.233   6.737
 9776SOL     OW41358   9.030   2.501   6.058
 9776SOL    HW141359   8.999   2.562   6.131
 9776SOL    HW241360   9.080   2.553   5.989
 9777SOL     OW41361   7.802   3.372   6.915
 9777SOL    HW141362   7.781   3.328   6.828
 9777SOL    HW241363   7.899   3.398   6.918
 9778SOL     OW41364   7.850   2.613   7.184
 9778SOL    HW141365   7.918   2.668   7.137
 9778SOL    HW241366   7.890   2.525   7.211
 9779SOL     OW41367   9.035   2.641   7.256
 9779SOL    HW141368   8.943   2.679   7.251
 9779SOL    HW241369   9.095   2.688   7.191
 9780SOL     OW41370   8.021   2.732   6.615
 9780SOL    HW141371   8.065   2.821   6.606
 9780SOL    HW241372   7.958   2.732   6.692
 9781SOL     OW41373   8.808   2.724   6.631
 9781SOL    HW141374   8.733   2.724   6.565
 9781SOL    HW241375   8.845   2.632   6.640
 9782SOL     OW41376   8.657   2.387   5.861
 9782SOL    HW141377   8.670   2.303   5.915
 9782SOL    HW241378   8.628   2.461   5.921
 9783SOL     OW41379   7.755   2.075   6.817
 9783SOL    HW141380   7.732   2.112   6.907
 9783SOL    HW241381   7.725   1.980   6.811
 9784SOL     OW41382   7.485   3.172   6.868
 9784SOL    HW141383   7.538   3.123   6.936
 9784SOL    HW241384   7.507   3.270   6.873
 9785SOL     OW41385   8.180   2.496   6.650
 9785SOL    HW141386   8.239   2.470   6.574
 9785SOL    HW241387   8.152   2.592   6.639
 9786SOL     OW41388   7.755   1.925   6.204
 9786SOL    HW141389   7.744   2.019   6.237
 9786SOL    HW241390   7.750   1.862   6.281
 9787SOL     OW41391   9.070   2.229   5.960
 9787SOL    HW141392   9.072   2.153   6.024
 9787SOL    HW241393   9.022   2.306   6.000
 9788SOL     OW41394   8.471   2.628   6.552
 9788SOL    HW141395   8.486   2.649   6.648
 9788SOL    HW241396   8.441   2.533   6.543
 9789SOL     OW41397   8.428   3.435   7.286
 9789SOL    HW141398   8.408   3.479   7.198
 9789SOL    HW241399   8.467   3.344   7.270
 9790SOL     OW41400   8.516   3.195   6.435
 9790SOL    HW141401   8.523   3.111   6.380
 9790SOL    HW241402   8.578   3.264   6.399
 9791SOL     OW41403   7.767   2.672   6.535
 9791SOL    HW141404   7.860   2.708   6.540
 9791SOL    HW241405   7.761   2.587   6.587
 9792SOL     OW41406   7.787   2.371   6.592
 9792SOL    HW141407   7.735   2.288   6.575
 9792SOL    HW241408   7.864   2.376   6.528
 9793SOL     OW41409   8.586   2.242   7.264
 9793SOL    HW141410   8.541   2.305   7.328
 9793SOL    HW241411   8.679   2.273   7.247
 9794SOL     OW41412   8.608   2.069   7.063
 9794SOL    HW141413   8.608   2.133   7.140
 9794SOL    HW241414   8.636   2.117   6.980
 9795SOL     OW41415   7.456   3.188   5.786
 9795SOL    HW141416   7.363   3.209   5.755
 9795SOL    HW241417   7.466   3.089   5.799
 9796SOL     OW41418   7.536   3.663   6.513
 9796SOL    HW141419   7.494   3.577   6.486
 9796SOL    HW241420   7.630   3.666   6.479
 9797SOL     OW41421   7.952   3.430   6.496
 9797SOL    HW141422   8.018   3.504   6.505
 9797SOL    HW241423   7.996   3.351   6.454
 9798SOL     OW41424   8.450   2.658   6.824
 9798SOL    HW141425   8.491   2.626   6.910
 9798SOL    HW241426   8.354   2.631   6.821
 9799SOL     OW41427   7.488   2.406   6.700
 9799SOL    HW141428   7.573   2.373   6.659
 9799SOL    HW241429   7.501   2.421   6.798
 9800SOL     OW41430   8.263   2.434   5.911
 9800SOL    HW141431   8.270   2.345   5.865
 9800SOL    HW241432   8.169   2.468   5.903
 9801SOL     OW41433   9.105   2.466   6.792
 9801SOL    HW141434   9.067   2.397   6.854
 9801SOL    HW241435   9.187   2.430   6.748
 9802SOL     OW41436   8.119   2.326   6.855
 9802SOL    HW141437   8.085   2.237   6.825
 9802SOL    HW241438   8.145   2.380   6.775
 9803SOL     OW41439   8.378   3.540   7.051
 9803SOL    HW141440   8.354   3.522   6.956
 9803SOL    HW241441   8.408   3.634   7.061
 9804SOL     OW41442   7.921   2.362   5.777
 9804SOL    HW141443   7.982   2.442   5.781
 9804SOL    HW241444   7.826   2.393   5.784
 9805SOL     OW41445   7.607   2.999   7.052
 9805SOL    HW141446   7.629   2.938   7.128
 9805SOL    HW241447   7.617   2.950   6.966
 9806SOL     OW41448   8.795   2.921   6.820
 9806SOL    HW141449   8.819   2.858   6.746
 9806SOL    HW241450   8.705   2.961   6.802
 9807SOL     OW41451   9.207   3.609   6.740
 9807SOL    HW141452   9.268   3.639   6.667
 9807SOL    HW241453   9.169   3.520   6.718
 9808SOL     OW41454   8.700   3.593   6.714
 9808SOL    HW141455   8.784   3.598   6.660
 9808SOL    HW241456   8.677   3.497   6.732
 9809SOL     OW41457   7.531   3.120   6.608
 9809SOL    HW141458   7.526   3.119   6.708
 9809SOL    HW241459   7.448   3.079   6.570
 9810SOL     OW41460   9.174   1.997   6.109
 9810SOL    HW141461   9.247   1.980   6.042
 9810SOL    HW241462   9.143   1.910   6.147
 9811SOL     OW41463   8.836   3.435   6.063
 9811SOL    HW141464   8.903   3.447   5.989
 9811SOL    HW241465   8.796   3.524   6.086
 9812SOL     OW41466   8.728   2.789   6.258
 9812SOL    HW141467   8.788   2.708   6.260
 9812SOL    HW241468   8.768   2.858   6.198
 9813SOL     OW41469   9.098   3.582   6.980
 9813SOL    HW141470   9.151   3.592   6.896
 9813SOL    HW241471   9.071   3.672   7.014
 9814SOL     OW41472   9.289   2.037   6.549
 9814SOL    HW141473   9.328   1.952   6.513
 9814SOL    HW241474   9.191   2.039   6.530
 9815SOL     OW41475   7.711   2.188   6.306
 9815SOL    HW141476   7.632   2.239   6.272
 9815SOL    HW241477   7.702   2.173   6.404
 9816SOL     OW41478   8.270   2.864   6.958
 9816SOL    HW141479   8.310   2.863   6.866
 9816SOL    HW241480   8.280   2.956   6.998
 9817SOL     OW41481   8.952   3.469   5.630
 9817SOL    HW141482   8.860   3.506   5.637
 9817SOL    HW241483   8.990   3.489   5.540
 9818SOL     OW41484   7.820   3.150   7.076
 9818SOL    HW141485   7.807   3.243   7.042
 9818SOL    HW241486   7.736   3.098   7.063
 9819SOL     OW41487   9.062   3.154   6.875
 9819SOL    HW141488   9.122   3.157   6.955
 9819SOL    HW241489   8.987   3.218   6.888
 9820SOL     OW41490   8.487   2.960   6.282
 9820SOL    HW141491   8.417   2.913   6.336
 9820SOL    HW241492   8.546   2.892   6.239
 9821SOL     OW41493   8.462   2.098   6.557
 9821SOL    HW141494   8.454   2.062   6.464
 9821SOL    HW241495   8.460   2.022   6.622
 9822SOL     OW41496   9.157   2.247   6.967
 9822SOL    HW141497   9.230   2.316   6.971
 9822SOL    HW241498   9.185   2.172   6.908
 9823SOL     OW41499   7.703   3.210   5.876
 9823SOL    HW141500   7.607   3.211   5.849
 9823SOL    HW241501   7.715   3.263   5.960
 9824SOL     OW41502   8.888   2.718   6.984
 9824SOL    HW141503   8.831   2.770   6.921
 9824SOL    HW241504   8.984   2.730   6.960
 9825SOL     OW41505   8.631   3.197   5.705
 9825SOL    HW141506   8.532   3.186   5.707
 9825SOL    HW241507   8.665   3.212   5.798
 9826SOL     OW41508   8.061   2.704   7.017
 9826SOL    HW141509   8.117   2.785   7.000
 9826SOL    HW241510   8.120   2.624   7.020
 9827SOL     OW41511   8.941   3.629   6.545
 9827SOL    HW141512   8.974   3.693   6.476
 9827SOL    HW241513   9.007   3.623   6.620
 9828SOL     OW41514   7.838   3.603   7.146
 9828SOL    HW141515   7.747   3.644   7.144
 9828SOL    HW241516   7.831   3.509   7.178
 9829SOL     OW41517   9.122   2.745   6.840
 9829SOL    HW141518   9.095   2.656   6.803
 9829SOL    HW241519   9.123   2.813   6.767
 9830SOL     OW41520   8.673   2.187   6.035
 9830SOL    HW141521   8.738   2.113   6.024
 9830SOL    HW241522   8.693   2.237   6.119
 9831SOL     OW41523   8.042   2.607   6.238
 9831SOL    HW141524   8.092   2.692   6.219
 9831SOL    HW241525   7.954   2.609   6.190
 9832SOL     OW41526   9.225   2.204   7.228
 9832SOL    HW141527   9.208   2.235   7.134
 9832SOL    HW241528   9.141   2.167   7.266
 9833SOL     OW41529   9.178   2.796   7.103
 9833SOL    HW141530   9.216   2.887   7.118
 9833SOL    HW241531   9.170   2.779   7.004
 9834SOL     OW41532   8.307   3.236   5.602
 9834SOL    HW141533   8.261   3.251   5.690
 9834SOL    HW241534   8.351   3.321   5.572
 9835SOL     OW41535   8.109   3.652   6.539
 9835SOL    HW141536   8.063   3.740   6.526
 9835SOL    HW241537   8.208   3.664   6.532
 9836SOL     OW41538   8.307   2.818   6.447
 9836SOL    HW141539   8.361   2.749   6.495
 9836SOL    HW241540   8.275   2.887   6.513
 9837SOL     OW41541   9.309   3.431   6.437
 9837SOL    HW141542   9.238   3.419   6.367
 9837SOL    HW241543   9.310   3.352   6.497
 9838SOL     OW41544   7.527   3.102   6.239
 9838SOL    HW141545   7.526   3.055   6.327
 9838SOL    HW241546   7.609   3.074   6.188
 9839SOL     OW41547   9.272   2.054   6.813
 9839SOL    HW141548   9.268   1.964   6.857
 9839SOL    HW241549   9.275   2.043   6.714
 9840SOL     OW41550   7.876   2.286   6.106
 9840SOL    HW141551   7.906   2.214   6.044
 9840SOL    HW241552   7.837   2.246   6.189
 9841SOL     OW41553   9.153   3.349   6.690
 9841SOL    HW141554   9.060   3.324   6.663
 9841SOL    HW241555   9.179   3.299   6.772
 9842SOL     OW41556   7.765   2.409   6.866
 9842SOL    HW141557   7.803   2.350   6.938
 9842SOL    HW241558   7.805   2.383   6.778
 9843SOL     OW41559   8.260   3.448   6.273
 9843SOL    HW141560   8.292   3.458   6.179
 9843SOL    HW241561   8.181   3.386   6.275
 9844SOL     OW41562   8.872   2.076   6.698
 9844SOL    HW141563   8.924   2.011   6.753
 9844SOL    HW241564   8.823   2.139   6.759
 9845SOL     OW41565   8.449   1.896   6.740
 9845SOL    HW141566   8.386   1.824   6.709
 9845SOL    HW241567   8.542   1.860   6.740
 9846SOL     OW41568   8.066   3.429   6.870
 9846SOL    HW141569   8.061   3.511   6.927
 9846SOL    HW241570   8.155   3.426   6.825
 9847SOL     OW41571   8.748   2.315   6.277
 9847SOL    HW141572   8.689   2.395   6.281
 9847SOL    HW241573   8.763   2.280   6.370
 9848SOL     OW41574   9.041   2.083   6.468
 9848SOL    HW141575   8.957   2.082   6.522
 9848SOL    HW241576   9.043   2.166   6.412
 9849SOL     OW41577   7.487   2.939   5.886
 9849SOL    HW141578   7.586   2.928   5.877
 9849SOL    HW241579   7.447   2.853   5.918
 9850SOL     OW41580   7.678   4.352   0.113
 9850SOL    HW141581   7.585   4.350   0.150
 9850SOL    HW241582   7.679   4.313   0.021
 9851SOL     OW41583   7.673   3.999   0.996
 9851SOL    HW141584   7.708   3.982   1.088
 9851SOL    HW241585   7.585   3.954   0.984
 9852SOL     OW41586   7.467   4.092   0.647
 9852SOL    HW141587   7.385   4.135   0.686
 9852SOL    HW241588   7.439   4.019   0.584
 9853SOL     OW41589   9.003   5.235   0.703
 9853SOL    HW141590   8.946   5.219   0.784
 9853SOL    HW241591   8.944   5.245   0.623
 9854SOL     OW41592   8.583   4.427   0.717
 9854SOL    HW141593   8.640   4.505   0.692
 9854SOL    HW241594   8.523   4.453   0.793
 9855SOL     OW41595   9.203   4.331   0.231
 9855SOL    HW141596   9.191   4.318   0.132
 9855SOL    HW241597   9.173   4.250   0.280
 9856SOL     OW41598   8.133   4.736   0.665
 9856SOL    HW141599   8.202   4.720   0.735
 9856SOL    HW241600   8.060   4.793   0.703
 9857SOL     OW41601   8.908   5.229   1.339
 9857SOL    HW141602   8.932   5.323   1.365
 9857SOL    HW241603   8.892   5.175   1.421
 9858SOL     OW41604   9.051   4.171   0.737
 9858SOL    HW141605   8.977   4.217   0.687
 9858SOL    HW241606   9.102   4.239   0.790
 9859SOL     OW41607   7.679   5.437   0.483
 9859SOL    HW141608   7.713   5.514   0.537
 9859SOL    HW241609   7.723   5.437   0.393
 9860SOL     OW41610   8.575   5.065   1.690
 9860SOL    HW141611   8.622   5.065   1.778
 9860SOL    HW241612   8.527   4.978   1.679
 9861SOL     OW41613   7.678   5.158   0.538
 9861SOL    HW141614   7.652   5.254   0.538
 9861SOL    HW241615   7.607   5.104   0.583
 9862SOL     OW41616   7.688   4.815   0.886
 9862SOL    HW141617   7.702   4.731   0.938
 9862SOL    HW241618   7.633   4.879   0.941
 9863SOL     OW41619   8.054   4.688   0.123
 9863SOL    HW141620   8.061   4.772   0.069
 9863SOL    HW241621   8.100   4.701   0.211
 9864SOL     OW41622   7.570   4.367   0.563
 9864SOL    HW141623   7.525   4.279   0.580
 9864SOL    HW241624   7.569   4.421   0.647
 9865SOL     OW41625   9.290   5.491   0.359
 9865SOL    HW141626   9.344   5.462   0.439
 9865SOL    HW241627   9.320   5.581   0.330
 9866SOL     OW41628   7.475   5.320   0.117
 9866SOL    HW141629   7.456   5.224   0.138
 9866SOL    HW241630   7.442   5.378   0.192
 9867SOL     OW41631   9.137   4.646   0.612
 9867SOL    HW141632   9.232   4.617   0.620
 9867SOL    HW241633   9.129   4.711   0.537
 9868SOL     OW41634   9.089   4.832   0.432
 9868SOL    HW141635   9.175   4.834   0.380
 9868SOL    HW241636   9.103   4.879   0.520
 9869SOL     OW41637   7.561   4.461   1.597
 9869SOL    HW141638   7.649   4.448   1.642
 9869SOL    HW241639   7.548   4.558   1.575
 9870SOL     OW41640   8.061   5.089   0.726
 9870SOL    HW141641   8.012   5.002   0.735
 9870SOL    HW241642   8.038   5.132   0.639
 9871SOL     OW41643   8.257   3.728   0.502
 9871SOL    HW141644   8.297   3.819   0.493
 9871SOL    HW241645   8.157   3.736   0.508
 9872SOL     OW41646   8.973   4.723   0.190
 9872SOL    HW141647   8.910   4.647   0.203
 9872SOL    HW241648   9.021   4.741   0.276
 9873SOL     OW41649   7.765   3.975   1.801
 9873SOL    HW141650   7.836   4.046   1.807
 9873SOL    HW241651   7.677   4.014   1.829
 9874SOL     OW41652   8.914   5.141   0.953
 9874SOL    HW141653   8.855   5.147   1.033
 9874SOL    HW241654   8.899   5.053   0.907
 9875SOL     OW41655   9.115   5.438   0.572
 9875SOL    HW141656   9.074   5.415   0.484
 9875SOL    HW241657   9.097   5.364   0.637
 9876SOL     OW41658   8.046   4.453   0.270
 9876SOL    HW141659   8.070   4.522   0.202
 9876SOL    HW241660   7.968   4.486   0.324
 9877SOL     OW41661   8.729   4.069   0.944
 9877SOL    HW141662   8.643   4.019   0.931
 9877SOL    HW241663   8.791   4.015   1.000
 9878SOL     OW41664   9.024   5.386   0.307
 9878SOL    HW141665   9.113   5.432   0.310
 9878SOL    HW241666   9.003   5.362   0.212
 9879SOL     OW41667   8.255   4.329   1.465
 9879SOL    HW141668   8.208   4.326   1.554
 9879SOL    HW241669   8.204   4.274   1.399
 9880SOL     OW41670   8.421   4.614   1.572
 9880SOL    HW141671   8.467   4.530   1.543
 9880SOL    HW241672   8.365   4.648   1.497
 9881SOL     OW41673   8.439   4.134   1.242
 9881SOL    HW141674   8.362   4.168   1.296
 9881SOL    HW241675   8.405   4.083   1.163
 9882SOL     OW41676   8.489   4.425   0.429
 9882SOL    HW141677   8.515   4.421   0.525
 9882SOL    HW241678   8.404   4.374   0.415
 9883SOL     OW41679   7.524   4.535   0.789
 9883SOL    HW141680   7.623   4.523   0.798
 9883SOL    HW241681   7.500   4.630   0.810
 9884SOL     OW41682   8.313   4.072   0.195
 9884SOL    HW141683   8.372   4.135   0.146
 9884SOL    HW241684   8.332   3.978   0.166
 9885SOL     OW41685   8.810   4.868   0.545
 9885SOL    HW141686   8.893   4.839   0.497
 9885SOL    HW241687   8.761   4.935   0.489
 9886SOL     OW41688   7.998   3.920   0.885
 9886SOL    HW141689   7.993   3.915   0.985
 9886SOL    HW241690   8.000   4.016   0.856
 9887SOL     OW41691   8.456   5.180   0.477
 9887SOL    HW141692   8.410   5.252   0.425
 9887SOL    HW241693   8.452   5.200   0.575
 9888SOL     OW41694   9.243   4.790   0.873
 9888SOL    HW141695   9.181   4.775   0.797
 9888SOL    HW241696   9.191   4.801   0.958
 9889SOL     OW41697   7.769   4.667   0.242
 9889SOL    HW141698   7.851   4.706   0.200
 9889SOL    HW241699   7.742   4.585   0.193
 9890SOL     OW41700   8.906   4.459   0.728
 9890SOL    HW141701   8.901   4.394   0.803
 9890SOL    HW241702   8.986   4.518   0.741
 9891SOL     OW41703   8.559   5.500   0.237
 9891SOL    HW141704   8.499   5.438   0.287
 9891SOL    HW241705   8.590   5.456   0.152
 9892SOL     OW41706   7.650   4.009   1.498
 9892SOL    HW141707   7.570   4.069   1.485
 9892SOL    HW241708   7.640   3.960   1.584
 9893SOL     OW41709   9.080   5.101   0.081
 9893SOL    HW141710   9.048   5.195   0.071
 9893SOL    HW241711   9.004   5.038   0.069
 9894SOL     OW41712   7.912   5.467   0.323
 9894SOL    HW141713   7.945   5.506   0.409
 9894SOL    HW241714   7.988   5.460   0.258
 9895SOL     OW41715   8.848   3.831   0.426
 9895SOL    HW141716   8.824   3.794   0.336
 9895SOL    HW241717   8.947   3.847   0.430
 9896SOL     OW41718   8.388   5.422   0.904
 9896SOL    HW141719   8.468   5.365   0.925
 9896SOL    HW241720   8.339   5.382   0.827
 9897SOL     OW41721   7.830   4.424   0.480
 9897SOL    HW141722   7.875   4.334   0.477
 9897SOL    HW241723   7.736   4.413   0.513
 9898SOL     OW41724   8.062   3.846   0.117
 9898SOL    HW141725   8.160   3.824   0.124
 9898SOL    HW241726   8.031   3.829   0.024
 9899SOL     OW41727   8.251   5.126   0.924
 9899SOL    HW141728   8.341   5.140   0.882
 9899SOL    HW241729   8.180   5.128   0.853
 9900SOL     OW41730   8.370   4.227   0.899
 9900SOL    HW141731   8.345   4.218   0.803
 9900SOL    HW241732   8.418   4.145   0.930
 9901SOL     OW41733   7.987   3.788   0.512
 9901SOL    HW141734   7.906   3.789   0.570
 9901SOL    HW241735   7.990   3.871   0.457
 9902SOL     OW41736   8.882   4.912   0.041
 9902SOL    HW141737   8.914   4.836   0.098
 9902SOL    HW241738   8.790   4.939   0.071
 9903SOL     OW41739   7.745   3.759   0.171
 9903SOL    HW141740   7.794   3.843   0.150
 9903SOL    HW241741   7.807   3.694   0.216
 9904SOL     OW41742   8.383   3.960   0.480
 9904SOL    HW141743   8.335   4.001   0.402
 9904SOL    HW241744   8.482   3.958   0.461
 9905SOL     OW41745   8.524   4.407   1.464
 9905SOL    HW141746   8.444   4.346   1.467
 9905SOL    HW241747   8.605   4.354   1.440
 9906SOL     OW41748   8.675   5.294   0.793
 9906SOL    HW141749   8.696   5.368   0.728
 9906SOL    HW241750   8.743   5.294   0.866
 9907SOL     OW41751   7.907   4.876   0.741
 9907SOL    HW141752   7.836   4.849   0.806
 9907SOL    HW241753   7.881   4.848   0.648
 9908SOL     OW41754   8.719   5.521   0.591
 9908SOL    HW141755   8.763   5.585   0.527
 9908SOL    HW241756   8.669   5.573   0.661
 9909SOL     OW41757   8.480   4.273   0.016
 9909SOL    HW141758   8.439   4.355  -0.023
 9909SOL    HW241759   8.544   4.299   0.089
 9910SOL     OW41760   8.009   3.946   1.147
 9910SOL    HW141761   8.047   3.862   1.184
 9910SOL    HW241762   7.921   3.965   1.191
 9911SOL     OW41763   8.314   4.178   0.642
 9911SOL    HW141764   8.282   4.250   0.580
 9911SOL    HW241765   8.338   4.097   0.589
 9912SOL     OW41766   8.465   3.763   0.753
 9912SOL    HW141767   8.393   3.768   0.684
 9912SOL    HW241768   8.441   3.694   0.822
 9913SOL     OW41769   8.877   4.897   0.867
 9913SOL    HW141770   8.822   4.813   0.860
 9913SOL    HW241771   8.903   4.926   0.775
 9914SOL     OW41772   8.914   4.314   0.992
 9914SOL    HW141773   8.884   4.219   0.999
 9914SOL    HW241774   8.987   4.330   1.058
 9915SOL     OW41775   9.305   4.557   0.377
 9915SOL    HW141776   9.347   4.493   0.441
 9915SOL    HW241777   9.267   4.506   0.299
 9916SOL     OW41778   7.936   5.109   0.174
 9916SOL    HW141779   7.849   5.094   0.221
 9916SOL    HW241780   7.919   5.135   0.079
 9917SOL     OW41781   9.112   5.004   0.657
 9917SOL    HW141782   9.211   5.012   0.671
 9917SOL    HW241783   9.067   5.088   0.688
 9918SOL     OW41784   8.838   4.299   0.078
 9918SOL    HW141785   8.784   4.278   0.159
 9918SOL    HW241786   8.929   4.258   0.087
 9919SOL     OW41787   7.975   3.980   0.328
 9919SOL    HW141788   8.002   3.921   0.253
 9919SOL    HW241789   7.975   4.075   0.297
 9920SOL     OW41790   9.040   5.353   1.625
 9920SOL    HW141791   9.067   5.387   1.535
 9920SOL    HW241792   9.119   5.315   1.671
 9921SOL     OW41793   8.363   3.813   1.402
 9921SOL    HW141794   8.388   3.793   1.307
 9921SOL    HW241795   8.435   3.869   1.444
 9922SOL     OW41796   8.153   4.774   0.368
 9922SOL    HW141797   8.139   4.781   0.467
 9922SOL    HW241798   8.237   4.723   0.350
 9923SOL     OW41799   7.512   5.288   1.331
 9923SOL    HW141800   7.466   5.370   1.297
 9923SOL    HW241801   7.610   5.307   1.340
 9924SOL     OW41802   7.815   4.824   0.501
 9924SOL    HW141803   7.808   4.907   0.445
 9924SOL    HW241804   7.819   4.744   0.441
 9925SOL     OW41805   8.014   4.261   0.865
 9925SOL    HW141806   8.026   4.327   0.791
 9925SOL    HW241807   8.060   4.295   0.948
 9926SOL     OW41808   8.700   5.072   0.388
 9926SOL    HW141809   8.750   5.149   0.428
 9926SOL    HW241810   8.605   5.074   0.420
 9927SOL     OW41811   9.030   4.363   0.472
 9927SOL    HW141812   8.999   4.424   0.545
 9927SOL    HW241813   9.080   4.415   0.403
 9928SOL     OW41814   7.952   3.774   1.740
 9928SOL    HW141815   7.910   3.717   1.670
 9928SOL    HW241816   7.886   3.843   1.772
 9929SOL     OW41817   8.808   4.586   1.045
 9929SOL    HW141818   8.733   4.586   0.979
 9929SOL    HW241819   8.845   4.494   1.054
 9930SOL     OW41820   8.657   4.249   0.275
 9930SOL    HW141821   8.670   4.165   0.329
 9930SOL    HW241822   8.628   4.323   0.335
 9931SOL     OW41823   7.755   3.937   1.231
 9931SOL    HW141824   7.732   3.974   1.321
 9931SOL    HW241825   7.725   3.842   1.225
 9932SOL     OW41826   7.485   5.034   1.282
 9932SOL    HW141827   7.538   4.985   1.350
 9932SOL    HW241828   7.507   5.132   1.287
 9933SOL     OW41829   8.180   4.358   1.064
 9933SOL    HW141830   8.239   4.332   0.988
 9933SOL    HW241831   8.152   4.454   1.053
 9934SOL     OW41832   7.755   3.787   0.618
 9934SOL    HW141833   7.744   3.881   0.651
 9934SOL    HW241834   7.750   3.724   0.695
 9935SOL     OW41835   9.070   4.091   0.374
 9935SOL    HW141836   9.072   4.015   0.438
 9935SOL    HW241837   9.022   4.168   0.414
 9936SOL     OW41838   8.471   4.490   0.966
 9936SOL    HW141839   8.486   4.511   1.062
 9936SOL    HW241840   8.441   4.395   0.957
 9937SOL     OW41841   8.988   3.998   0.125
 9937SOL    HW141842   8.927   3.923   0.148
 9937SOL    HW241843   9.010   4.050   0.208
 9938SOL     OW41844   8.751   4.562   0.042
 9938SOL    HW141845   8.785   4.469   0.057
 9938SOL    HW241846   8.769   4.589  -0.053
 9939SOL     OW41847   8.516   5.057   0.849
 9939SOL    HW141848   8.523   4.973   0.794
 9939SOL    HW241849   8.578   5.126   0.813
 9940SOL     OW41850   7.787   4.233   1.006
 9940SOL    HW141851   7.735   4.150   0.989
 9940SOL    HW241852   7.864   4.238   0.942
 9941SOL     OW41853   7.456   5.050   0.200
 9941SOL    HW141854   7.363   5.071   0.169
 9941SOL    HW241855   7.466   4.951   0.213
 9942SOL     OW41856   7.536   5.525   0.927
 9942SOL    HW141857   7.494   5.439   0.900
 9942SOL    HW241858   7.630   5.528   0.893
 9943SOL     OW41859   7.952   5.292   0.910
 9943SOL    HW141860   8.018   5.366   0.919
 9943SOL    HW241861   7.996   5.213   0.868
 9944SOL     OW41862   8.450   4.520   1.238
 9944SOL    HW141863   8.491   4.488   1.324
 9944SOL    HW241864   8.354   4.493   1.235
 9945SOL     OW41865   7.637   4.244   1.722
 9945SOL    HW141866   7.696   4.204   1.652
 9945SOL    HW241867   7.579   4.315   1.681
 9946SOL     OW41868   8.263   4.296   0.325
 9946SOL    HW141869   8.270   4.207   0.279
 9946SOL    HW241870   8.169   4.330   0.317
 9947SOL     OW41871   9.105   4.328   1.206
 9947SOL    HW141872   9.067   4.259   1.268
 9947SOL    HW241873   9.187   4.292   1.162
 9948SOL     OW41874   8.119   4.188   1.269
 9948SOL    HW141875   8.085   4.099   1.239
 9948SOL    HW241876   8.145   4.242   1.189
 9949SOL     OW41877   7.921   4.224   0.191
 9949SOL    HW141878   7.982   4.304   0.195
 9949SOL    HW241879   7.826   4.255   0.198
 9950SOL     OW41880   7.607   4.861   1.466
 9950SOL    HW141881   7.629   4.800   1.542
 9950SOL    HW241882   7.617   4.812   1.380
 9951SOL     OW41883   8.795   4.783   1.234
 9951SOL    HW141884   8.819   4.720   1.160
 9951SOL    HW241885   8.705   4.823   1.216
 9952SOL     OW41886   8.750   4.579   0.309
 9952SOL    HW141887   8.664   4.548   0.351
 9952SOL    HW241888   8.746   4.565   0.210
 9953SOL     OW41889   9.207   5.471   1.154
 9953SOL    HW141890   9.268   5.501   1.081
 9953SOL    HW241891   9.169   5.382   1.132
 9954SOL     OW41892   8.700   5.455   1.128
 9954SOL    HW141893   8.784   5.460   1.074
 9954SOL    HW241894   8.677   5.359   1.146
 9955SOL     OW41895   7.531   4.982   1.022
 9955SOL    HW141896   7.526   4.981   1.122
 9955SOL    HW241897   7.448   4.941   0.984
 9956SOL     OW41898   8.351   3.810   0.133
 9956SOL    HW141899   8.402   3.811   0.047
 9956SOL    HW241900   8.407   3.768   0.204
 9957SOL     OW41901   9.174   3.859   0.523
 9957SOL    HW141902   9.247   3.842   0.456
 9957SOL    HW241903   9.143   3.772   0.561
 9958SOL     OW41904   8.836   5.297   0.477
 9958SOL    HW141905   8.903   5.309   0.403
 9958SOL    HW241906   8.796   5.386   0.500
 9959SOL     OW41907   8.728   4.651   0.672
 9959SOL    HW141908   8.788   4.570   0.674
 9959SOL    HW241909   8.768   4.720   0.612
 9960SOL     OW41910   8.278   4.997   1.422
 9960SOL    HW141911   8.273   5.030   1.517
 9960SOL    HW241912   8.192   5.016   1.376
 9961SOL     OW41913   8.120   5.340   0.154
 9961SOL    HW141914   8.129   5.350   0.055
 9961SOL    HW241915   8.080   5.251   0.175
 9962SOL     OW41916   9.289   3.899   0.963
 9962SOL    HW141917   9.328   3.814   0.927
 9962SOL    HW241918   9.191   3.901   0.944
 9963SOL     OW41919   7.711   4.050   0.720
 9963SOL    HW141920   7.632   4.101   0.686
 9963SOL    HW241921   7.702   4.035   0.818
 9964SOL     OW41922   8.642   5.336   0.031
 9964SOL    HW141923   8.648   5.243   0.068
 9964SOL    HW241924   8.583   5.336  -0.049
 9965SOL     OW41925   8.364   4.634   0.291
 9965SOL    HW141926   8.427   4.672   0.223
 9965SOL    HW241927   8.404   4.551   0.330
 9966SOL     OW41928   8.952   5.331   0.044
 9966SOL    HW141929   8.860   5.368   0.051
 9966SOL    HW241930   8.990   5.351  -0.046
 9967SOL     OW41931   8.487   4.822   0.696
 9967SOL    HW141932   8.417   4.775   0.750
 9967SOL    HW241933   8.546   4.754   0.653
 9968SOL     OW41934   8.462   3.960   0.971
 9968SOL    HW141935   8.454   3.924   0.878
 9968SOL    HW241936   8.460   3.884   1.036
 9969SOL     OW41937   8.038   5.211   0.491
 9969SOL    HW141938   8.080   5.153   0.421
 9969SOL    HW241939   7.994   5.290   0.447
 9970SOL     OW41940   9.157   4.109   1.381
 9970SOL    HW141941   9.230   4.178   1.385
 9970SOL    HW241942   9.185   4.034   1.322
 9971SOL     OW41943   7.703   5.072   0.290
 9971SOL    HW141944   7.607   5.073   0.263
 9971SOL    HW241945   7.715   5.125   0.374
 9972SOL     OW41946   7.553   4.737   1.726
 9972SOL    HW141947   7.476   4.704   1.780
 9972SOL    HW241948   7.638   4.707   1.768
 9973SOL     OW41949   8.120   3.927   1.489
 9973SOL    HW141950   8.210   3.911   1.449
 9973SOL    HW241951   8.128   3.932   1.588
 9974SOL     OW41952   7.520   3.890   0.318
 9974SOL    HW141953   7.503   3.973   0.264
 9974SOL    HW241954   7.610   3.853   0.296
 9975SOL     OW41955   8.631   5.059   0.119
 9975SOL    HW141956   8.532   5.048   0.121
 9975SOL    HW241957   8.665   5.074   0.212
 9976SOL     OW41958   8.061   4.566   1.431
 9976SOL    HW141959   8.117   4.647   1.414
 9976SOL    HW241960   8.120   4.486   1.434
 9977SOL     OW41961   8.941   5.491   0.959
 9977SOL    HW141962   8.974   5.555   0.890
 9977SOL    HW241963   9.007   5.485   1.034
 9978SOL     OW41964   8.673   4.049   0.449
 9978SOL    HW141965   8.738   3.975   0.438
 9978SOL    HW241966   8.693   4.099   0.533
 9979SOL     OW41967   8.042   4.469   0.652
 9979SOL    HW141968   8.092   4.554   0.633
 9979SOL    HW241969   7.954   4.471   0.604
 9980SOL     OW41970   9.178   4.658   1.517
 9980SOL    HW141971   9.216   4.749   1.532
 9980SOL    HW241972   9.170   4.641   1.418
 9981SOL     OW41973   8.307   5.098   0.016
 9981SOL    HW141974   8.261   5.113   0.104
 9981SOL    HW241975   8.351   5.183  -0.014
 9982SOL     OW41976   8.307   4.680   0.861
 9982SOL    HW141977   8.361   4.611   0.909
 9982SOL    HW241978   8.275   4.749   0.927
 9983SOL     OW41979   8.531   4.708   0.087
 9983SOL    HW141980   8.508   4.761   0.005
 9983SOL    HW241981   8.612   4.652   0.068
 9984SOL     OW41982   9.309   5.293   0.851
 9984SOL    HW141983   9.238   5.281   0.781
 9984SOL    HW241984   9.310   5.214   0.911
 9985SOL     OW41985   7.527   4.964   0.653
 9985SOL    HW141986   7.526   4.917   0.741
 9985SOL    HW241987   7.609   4.936   0.602
 9986SOL     OW41988   9.272   3.916   1.227
 9986SOL    HW141989   9.268   3.826   1.271
 9986SOL    HW241990   9.275   3.905   1.128
 9987SOL     OW41991   7.876   4.148   0.520
 9987SOL    HW141992   7.906   4.076   0.458
 9987SOL    HW241993   7.837   4.108   0.603
 9988SOL     OW41994   9.153   5.211   1.104
 9988SOL    HW141995   9.060   5.186   1.077
 9988SOL    HW241996   9.179   5.161   1.186
 9989SOL     OW41997   8.260   5.310   0.687
 9989SOL    HW141998   8.292   5.320   0.593
 9989SOL    HW241999   8.181   5.248   0.689
 9990SOL     OW42000   8.872   3.938   1.112
 9990SOL    HW142001   8.924   3.873   1.167
 9990SOL    HW242002   8.823   4.001   1.173
 9991SOL     OW42003   8.449   3.758   1.154
 9991SOL    HW142004   8.386   3.686   1.123
 9991SOL    HW242005   8.542   3.722   1.154
 9992SOL     OW42006   8.218   5.054   0.301
 9992SOL    HW142007   8.172   4.967   0.318
 9992SOL    HW242008   8.309   5.051   0.342
 9993SOL     OW42009   8.066   5.291   1.284
 9993SOL    HW142010   8.061   5.373   1.341
 9993SOL    HW242011   8.155   5.288   1.239
 9994SOL     OW42012   8.800   3.776   0.168
 9994SOL    HW142013   8.835   3.735   0.084
 9994SOL    HW242014   8.710   3.738   0.188
 9995SOL     OW42015   8.748   4.177   0.691
 9995SOL    HW142016   8.689   4.257   0.695
 9995SOL    HW242017   8.763   4.142   0.784
 9996SOL     OW42018   9.041   3.945   0.882
 9996SOL    HW142019   8.957   3.944   0.936
 9996SOL    HW242020   9.043   4.028   0.826
 9997SOL     OW42021   7.487   4.801   0.300
 9997SOL    HW142022   7.586   4.790   0.291
 9997SOL    HW242023   7.447   4.715   0.332
 9998SOL     OW42024   8.323   5.370   0.337
 9998SOL    HW142025   8.246   5.335   0.283
 9998SOL    HW242026   8.291   5.441   0.399
 9999SOL     OW42027   7.467   4.092   2.509
 9999SOL    HW142028   7.385   4.135   2.548
 9999SOL    HW242029   7.439   4.019   2.446
10000SOL     OW42030   9.003   5.235   2.565
10000SOL    HW142031   8.946   5.219   2.646
10000SOL    HW242032   8.944   5.245   2.485
10001SOL     OW42033   8.134   4.885   3.665
10001SOL    HW142034   8.194   4.964   3.679
10001SOL    HW242035   8.048   4.916   3.624
10002SOL     OW42036   8.908   5.229   3.201
10002SOL    HW142037   8.932   5.323   3.227
10002SOL    HW242038   8.892   5.175   3.283
10003SOL     OW42039   9.051   4.171   2.599
10003SOL    HW142040   8.977   4.217   2.549
10003SOL    HW242041   9.102   4.239   2.652
10004SOL     OW42042   7.679   5.437   2.345
10004SOL    HW142043   7.713   5.514   2.399
10004SOL    HW242044   7.723   5.437   2.255
10005SOL     OW42045   8.575   5.065   3.552
10005SOL    HW142046   8.622   5.065   3.640
10005SOL    HW242047   8.527   4.978   3.541
10006SOL     OW42048   8.068   5.510   3.301
10006SOL    HW142049   7.976   5.493   3.336
10006SOL    HW242050   8.096   5.602   3.327
10007SOL     OW42051   8.054   4.688   1.985
10007SOL    HW142052   8.061   4.772   1.931
10007SOL    HW242053   8.100   4.701   2.073
10008SOL     OW42054   7.561   4.461   3.459
10008SOL    HW142055   7.649   4.448   3.504
10008SOL    HW242056   7.548   4.558   3.437
10009SOL     OW42057   8.741   4.952   3.285
10009SOL    HW142058   8.778   4.879   3.227
10009SOL    HW242059   8.793   4.957   3.370
10010SOL     OW42060   8.635   5.516   3.478
10010SOL    HW142061   8.659   5.576   3.402
10010SOL    HW242062   8.642   5.421   3.448
10011SOL     OW42063   9.115   5.438   2.434
10011SOL    HW142064   9.074   5.415   2.346
10011SOL    HW242065   9.097   5.364   2.499
10012SOL     OW42066   8.421   4.614   3.434
10012SOL    HW142067   8.467   4.530   3.405
10012SOL    HW242068   8.365   4.648   3.359
10013SOL     OW42069   7.524   4.535   2.651
10013SOL    HW142070   7.623   4.523   2.660
10013SOL    HW242071   7.500   4.630   2.672
10014SOL     OW42072   8.313   4.072   2.057
10014SOL    HW142073   8.372   4.135   2.008
10014SOL    HW242074   8.332   3.978   2.028
10015SOL     OW42075   7.650   4.009   3.360
10015SOL    HW142076   7.570   4.069   3.347
10015SOL    HW242077   7.640   3.960   3.446
10016SOL     OW42078   8.848   3.831   2.288
10016SOL    HW142079   8.824   3.794   2.198
10016SOL    HW242080   8.947   3.847   2.292
10017SOL     OW42081   7.697   5.509   3.103
10017SOL    HW142082   7.754   5.444   3.153
10017SOL    HW242083   7.681   5.476   3.010
10018SOL     OW42084   8.995   3.946   3.591
10018SOL    HW142085   8.990   3.983   3.683
10018SOL    HW242086   8.923   3.877   3.579
10019SOL     OW42087   8.062   3.846   1.979
10019SOL    HW142088   8.160   3.824   1.986
10019SOL    HW242089   8.031   3.829   1.886
10020SOL     OW42090   8.799   4.314   3.295
10020SOL    HW142091   8.827   4.271   3.380
10020SOL    HW242092   8.824   4.410   3.296
10021SOL     OW42093   7.987   3.788   2.374
10021SOL    HW142094   7.906   3.789   2.432
10021SOL    HW242095   7.990   3.871   2.319
10022SOL     OW42096   7.745   3.759   2.033
10022SOL    HW142097   7.794   3.843   2.012
10022SOL    HW242098   7.807   3.694   2.078
10023SOL     OW42099   8.524   4.407   3.326
10023SOL    HW142100   8.444   4.346   3.329
10023SOL    HW242101   8.605   4.354   3.302
10024SOL     OW42102   8.675   5.294   2.655
10024SOL    HW142103   8.696   5.368   2.590
10024SOL    HW242104   8.743   5.294   2.728
10025SOL     OW42105   7.907   4.876   2.603
10025SOL    HW142106   7.836   4.849   2.668
10025SOL    HW242107   7.881   4.848   2.510
10026SOL     OW42108   8.480   4.273   1.878
10026SOL    HW142109   8.439   4.355   1.839
10026SOL    HW242110   8.544   4.299   1.951
10027SOL     OW42111   8.838   4.299   1.940
10027SOL    HW142112   8.784   4.278   2.021
10027SOL    HW242113   8.929   4.258   1.949
10028SOL     OW42114   7.975   3.980   2.190
10028SOL    HW142115   8.002   3.921   2.115
10028SOL    HW242116   7.975   4.075   2.159
10029SOL     OW42117   9.202   4.947   3.450
10029SOL    HW142118   9.293   4.908   3.437
10029SOL    HW242119   9.210   5.043   3.474
10030SOL     OW42120   8.559   4.919   2.962
10030SOL    HW142121   8.519   4.963   3.043
10030SOL    HW242122   8.518   4.956   2.879
10031SOL     OW42123   8.428   4.840   3.581
10031SOL    HW142124   8.329   4.846   3.591
10031SOL    HW242125   8.451   4.760   3.525
10032SOL     OW42126   7.512   5.288   3.193
10032SOL    HW142127   7.466   5.370   3.159
10032SOL    HW242128   7.610   5.307   3.202
10033SOL     OW42129   8.014   4.261   2.727
10033SOL    HW142130   8.026   4.327   2.653
10033SOL    HW242131   8.060   4.295   2.810
10034SOL     OW42132   8.700   5.072   2.250
10034SOL    HW142133   8.750   5.149   2.290
10034SOL    HW242134   8.605   5.074   2.282
10035SOL     OW42135   7.850   4.475   3.460
10035SOL    HW142136   7.918   4.530   3.413
10035SOL    HW242137   7.890   4.387   3.487
10036SOL     OW42138   8.461   3.829   3.632
10036SOL    HW142139   8.467   3.914   3.580
10036SOL    HW242140   8.493   3.753   3.575
10037SOL     OW42141   8.428   5.297   3.562
10037SOL    HW142142   8.408   5.341   3.474
10037SOL    HW242143   8.467   5.206   3.546
10038SOL     OW42144   8.751   4.562   1.904
10038SOL    HW142145   8.785   4.469   1.919
10038SOL    HW242146   8.769   4.589   1.809
10039SOL     OW42147   7.787   4.233   2.868
10039SOL    HW142148   7.735   4.150   2.851
10039SOL    HW242149   7.864   4.238   2.804
10040SOL     OW42150   7.700   5.288   3.606
10040SOL    HW142151   7.670   5.345   3.682
10040SOL    HW242152   7.693   5.191   3.632
10041SOL     OW42153   7.921   4.224   2.053
10041SOL    HW142154   7.982   4.304   2.057
10041SOL    HW242155   7.826   4.255   2.060
10042SOL     OW42156   8.700   5.455   2.990
10042SOL    HW142157   8.784   5.460   2.936
10042SOL    HW242158   8.677   5.359   3.008
10043SOL     OW42159   7.531   4.982   2.884
10043SOL    HW142160   7.526   4.981   2.984
10043SOL    HW242161   7.448   4.941   2.846
10044SOL     OW42162   8.120   5.340   2.016
10044SOL    HW142163   8.129   5.350   1.917
10044SOL    HW242164   8.080   5.251   2.037
10045SOL     OW42165   9.098   5.444   3.256
10045SOL    HW142166   9.151   5.454   3.172
10045SOL    HW242167   9.071   5.534   3.290
10046SOL     OW42168   8.642   5.336   1.893
10046SOL    HW142169   8.648   5.243   1.930
10046SOL    HW242170   8.583   5.336   1.813
10047SOL     OW42171   8.270   4.726   3.234
10047SOL    HW142172   8.310   4.725   3.142
10047SOL    HW242173   8.280   4.818   3.274
10048SOL     OW42174   8.487   4.822   2.558
10048SOL    HW142175   8.417   4.775   2.612
10048SOL    HW242176   8.546   4.754   2.515
10049SOL     OW42177   8.462   3.960   2.833
10049SOL    HW142178   8.454   3.924   2.740
10049SOL    HW242179   8.460   3.884   2.898
10050SOL     OW42180   9.157   4.109   3.243
10050SOL    HW142181   9.230   4.178   3.247
10050SOL    HW242182   9.185   4.034   3.184
10051SOL     OW42183   7.703   5.072   2.152
10051SOL    HW142184   7.607   5.073   2.125
10051SOL    HW242185   7.715   5.125   2.236
10052SOL     OW42186   7.553   4.737   3.588
10052SOL    HW142187   7.476   4.704   3.642
10052SOL    HW242188   7.638   4.707   3.630
10053SOL     OW42189   8.120   3.927   3.351
10053SOL    HW142190   8.210   3.911   3.311
10053SOL    HW242191   8.128   3.932   3.450
10054SOL     OW42192   7.523   4.069   1.895
10054SOL    HW142193   7.431   4.041   1.866
10054SOL    HW242194   7.554   4.146   1.839
10055SOL     OW42195   8.888   4.580   3.260
10055SOL    HW142196   8.831   4.632   3.197
10055SOL    HW242197   8.984   4.592   3.236
10056SOL     OW42198   7.520   3.890   2.180
10056SOL    HW142199   7.503   3.973   2.126
10056SOL    HW242200   7.610   3.853   2.158
10057SOL     OW42201   8.061   4.566   3.293
10057SOL    HW142202   8.117   4.647   3.276
10057SOL    HW242203   8.120   4.486   3.296
10058SOL     OW42204   8.164   4.289   3.570
10058SOL    HW142205   8.183   4.354   3.644
10058SOL    HW242206   8.224   4.209   3.579
10059SOL     OW42207   7.669   5.038   3.706
10059SOL    HW142208   7.604   4.965   3.685
10059SOL    HW242209   7.673   5.052   3.804
10060SOL     OW42210   8.120   5.115   3.486
10060SOL    HW142211   8.042   5.065   3.524
10060SOL    HW242212   8.117   5.210   3.517
10061SOL     OW42213   7.876   4.148   2.382
10061SOL    HW142214   7.906   4.076   2.320
10061SOL    HW242215   7.837   4.108   2.465
10062SOL     OW42216   9.153   5.211   2.966
10062SOL    HW142217   9.060   5.186   2.939
10062SOL    HW242218   9.179   5.161   3.048
10063SOL     OW42219   7.487   4.801   2.162
10063SOL    HW142220   7.586   4.790   2.153
10063SOL    HW242221   7.447   4.715   2.194
10064SOL     OW42222   7.678   4.352   3.837
10064SOL    HW142223   7.585   4.350   3.874
10064SOL    HW242224   7.679   4.313   3.745
10065SOL     OW42225   8.133   4.736   4.389
10065SOL    HW142226   8.202   4.720   4.459
10065SOL    HW242227   8.060   4.793   4.427
10066SOL     OW42228   8.134   4.885   5.527
10066SOL    HW142229   8.194   4.964   5.541
10066SOL    HW242230   8.048   4.916   5.486
10067SOL     OW42231   8.575   5.065   5.414
10067SOL    HW142232   8.622   5.065   5.502
10067SOL    HW242233   8.527   4.978   5.403
10068SOL     OW42234   7.678   5.158   4.262
10068SOL    HW142235   7.652   5.254   4.262
10068SOL    HW242236   7.607   5.104   4.307
10069SOL     OW42237   8.068   5.510   5.163
10069SOL    HW142238   7.976   5.493   5.198
10069SOL    HW242239   8.096   5.602   5.189
10070SOL     OW42240   9.290   5.491   4.083
10070SOL    HW142241   9.344   5.462   4.163
10070SOL    HW242242   9.320   5.581   4.054
10071SOL     OW42243   9.089   4.832   4.156
10071SOL    HW142244   9.175   4.834   4.104
10071SOL    HW242245   9.103   4.879   4.244
10072SOL     OW42246   8.741   4.952   5.147
10072SOL    HW142247   8.778   4.879   5.089
10072SOL    HW242248   8.793   4.957   5.232
10073SOL     OW42249   8.914   5.141   4.677
10073SOL    HW142250   8.855   5.147   4.757
10073SOL    HW242251   8.899   5.053   4.631
10074SOL     OW42252   8.046   4.453   3.994
10074SOL    HW142253   8.070   4.522   3.926
10074SOL    HW242254   7.968   4.486   4.048
10075SOL     OW42255   8.729   4.069   4.668
10075SOL    HW142256   8.643   4.019   4.655
10075SOL    HW242257   8.791   4.015   4.724
10076SOL     OW42258   9.024   5.386   4.031
10076SOL    HW142259   9.113   5.432   4.034
10076SOL    HW242260   9.003   5.362   3.936
10077SOL     OW42261   7.524   4.535   4.513
10077SOL    HW142262   7.623   4.523   4.522
10077SOL    HW242263   7.500   4.630   4.534
10078SOL     OW42264   7.578   5.545   5.295
10078SOL    HW142265   7.568   5.530   5.394
10078SOL    HW242266   7.492   5.581   5.259
10079SOL     OW42267   8.313   4.072   3.919
10079SOL    HW142268   8.372   4.135   3.870
10079SOL    HW242269   8.332   3.978   3.890
10080SOL     OW42270   8.810   4.868   4.269
10080SOL    HW142271   8.893   4.839   4.221
10080SOL    HW242272   8.761   4.935   4.213
10081SOL     OW42273   8.675   5.274   5.230
10081SOL    HW142274   8.681   5.197   5.294
10081SOL    HW242275   8.623   5.248   5.150
10082SOL     OW42276   7.912   5.467   4.047
10082SOL    HW142277   7.945   5.506   4.133
10082SOL    HW242278   7.988   5.460   3.982
10083SOL     OW42279   8.848   3.831   4.150
10083SOL    HW142280   8.824   3.794   4.060
10083SOL    HW242281   8.947   3.847   4.154
10084SOL     OW42282   8.229   3.988   5.473
10084SOL    HW142283   8.296   3.927   5.516
10084SOL    HW242284   8.156   4.007   5.538
10085SOL     OW42285   8.251   5.126   4.648
10085SOL    HW142286   8.341   5.140   4.606
10085SOL    HW242287   8.180   5.128   4.577
10086SOL     OW42288   8.314   4.178   4.366
10086SOL    HW142289   8.282   4.250   4.304
10086SOL    HW242290   8.338   4.097   4.313
10087SOL     OW42291   8.465   3.763   4.477
10087SOL    HW142292   8.393   3.768   4.408
10087SOL    HW242293   8.441   3.694   4.546
10088SOL     OW42294   7.936   5.109   3.898
10088SOL    HW142295   7.849   5.094   3.945
10088SOL    HW242296   7.919   5.135   3.803
10089SOL     OW42297   9.202   4.947   5.312
10089SOL    HW142298   9.293   4.908   5.299
10089SOL    HW242299   9.210   5.043   5.336
10090SOL     OW42300   8.363   3.813   5.126
10090SOL    HW142301   8.388   3.793   5.031
10090SOL    HW242302   8.435   3.869   5.168
10091SOL     OW42303   8.428   4.840   5.443
10091SOL    HW142304   8.329   4.846   5.453
10091SOL    HW242305   8.451   4.760   5.387
10092SOL     OW42306   7.858   4.537   4.975
10092SOL    HW142307   7.944   4.549   5.025
10092SOL    HW242308   7.816   4.450   5.002
10093SOL     OW42309   7.512   5.288   5.055
10093SOL    HW142310   7.466   5.370   5.021
10093SOL    HW242311   7.610   5.307   5.064
10094SOL     OW42312   7.850   4.475   5.322
10094SOL    HW142313   7.918   4.530   5.275
10094SOL    HW242314   7.890   4.387   5.349
10095SOL     OW42315   8.021   4.594   4.753
10095SOL    HW142316   8.065   4.683   4.744
10095SOL    HW242317   7.958   4.594   4.830
10096SOL     OW42318   8.657   4.249   3.999
10096SOL    HW142319   8.670   4.165   4.053
10096SOL    HW242320   8.628   4.323   4.059
10097SOL     OW42321   7.485   5.034   5.006
10097SOL    HW142322   7.538   4.985   5.074
10097SOL    HW242323   7.507   5.132   5.011
10098SOL     OW42324   7.755   3.787   4.342
10098SOL    HW142325   7.744   3.881   4.375
10098SOL    HW242326   7.750   3.724   4.419
10099SOL     OW42327   9.070   4.091   4.098
10099SOL    HW142328   9.072   4.015   4.162
10099SOL    HW242329   9.022   4.168   4.138
10100SOL     OW42330   8.428   5.297   5.424
10100SOL    HW142331   8.408   5.341   5.336
10100SOL    HW242332   8.467   5.206   5.408
10101SOL     OW42333   8.988   3.998   3.849
10101SOL    HW142334   8.927   3.923   3.872
10101SOL    HW242335   9.010   4.050   3.932
10102SOL     OW42336   8.751   4.562   3.766
10102SOL    HW142337   8.785   4.469   3.781
10102SOL    HW242338   8.769   4.589   3.671
10103SOL     OW42339   7.767   4.534   4.673
10103SOL    HW142340   7.860   4.570   4.678
10103SOL    HW242341   7.761   4.449   4.725
10104SOL     OW42342   8.586   4.104   5.402
10104SOL    HW142343   8.541   4.167   5.466
10104SOL    HW242344   8.679   4.135   5.385
10105SOL     OW42345   7.536   5.525   4.651
10105SOL    HW142346   7.494   5.439   4.624
10105SOL    HW242347   7.630   5.528   4.617
10106SOL     OW42348   7.637   4.244   5.446
10106SOL    HW142349   7.696   4.204   5.376
10106SOL    HW242350   7.579   4.315   5.405
10107SOL     OW42351   8.817   4.674   5.384
10107SOL    HW142352   8.856   4.763   5.404
10107SOL    HW242353   8.827   4.654   5.287
10108SOL     OW42354   8.263   4.296   4.049
10108SOL    HW142355   8.270   4.207   4.003
10108SOL    HW242356   8.169   4.330   4.041
10109SOL     OW42357   7.700   5.288   5.468
10109SOL    HW142358   7.670   5.345   5.544
10109SOL    HW242359   7.693   5.191   5.494
10110SOL     OW42360   8.795   4.783   4.958
10110SOL    HW142361   8.819   4.720   4.884
10110SOL    HW242362   8.705   4.823   4.940
10111SOL     OW42363   8.750   4.579   4.033
10111SOL    HW142364   8.664   4.548   4.075
10111SOL    HW242365   8.746   4.565   3.934
10112SOL     OW42366   7.531   4.982   4.746
10112SOL    HW142367   7.526   4.981   4.846
10112SOL    HW242368   7.448   4.941   4.708
10113SOL     OW42369   7.578   5.518   5.575
10113SOL    HW142370   7.537   5.444   5.628
10113SOL    HW242371   7.642   5.569   5.633
10114SOL     OW42372   8.278   4.997   5.146
10114SOL    HW142373   8.273   5.030   5.241
10114SOL    HW242374   8.192   5.016   5.100
10115SOL     OW42375   7.711   4.050   4.444
10115SOL    HW142376   7.632   4.101   4.410
10115SOL    HW242377   7.702   4.035   4.542
10116SOL     OW42378   8.642   5.336   3.755
10116SOL    HW142379   8.648   5.243   3.792
10116SOL    HW242380   8.583   5.336   3.675
10117SOL     OW42381   8.952   5.331   3.768
10117SOL    HW142382   8.860   5.368   3.775
10117SOL    HW242383   8.990   5.351   3.678
10118SOL     OW42384   7.703   5.072   4.014
10118SOL    HW142385   7.607   5.073   3.987
10118SOL    HW242386   7.715   5.125   4.098
10119SOL     OW42387   7.523   4.069   3.757
10119SOL    HW142388   7.431   4.041   3.728
10119SOL    HW242389   7.554   4.146   3.701
10120SOL     OW42390   8.941   5.491   4.683
10120SOL    HW142391   8.974   5.555   4.614
10120SOL    HW242392   9.007   5.485   4.758
10121SOL     OW42393   8.898   4.944   5.357
10121SOL    HW142394   8.889   4.934   5.456
10121SOL    HW242395   8.994   4.937   5.331
10122SOL     OW42396   7.838   5.465   5.284
10122SOL    HW142397   7.747   5.506   5.282
10122SOL    HW242398   7.831   5.371   5.316
10123SOL     OW42399   9.178   4.658   5.241
10123SOL    HW142400   9.216   4.749   5.256
10123SOL    HW242401   9.170   4.641   5.142
10124SOL     OW42402   8.531   4.708   3.811
10124SOL    HW142403   8.508   4.761   3.729
10124SOL    HW242404   8.612   4.652   3.792
10125SOL     OW42405   8.120   5.115   5.348
10125SOL    HW142406   8.042   5.065   5.386
10125SOL    HW242407   8.117   5.210   5.379
10126SOL     OW42408   8.260   5.310   4.411
10126SOL    HW142409   8.292   5.320   4.317
10126SOL    HW242410   8.181   5.248   4.413
10127SOL     OW42411   8.449   3.758   4.878
10127SOL    HW142412   8.386   3.686   4.847
10127SOL    HW242413   8.542   3.722   4.878
10128SOL     OW42414   8.748   4.177   4.415
10128SOL    HW142415   8.689   4.257   4.419
10128SOL    HW242416   8.763   4.142   4.508
10129SOL     OW42417   9.041   3.945   4.606
10129SOL    HW142418   8.957   3.944   4.660
10129SOL    HW242419   9.043   4.028   4.550
10130SOL     OW42420   7.673   3.999   6.582
10130SOL    HW142421   7.708   3.982   6.674
10130SOL    HW242422   7.585   3.954   6.570
10131SOL     OW42423   7.467   4.092   6.233
10131SOL    HW142424   7.385   4.135   6.272
10131SOL    HW242425   7.439   4.019   6.170
10132SOL     OW42426   8.017   4.999   6.751
10132SOL    HW142427   7.924   4.992   6.714
10132SOL    HW242428   8.028   5.088   6.795
10133SOL     OW42429   9.003   5.235   6.289
10133SOL    HW142430   8.946   5.219   6.370
10133SOL    HW242431   8.944   5.245   6.209
10134SOL     OW42432   8.583   4.427   6.303
10134SOL    HW142433   8.640   4.505   6.278
10134SOL    HW242434   8.523   4.453   6.379
10135SOL     OW42435   9.203   4.331   5.817
10135SOL    HW142436   9.191   4.318   5.718
10135SOL    HW242437   9.173   4.250   5.866
10136SOL     OW42438   8.216   4.868   6.609
10136SOL    HW142439   8.138   4.885   6.669
10136SOL    HW242440   8.250   4.955   6.573
10137SOL     OW42441   8.133   4.736   6.251
10137SOL    HW142442   8.202   4.720   6.321
10137SOL    HW242443   8.060   4.793   6.289
10138SOL     OW42444   7.783   5.159   6.647
10138SOL    HW142445   7.705   5.128   6.594
10138SOL    HW242446   7.841   5.217   6.590
10139SOL     OW42447   8.908   5.229   6.925
10139SOL    HW142448   8.932   5.323   6.951
10139SOL    HW242449   8.892   5.175   7.007
10140SOL     OW42450   7.886   4.116   7.085
10140SOL    HW142451   7.968   4.060   7.094
10140SOL    HW242452   7.805   4.058   7.089
10141SOL     OW42453   9.051   4.171   6.323
10141SOL    HW142454   8.977   4.217   6.273
10141SOL    HW242455   9.102   4.239   6.376
10142SOL     OW42456   7.679   5.437   6.069
10142SOL    HW142457   7.713   5.514   6.123
10142SOL    HW242458   7.723   5.437   5.979
10143SOL     OW42459   7.678   5.158   6.124
10143SOL    HW142460   7.652   5.254   6.124
10143SOL    HW242461   7.607   5.104   6.169
10144SOL     OW42462   7.688   4.815   6.472
10144SOL    HW142463   7.702   4.731   6.524
10144SOL    HW242464   7.633   4.879   6.527
10145SOL     OW42465   8.068   5.510   7.025
10145SOL    HW142466   7.976   5.493   7.060
10145SOL    HW242467   8.096   5.602   7.051
10146SOL     OW42468   8.054   4.688   5.709
10146SOL    HW142469   8.061   4.772   5.655
10146SOL    HW242470   8.100   4.701   5.797
10147SOL     OW42471   9.042   3.838   7.066
10147SOL    HW142472   9.024   3.905   6.994
10147SOL    HW242473   9.039   3.884   7.155
10148SOL     OW42474   7.570   4.367   6.149
10148SOL    HW142475   7.525   4.279   6.166
10148SOL    HW242476   7.569   4.421   6.233
10149SOL     OW42477   9.290   5.491   5.945
10149SOL    HW142478   9.344   5.462   6.025
10149SOL    HW242479   9.320   5.581   5.916
10150SOL     OW42480   7.475   5.320   5.703
10150SOL    HW142481   7.456   5.224   5.724
10150SOL    HW242482   7.442   5.378   5.778
10151SOL     OW42483   9.137   4.646   6.198
10151SOL    HW142484   9.232   4.617   6.206
10151SOL    HW242485   9.129   4.711   6.123
10152SOL     OW42486   9.089   4.832   6.018
10152SOL    HW142487   9.175   4.834   5.966
10152SOL    HW242488   9.103   4.879   6.106
10153SOL     OW42489   8.061   5.089   6.312
10153SOL    HW142490   8.012   5.002   6.321
10153SOL    HW242491   8.038   5.132   6.225
10154SOL     OW42492   8.257   3.728   6.088
10154SOL    HW142493   8.297   3.819   6.079
10154SOL    HW242494   8.157   3.736   6.094
10155SOL     OW42495   7.645   4.700   6.850
10155SOL    HW142496   7.734   4.655   6.836
10155SOL    HW242497   7.572   4.635   6.831
10156SOL     OW42498   8.914   5.141   6.539
10156SOL    HW142499   8.855   5.147   6.619
10156SOL    HW242500   8.899   5.053   6.493
10157SOL     OW42501   9.115   5.438   6.158
10157SOL    HW142502   9.074   5.415   6.070
10157SOL    HW242503   9.097   5.364   6.223
10158SOL     OW42504   8.046   4.453   5.856
10158SOL    HW142505   8.070   4.522   5.788
10158SOL    HW242506   7.968   4.486   5.910
10159SOL     OW42507   8.729   4.069   6.530
10159SOL    HW142508   8.643   4.019   6.517
10159SOL    HW242509   8.791   4.015   6.586
10160SOL     OW42510   9.024   5.386   5.893
10160SOL    HW142511   9.113   5.432   5.896
10160SOL    HW242512   9.003   5.362   5.798
10161SOL     OW42513   8.255   4.329   7.051
10161SOL    HW142514   8.208   4.326   7.140
10161SOL    HW242515   8.204   4.274   6.985
10162SOL     OW42516   8.439   4.134   6.828
10162SOL    HW142517   8.362   4.168   6.882
10162SOL    HW242518   8.405   4.083   6.749
10163SOL     OW42519   8.489   4.425   6.015
10163SOL    HW142520   8.515   4.421   6.111
10163SOL    HW242521   8.404   4.374   6.001
10164SOL     OW42522   7.524   4.535   6.375
10164SOL    HW142523   7.623   4.523   6.384
10164SOL    HW242524   7.500   4.630   6.396
10165SOL     OW42525   7.578   5.545   7.157
10165SOL    HW142526   7.568   5.530   7.256
10165SOL    HW242527   7.492   5.581   7.121
10166SOL     OW42528   8.313   4.072   5.781
10166SOL    HW142529   8.372   4.135   5.732
10166SOL    HW242530   8.332   3.978   5.752
10167SOL     OW42531   8.810   4.868   6.131
10167SOL    HW142532   8.893   4.839   6.083
10167SOL    HW242533   8.761   4.935   6.075
10168SOL     OW42534   7.998   3.920   6.471
10168SOL    HW142535   7.993   3.915   6.571
10168SOL    HW242536   8.000   4.016   6.442
10169SOL     OW42537   8.456   5.180   6.063
10169SOL    HW142538   8.410   5.252   6.011
10169SOL    HW242539   8.452   5.200   6.161
10170SOL     OW42540   7.799   5.525   6.439
10170SOL    HW142541   7.849   5.439   6.445
10170SOL    HW242542   7.864   5.602   6.436
10171SOL     OW42543   9.243   4.790   6.459
10171SOL    HW142544   9.181   4.775   6.383
10171SOL    HW242545   9.191   4.801   6.544
10172SOL     OW42546   7.769   4.667   5.828
10172SOL    HW142547   7.851   4.706   5.786
10172SOL    HW242548   7.742   4.585   5.779
10173SOL     OW42549   8.906   4.459   6.314
10173SOL    HW142550   8.901   4.394   6.389
10173SOL    HW242551   8.986   4.518   6.327
10174SOL     OW42552   8.559   5.500   5.823
10174SOL    HW142553   8.499   5.438   5.873
10174SOL    HW242554   8.590   5.456   5.738
10175SOL     OW42555   7.650   4.009   7.084
10175SOL    HW142556   7.570   4.069   7.071
10175SOL    HW242557   7.640   3.960   7.170
10176SOL     OW42558   9.080   5.101   5.667
10176SOL    HW142559   9.048   5.195   5.657
10176SOL    HW242560   9.004   5.038   5.655
10177SOL     OW42561   7.912   5.467   5.909
10177SOL    HW142562   7.945   5.506   5.995
10177SOL    HW242563   7.988   5.460   5.844
10178SOL     OW42564   8.848   3.831   6.012
10178SOL    HW142565   8.824   3.794   5.922
10178SOL    HW242566   8.947   3.847   6.016
10179SOL     OW42567   7.697   5.509   6.827
10179SOL    HW142568   7.754   5.444   6.877
10179SOL    HW242569   7.681   5.476   6.734
10180SOL     OW42570   8.388   5.422   6.490
10180SOL    HW142571   8.468   5.365   6.511
10180SOL    HW242572   8.339   5.382   6.413
10181SOL     OW42573   7.830   4.424   6.066
10181SOL    HW142574   7.875   4.334   6.063
10181SOL    HW242575   7.736   4.413   6.099
10182SOL     OW42576   8.062   3.846   5.703
10182SOL    HW142577   8.160   3.824   5.710
10182SOL    HW242578   8.031   3.829   5.610
10183SOL     OW42579   8.336   5.238   6.781
10183SOL    HW142580   8.313   5.213   6.687
10183SOL    HW242581   8.397   5.169   6.820
10184SOL     OW42582   8.251   5.126   6.510
10184SOL    HW142583   8.341   5.140   6.468
10184SOL    HW242584   8.180   5.128   6.439
10185SOL     OW42585   8.370   4.227   6.485
10185SOL    HW142586   8.345   4.218   6.389
10185SOL    HW242587   8.418   4.145   6.516
10186SOL     OW42588   7.987   3.788   6.098
10186SOL    HW142589   7.906   3.789   6.156
10186SOL    HW242590   7.990   3.871   6.043
10187SOL     OW42591   8.383   3.960   6.066
10187SOL    HW142592   8.335   4.001   5.988
10187SOL    HW242593   8.482   3.958   6.047
10188SOL     OW42594   8.675   5.294   6.379
10188SOL    HW142595   8.696   5.368   6.314
10188SOL    HW242596   8.743   5.294   6.452
10189SOL     OW42597   7.907   4.876   6.327
10189SOL    HW142598   7.836   4.849   6.392
10189SOL    HW242599   7.881   4.848   6.234
10190SOL     OW42600   8.719   5.521   6.177
10190SOL    HW142601   8.763   5.585   6.113
10190SOL    HW242602   8.669   5.573   6.247
10191SOL     OW42603   7.526   4.280   6.972
10191SOL    HW142604   7.618   4.279   6.931
10191SOL    HW242605   7.520   4.354   7.039
10192SOL     OW42606   8.009   3.946   6.733
10192SOL    HW142607   8.047   3.862   6.770
10192SOL    HW242608   7.921   3.965   6.777
10193SOL     OW42609   8.314   4.178   6.228
10193SOL    HW142610   8.282   4.250   6.166
10193SOL    HW242611   8.338   4.097   6.175
10194SOL     OW42612   8.465   3.763   6.339
10194SOL    HW142613   8.393   3.768   6.270
10194SOL    HW242614   8.441   3.694   6.408
10195SOL     OW42615   8.877   4.897   6.453
10195SOL    HW142616   8.822   4.813   6.446
10195SOL    HW242617   8.903   4.926   6.361
10196SOL     OW42618   8.914   4.314   6.578
10196SOL    HW142619   8.884   4.219   6.585
10196SOL    HW242620   8.987   4.330   6.644
10197SOL     OW42621   9.305   4.557   5.963
10197SOL    HW142622   9.347   4.493   6.027
10197SOL    HW242623   9.267   4.506   5.885
10198SOL     OW42624   7.936   5.109   5.760
10198SOL    HW142625   7.849   5.094   5.807
10198SOL    HW242626   7.919   5.135   5.665
10199SOL     OW42627   9.112   5.004   6.243
10199SOL    HW142628   9.211   5.012   6.257
10199SOL    HW242629   9.067   5.088   6.274
10200SOL     OW42630   7.975   3.980   5.914
10200SOL    HW142631   8.002   3.921   5.839
10200SOL    HW242632   7.975   4.075   5.883
10201SOL     OW42633   8.512   5.071   6.926
10201SOL    HW142634   8.432   5.048   6.981
10201SOL    HW242635   8.595   5.045   6.975
10202SOL     OW42636   8.559   4.919   6.686
10202SOL    HW142637   8.519   4.963   6.767
10202SOL    HW242638   8.518   4.956   6.603
10203SOL     OW42639   9.086   4.823   6.665
10203SOL    HW142640   9.091   4.904   6.724
10203SOL    HW242641   9.000   4.825   6.614
10204SOL     OW42642   8.363   3.813   6.988
10204SOL    HW142643   8.388   3.793   6.893
10204SOL    HW242644   8.435   3.869   7.030
10205SOL     OW42645   8.153   4.774   5.954
10205SOL    HW142646   8.139   4.781   6.053
10205SOL    HW242647   8.237   4.723   5.936
10206SOL     OW42648   7.858   4.537   6.837
10206SOL    HW142649   7.944   4.549   6.887
10206SOL    HW242650   7.816   4.450   6.864
10207SOL     OW42651   8.722   4.110   6.848
10207SOL    HW142652   8.743   4.184   6.912
10207SOL    HW242653   8.633   4.127   6.805
10208SOL     OW42654   7.512   5.288   6.917
10208SOL    HW142655   7.466   5.370   6.883
10208SOL    HW242656   7.610   5.307   6.926
10209SOL     OW42657   7.815   4.824   6.087
10209SOL    HW142658   7.808   4.907   6.031
10209SOL    HW242659   7.819   4.744   6.027
10210SOL     OW42660   8.014   4.261   6.451
10210SOL    HW142661   8.026   4.327   6.377
10210SOL    HW242662   8.060   4.295   6.534
10211SOL     OW42663   8.700   5.072   5.974
10211SOL    HW142664   8.750   5.149   6.014
10211SOL    HW242665   8.605   5.074   6.006
10212SOL     OW42666   8.720   5.169   6.728
10212SOL    HW142667   8.767   5.182   6.815
10212SOL    HW242668   8.654   5.095   6.737
10213SOL     OW42669   9.030   4.363   6.058
10213SOL    HW142670   8.999   4.424   6.131
10213SOL    HW242671   9.080   4.415   5.989
10214SOL     OW42672   7.802   5.234   6.915
10214SOL    HW142673   7.781   5.190   6.828
10214SOL    HW242674   7.899   5.260   6.918
10215SOL     OW42675   7.850   4.475   7.184
10215SOL    HW142676   7.918   4.530   7.137
10215SOL    HW242677   7.890   4.387   7.211
10216SOL     OW42678   9.035   4.503   7.256
10216SOL    HW142679   8.943   4.541   7.251
10216SOL    HW242680   9.095   4.550   7.191
10217SOL     OW42681   8.021   4.594   6.615
10217SOL    HW142682   8.065   4.683   6.606
10217SOL    HW242683   7.958   4.594   6.692
10218SOL     OW42684   8.808   4.586   6.631
10218SOL    HW142685   8.733   4.586   6.565
10218SOL    HW242686   8.845   4.494   6.640
10219SOL     OW42687   7.755   3.937   6.817
10219SOL    HW142688   7.732   3.974   6.907
10219SOL    HW242689   7.725   3.842   6.811
10220SOL     OW42690   7.485   5.034   6.868
10220SOL    HW142691   7.538   4.985   6.936
10220SOL    HW242692   7.507   5.132   6.873
10221SOL     OW42693   8.180   4.358   6.650
10221SOL    HW142694   8.239   4.332   6.574
10221SOL    HW242695   8.152   4.454   6.639
10222SOL     OW42696   7.755   3.787   6.204
10222SOL    HW142697   7.744   3.881   6.237
10222SOL    HW242698   7.750   3.724   6.281
10223SOL     OW42699   9.070   4.091   5.960
10223SOL    HW142700   9.072   4.015   6.024
10223SOL    HW242701   9.022   4.168   6.000
10224SOL     OW42702   8.471   4.490   6.552
10224SOL    HW142703   8.486   4.511   6.648
10224SOL    HW242704   8.441   4.395   6.543
10225SOL     OW42705   8.428   5.297   7.286
10225SOL    HW142706   8.408   5.341   7.198
10225SOL    HW242707   8.467   5.206   7.270
10226SOL     OW42708   8.988   3.998   5.711
10226SOL    HW142709   8.927   3.923   5.734
10226SOL    HW242710   9.010   4.050   5.794
10227SOL     OW42711   8.516   5.057   6.435
10227SOL    HW142712   8.523   4.973   6.380
10227SOL    HW242713   8.578   5.126   6.399
10228SOL     OW42714   7.767   4.534   6.535
10228SOL    HW142715   7.860   4.570   6.540
10228SOL    HW242716   7.761   4.449   6.587
10229SOL     OW42717   7.787   4.233   6.592
10229SOL    HW142718   7.735   4.150   6.575
10229SOL    HW242719   7.864   4.238   6.528
10230SOL     OW42720   8.586   4.104   7.264
10230SOL    HW142721   8.541   4.167   7.328
10230SOL    HW242722   8.679   4.135   7.247
10231SOL     OW42723   8.608   3.931   7.063
10231SOL    HW142724   8.608   3.995   7.140
10231SOL    HW242725   8.636   3.979   6.980
10232SOL     OW42726   7.536   5.525   6.513
10232SOL    HW142727   7.494   5.439   6.486
10232SOL    HW242728   7.630   5.528   6.479
10233SOL     OW42729   7.952   5.292   6.496
10233SOL    HW142730   8.018   5.366   6.505
10233SOL    HW242731   7.996   5.213   6.454
10234SOL     OW42732   8.450   4.520   6.824
10234SOL    HW142733   8.491   4.488   6.910
10234SOL    HW242734   8.354   4.493   6.821
10235SOL     OW42735   7.488   4.268   6.700
10235SOL    HW142736   7.573   4.235   6.659
10235SOL    HW242737   7.501   4.283   6.798
10236SOL     OW42738   8.263   4.296   5.911
10236SOL    HW142739   8.270   4.207   5.865
10236SOL    HW242740   8.169   4.330   5.903
10237SOL     OW42741   9.105   4.328   6.792
10237SOL    HW142742   9.067   4.259   6.854
10237SOL    HW242743   9.187   4.292   6.748
10238SOL     OW42744   8.119   4.188   6.855
10238SOL    HW142745   8.085   4.099   6.825
10238SOL    HW242746   8.145   4.242   6.775
10239SOL     OW42747   8.378   5.402   7.051
10239SOL    HW142748   8.354   5.384   6.956
10239SOL    HW242749   8.408   5.496   7.061
10240SOL     OW42750   7.607   4.861   7.052
10240SOL    HW142751   7.629   4.800   7.128
10240SOL    HW242752   7.617   4.812   6.966
10241SOL     OW42753   8.795   4.783   6.820
10241SOL    HW142754   8.819   4.720   6.746
10241SOL    HW242755   8.705   4.823   6.802
10242SOL     OW42756   8.750   4.579   5.895
10242SOL    HW142757   8.664   4.548   5.937
10242SOL    HW242758   8.746   4.565   5.796
10243SOL     OW42759   9.207   5.471   6.740
10243SOL    HW142760   9.268   5.501   6.667
10243SOL    HW242761   9.169   5.382   6.718
10244SOL     OW42762   8.700   5.455   6.714
10244SOL    HW142763   8.784   5.460   6.660
10244SOL    HW242764   8.677   5.359   6.732
10245SOL     OW42765   7.531   4.982   6.608
10245SOL    HW142766   7.526   4.981   6.708
10245SOL    HW242767   7.448   4.941   6.570
10246SOL     OW42768   9.174   3.859   6.109
10246SOL    HW142769   9.247   3.842   6.042
10246SOL    HW242770   9.143   3.772   6.147
10247SOL     OW42771   8.836   5.297   6.063
10247SOL    HW142772   8.903   5.309   5.989
10247SOL    HW242773   8.796   5.386   6.086
10248SOL     OW42774   8.728   4.651   6.258
10248SOL    HW142775   8.788   4.570   6.260
10248SOL    HW242776   8.768   4.720   6.198
10249SOL     OW42777   9.098   5.444   6.980
10249SOL    HW142778   9.151   5.454   6.896
10249SOL    HW242779   9.071   5.534   7.014
10250SOL     OW42780   9.289   3.899   6.549
10250SOL    HW142781   9.328   3.814   6.513
10250SOL    HW242782   9.191   3.901   6.530
10251SOL     OW42783   7.711   4.050   6.306
10251SOL    HW142784   7.632   4.101   6.272
10251SOL    HW242785   7.702   4.035   6.404
10252SOL     OW42786   8.642   5.336   5.617
10252SOL    HW142787   8.648   5.243   5.654
10252SOL    HW242788   8.583   5.336   5.537
10253SOL     OW42789   8.270   4.726   6.958
10253SOL    HW142790   8.310   4.725   6.866
10253SOL    HW242791   8.280   4.818   6.998
10254SOL     OW42792   8.364   4.634   5.877
10254SOL    HW142793   8.427   4.672   5.809
10254SOL    HW242794   8.404   4.551   5.916
10255SOL     OW42795   8.952   5.331   5.630
10255SOL    HW142796   8.860   5.368   5.637
10255SOL    HW242797   8.990   5.351   5.540
10256SOL     OW42798   7.820   5.012   7.076
10256SOL    HW142799   7.807   5.105   7.042
10256SOL    HW242800   7.736   4.960   7.063
10257SOL     OW42801   9.062   5.016   6.875
10257SOL    HW142802   9.122   5.019   6.955
10257SOL    HW242803   8.987   5.080   6.888
10258SOL     OW42804   8.487   4.822   6.282
10258SOL    HW142805   8.417   4.775   6.336
10258SOL    HW242806   8.546   4.754   6.239
10259SOL     OW42807   8.462   3.960   6.557
10259SOL    HW142808   8.454   3.924   6.464
10259SOL    HW242809   8.460   3.884   6.622
10260SOL     OW42810   8.038   5.211   6.077
10260SOL    HW142811   8.080   5.153   6.007
10260SOL    HW242812   7.994   5.290   6.033
10261SOL     OW42813   9.157   4.109   6.967
10261SOL    HW142814   9.230   4.178   6.971
10261SOL    HW242815   9.185   4.034   6.908
10262SOL     OW42816   8.888   4.580   6.984
10262SOL    HW142817   8.831   4.632   6.921
10262SOL    HW242818   8.984   4.592   6.960
10263SOL     OW42819   7.520   3.890   5.904
10263SOL    HW142820   7.503   3.973   5.850
10263SOL    HW242821   7.610   3.853   5.882
10264SOL     OW42822   8.631   5.059   5.705
10264SOL    HW142823   8.532   5.048   5.707
10264SOL    HW242824   8.665   5.074   5.798
10265SOL     OW42825   8.061   4.566   7.017
10265SOL    HW142826   8.117   4.647   7.000
10265SOL    HW242827   8.120   4.486   7.020
10266SOL     OW42828   8.941   5.491   6.545
10266SOL    HW142829   8.974   5.555   6.476
10266SOL    HW242830   9.007   5.485   6.620
10267SOL     OW42831   7.838   5.465   7.146
10267SOL    HW142832   7.747   5.506   7.144
10267SOL    HW242833   7.831   5.371   7.178
10268SOL     OW42834   9.122   4.607   6.840
10268SOL    HW142835   9.095   4.518   6.803
10268SOL    HW242836   9.123   4.675   6.767
10269SOL     OW42837   8.673   4.049   6.035
10269SOL    HW142838   8.738   3.975   6.024
10269SOL    HW242839   8.693   4.099   6.119
10270SOL     OW42840   8.042   4.469   6.238
10270SOL    HW142841   8.092   4.554   6.219
10270SOL    HW242842   7.954   4.471   6.190
10271SOL     OW42843   9.225   4.066   7.228
10271SOL    HW142844   9.208   4.097   7.134
10271SOL    HW242845   9.141   4.029   7.266
10272SOL     OW42846   9.178   4.658   7.103
10272SOL    HW142847   9.216   4.749   7.118
10272SOL    HW242848   9.170   4.641   7.004
10273SOL     OW42849   8.307   5.098   5.602
10273SOL    HW142850   8.261   5.113   5.690
10273SOL    HW242851   8.351   5.183   5.572
10274SOL     OW42852   8.109   5.514   6.539
10274SOL    HW142853   8.063   5.602   6.526
10274SOL    HW242854   8.208   5.526   6.532
10275SOL     OW42855   8.307   4.680   6.447
10275SOL    HW142856   8.361   4.611   6.495
10275SOL    HW242857   8.275   4.749   6.513
10276SOL     OW42858   9.309   5.293   6.437
10276SOL    HW142859   9.238   5.281   6.367
10276SOL    HW242860   9.310   5.214   6.497
10277SOL     OW42861   7.527   4.964   6.239
10277SOL    HW142862   7.526   4.917   6.327
10277SOL    HW242863   7.609   4.936   6.188
10278SOL     OW42864   9.272   3.916   6.813
10278SOL    HW142865   9.268   3.826   6.857
10278SOL    HW242866   9.275   3.905   6.714
10279SOL     OW42867   7.876   4.148   6.106
10279SOL    HW142868   7.906   4.076   6.044
10279SOL    HW242869   7.837   4.108   6.189
10280SOL     OW42870   9.153   5.211   6.690
10280SOL    HW142871   9.060   5.186   6.663
10280SOL    HW242872   9.179   5.161   6.772
10281SOL     OW42873   7.765   4.271   6.866
10281SOL    HW142874   7.803   4.212   6.938
10281SOL    HW242875   7.805   4.245   6.778
10282SOL     OW42876   8.260   5.310   6.273
10282SOL    HW142877   8.292   5.320   6.179
10282SOL    HW242878   8.181   5.248   6.275
10283SOL     OW42879   8.872   3.938   6.698
10283SOL    HW142880   8.924   3.873   6.753
10283SOL    HW242881   8.823   4.001   6.759
10284SOL     OW42882   8.449   3.758   6.740
10284SOL    HW142883   8.386   3.686   6.709
10284SOL    HW242884   8.542   3.722   6.740
10285SOL     OW42885   8.218   5.054   5.887
10285SOL    HW142886   8.172   4.967   5.904
10285SOL    HW242887   8.309   5.051   5.928
10286SOL     OW42888   8.066   5.291   6.870
10286SOL    HW142889   8.061   5.373   6.927
10286SOL    HW242890   8.155   5.288   6.825
10287SOL     OW42891   8.800   3.776   5.754
10287SOL    HW142892   8.835   3.735   5.670
10287SOL    HW242893   8.710   3.738   5.774
10288SOL     OW42894   8.748   4.177   6.277
10288SOL    HW142895   8.689   4.257   6.281
10288SOL    HW242896   8.763   4.142   6.370
10289SOL     OW42897   9.041   3.945   6.468
10289SOL    HW142898   8.957   3.944   6.522
10289SOL    HW242899   9.043   4.028   6.412
10290SOL     OW42900   7.487   4.801   5.886
10290SOL    HW142901   7.586   4.790   5.877
10290SOL    HW242902   7.447   4.715   5.918
10291SOL     OW42903   8.323   5.370   5.923
10291SOL    HW142904   8.246   5.335   5.869
10291SOL    HW242905   8.291   5.441   5.985
10292SOL     OW42906   7.678   6.214   0.113
10292SOL    HW142907   7.585   6.212   0.150
10292SOL    HW242908   7.679   6.175   0.021
10293SOL     OW42909   7.673   5.861   0.996
10293SOL    HW142910   7.708   5.844   1.088
10293SOL    HW242911   7.585   5.816   0.984
10294SOL     OW42912   7.467   5.954   0.647
10294SOL    HW142913   7.385   5.997   0.686
10294SOL    HW242914   7.439   5.881   0.584
10295SOL     OW42915   8.017   6.861   1.165
10295SOL    HW142916   7.924   6.854   1.128
10295SOL    HW242917   8.028   6.950   1.209
10296SOL     OW42918   9.003   7.097   0.703
10296SOL    HW142919   8.946   7.081   0.784
10296SOL    HW242920   8.944   7.107   0.623
10297SOL     OW42921   8.583   6.289   0.717
10297SOL    HW142922   8.640   6.367   0.692
10297SOL    HW242923   8.523   6.315   0.793
10298SOL     OW42924   9.203   6.193   0.231
10298SOL    HW142925   9.191   6.180   0.132
10298SOL    HW242926   9.173   6.112   0.280
10299SOL     OW42927   8.216   6.730   1.023
10299SOL    HW142928   8.138   6.747   1.083
10299SOL    HW242929   8.250   6.817   0.987
10300SOL     OW42930   8.298   6.384   1.823
10300SOL    HW142931   8.294   6.460   1.888
10300SOL    HW242932   8.320   6.420   1.732
10301SOL     OW42933   8.133   6.598   0.665
10301SOL    HW142934   8.202   6.582   0.735
10301SOL    HW242935   8.060   6.655   0.703
10302SOL     OW42936   8.134   6.747   1.803
10302SOL    HW142937   8.194   6.826   1.817
10302SOL    HW242938   8.048   6.778   1.762
10303SOL     OW42939   7.783   7.021   1.061
10303SOL    HW142940   7.705   6.990   1.008
10303SOL    HW242941   7.841   7.079   1.004
10304SOL     OW42942   8.908   7.091   1.339
10304SOL    HW142943   8.932   7.185   1.365
10304SOL    HW242944   8.892   7.037   1.421
10305SOL     OW42945   7.679   7.299   0.483
10305SOL    HW142946   7.713   7.376   0.537
10305SOL    HW242947   7.723   7.299   0.393
10306SOL     OW42948   8.575   6.927   1.690
10306SOL    HW142949   8.622   6.927   1.778
10306SOL    HW242950   8.527   6.840   1.679
10307SOL     OW42951   7.678   7.020   0.538
10307SOL    HW142952   7.652   7.116   0.538
10307SOL    HW242953   7.607   6.966   0.583
10308SOL     OW42954   7.688   6.677   0.886
10308SOL    HW142955   7.702   6.593   0.938
10308SOL    HW242956   7.633   6.741   0.941
10309SOL     OW42957   8.054   6.550   0.123
10309SOL    HW142958   8.061   6.634   0.069
10309SOL    HW242959   8.100   6.563   0.211
10310SOL     OW42960   7.570   6.229   0.563
10310SOL    HW142961   7.525   6.141   0.580
10310SOL    HW242962   7.569   6.283   0.647
10311SOL     OW42963   9.290   7.353   0.359
10311SOL    HW142964   9.344   7.324   0.439
10311SOL    HW242965   9.320   7.443   0.330
10312SOL     OW42966   7.475   7.182   0.117
10312SOL    HW142967   7.456   7.086   0.138
10312SOL    HW242968   7.442   7.240   0.192
10313SOL     OW42969   9.137   6.508   0.612
10313SOL    HW142970   9.232   6.479   0.620
10313SOL    HW242971   9.129   6.573   0.537
10314SOL     OW42972   9.089   6.694   0.432
10314SOL    HW142973   9.175   6.696   0.380
10314SOL    HW242974   9.103   6.741   0.520
10315SOL     OW42975   8.061   6.951   0.726
10315SOL    HW142976   8.012   6.864   0.735
10315SOL    HW242977   8.038   6.994   0.639
10316SOL     OW42978   8.257   5.590   0.502
10316SOL    HW142979   8.297   5.681   0.493
10316SOL    HW242980   8.157   5.598   0.508
10317SOL     OW42981   7.645   6.562   1.264
10317SOL    HW142982   7.734   6.517   1.250
10317SOL    HW242983   7.572   6.497   1.245
10318SOL     OW42984   8.973   6.585   0.190
10318SOL    HW142985   8.910   6.509   0.203
10318SOL    HW242986   9.021   6.603   0.276
10319SOL     OW42987   8.635   7.378   1.616
10319SOL    HW142988   8.659   7.438   1.540
10319SOL    HW242989   8.642   7.283   1.586
10320SOL     OW42990   8.914   7.003   0.953
10320SOL    HW142991   8.855   7.009   1.033
10320SOL    HW242992   8.899   6.915   0.907
10321SOL     OW42993   9.115   7.300   0.572
10321SOL    HW142994   9.074   7.277   0.484
10321SOL    HW242995   9.097   7.226   0.637
10322SOL     OW42996   8.046   6.315   0.270
10322SOL    HW142997   8.070   6.384   0.202
10322SOL    HW242998   7.968   6.348   0.324
10323SOL     OW42999   8.729   5.931   0.944
10323SOL    HW143000   8.643   5.881   0.931
10323SOL    HW243001   8.791   5.877   1.000
10324SOL     OW43002   9.024   7.248   0.307
10324SOL    HW143003   9.113   7.294   0.310
10324SOL    HW243004   9.003   7.224   0.212
10325SOL     OW43005   8.421   6.476   1.572
10325SOL    HW143006   8.467   6.392   1.543
10325SOL    HW243007   8.365   6.510   1.497
10326SOL     OW43008   8.439   5.996   1.242
10326SOL    HW143009   8.362   6.030   1.296
10326SOL    HW243010   8.405   5.945   1.163
10327SOL     OW43011   8.489   6.287   0.429
10327SOL    HW143012   8.515   6.283   0.525
10327SOL    HW243013   8.404   6.236   0.415
10328SOL     OW43014   7.524   6.397   0.789
10328SOL    HW143015   7.623   6.385   0.798
10328SOL    HW243016   7.500   6.492   0.810
10329SOL     OW43017   8.313   5.934   0.195
10329SOL    HW143018   8.372   5.997   0.146
10329SOL    HW243019   8.332   5.840   0.166
10330SOL     OW43020   8.810   6.730   0.545
10330SOL    HW143021   8.893   6.701   0.497
10330SOL    HW243022   8.761   6.797   0.489
10331SOL     OW43023   7.998   5.782   0.885
10331SOL    HW143024   7.993   5.777   0.985
10331SOL    HW243025   8.000   5.878   0.856
10332SOL     OW43026   8.456   7.042   0.477
10332SOL    HW143027   8.410   7.114   0.425
10332SOL    HW243028   8.452   7.062   0.575
10333SOL     OW43029   7.799   7.387   0.853
10333SOL    HW143030   7.849   7.301   0.859
10333SOL    HW243031   7.864   7.464   0.850
10334SOL     OW43032   9.243   6.652   0.873
10334SOL    HW143033   9.181   6.637   0.797
10334SOL    HW243034   9.191   6.663   0.958
10335SOL     OW43035   8.675   7.136   1.506
10335SOL    HW143036   8.681   7.059   1.570
10335SOL    HW243037   8.623   7.110   1.426
10336SOL     OW43038   7.769   6.529   0.242
10336SOL    HW143039   7.851   6.568   0.200
10336SOL    HW243040   7.742   6.447   0.193
10337SOL     OW43041   8.559   7.362   0.237
10337SOL    HW143042   8.499   7.300   0.287
10337SOL    HW243043   8.590   7.318   0.152
10338SOL     OW43044   7.650   5.871   1.498
10338SOL    HW143045   7.570   5.931   1.485
10338SOL    HW243046   7.640   5.822   1.584
10339SOL     OW43047   9.080   6.963   0.081
10339SOL    HW143048   9.048   7.057   0.071
10339SOL    HW243049   9.004   6.900   0.069
10340SOL     OW43050   7.912   7.329   0.323
10340SOL    HW143051   7.945   7.368   0.409
10340SOL    HW243052   7.988   7.322   0.258
10341SOL     OW43053   8.848   5.693   0.426
10341SOL    HW143054   8.824   5.656   0.336
10341SOL    HW243055   8.947   5.709   0.430
10342SOL     OW43056   7.697   7.371   1.241
10342SOL    HW143057   7.754   7.306   1.291
10342SOL    HW243058   7.681   7.338   1.148
10343SOL     OW43059   8.388   7.284   0.904
10343SOL    HW143060   8.468   7.227   0.925
10343SOL    HW243061   8.339   7.244   0.827
10344SOL     OW43062   7.830   6.286   0.480
10344SOL    HW143063   7.875   6.196   0.477
10344SOL    HW243064   7.736   6.275   0.513
10345SOL     OW43065   8.062   5.708   0.117
10345SOL    HW143066   8.160   5.686   0.124
10345SOL    HW243067   8.031   5.691   0.024
10346SOL     OW43068   8.229   5.850   1.749
10346SOL    HW143069   8.296   5.789   1.792
10346SOL    HW243070   8.156   5.869   1.814
10347SOL     OW43071   8.799   6.176   1.433
10347SOL    HW143072   8.827   6.133   1.518
10347SOL    HW243073   8.824   6.272   1.434
10348SOL     OW43074   8.251   6.988   0.924
10348SOL    HW143075   8.341   7.002   0.882
10348SOL    HW243076   8.180   6.990   0.853
10349SOL     OW43077   8.370   6.089   0.899
10349SOL    HW143078   8.345   6.080   0.803
10349SOL    HW243079   8.418   6.007   0.930
10350SOL     OW43080   7.987   5.650   0.512
10350SOL    HW143081   7.906   5.651   0.570
10350SOL    HW243082   7.990   5.733   0.457
10351SOL     OW43083   8.882   6.774   0.041
10351SOL    HW143084   8.914   6.698   0.098
10351SOL    HW243085   8.790   6.801   0.071
10352SOL     OW43086   7.745   5.621   0.171
10352SOL    HW143087   7.794   5.705   0.150
10352SOL    HW243088   7.807   5.556   0.216
10353SOL     OW43089   8.383   5.822   0.480
10353SOL    HW143090   8.335   5.863   0.402
10353SOL    HW243091   8.482   5.820   0.461
10354SOL     OW43092   8.524   6.269   1.464
10354SOL    HW143093   8.444   6.208   1.467
10354SOL    HW243094   8.605   6.216   1.440
10355SOL     OW43095   8.675   7.156   0.793
10355SOL    HW143096   8.696   7.230   0.728
10355SOL    HW243097   8.743   7.156   0.866
10356SOL     OW43098   7.907   6.738   0.741
10356SOL    HW143099   7.836   6.711   0.806
10356SOL    HW243100   7.881   6.710   0.648
10357SOL     OW43101   8.719   7.383   0.591
10357SOL    HW143102   8.763   7.447   0.527
10357SOL    HW243103   8.669   7.435   0.661
10358SOL     OW43104   8.480   6.135   0.016
10358SOL    HW143105   8.439   6.217  -0.023
10358SOL    HW243106   8.544   6.161   0.089
10359SOL     OW43107   7.526   6.142   1.386
10359SOL    HW143108   7.618   6.141   1.345
10359SOL    HW243109   7.520   6.216   1.453
10360SOL     OW43110   8.009   5.808   1.147
10360SOL    HW143111   8.047   5.724   1.184
10360SOL    HW243112   7.921   5.827   1.191
10361SOL     OW43113   8.314   6.040   0.642
10361SOL    HW143114   8.282   6.112   0.580
10361SOL    HW243115   8.338   5.959   0.589
10362SOL     OW43116   8.465   5.625   0.753
10362SOL    HW143117   8.393   5.630   0.684
10362SOL    HW243118   8.441   5.556   0.822
10363SOL     OW43119   8.877   6.759   0.867
10363SOL    HW143120   8.822   6.675   0.860
10363SOL    HW243121   8.903   6.788   0.775
10364SOL     OW43122   9.305   6.419   0.377
10364SOL    HW143123   9.347   6.355   0.441
10364SOL    HW243124   9.267   6.368   0.299
10365SOL     OW43125   7.936   6.971   0.174
10365SOL    HW143126   7.849   6.956   0.221
10365SOL    HW243127   7.919   6.997   0.079
10366SOL     OW43128   9.112   6.866   0.657
10366SOL    HW143129   9.211   6.874   0.671
10366SOL    HW243130   9.067   6.950   0.688
10367SOL     OW43131   8.838   6.161   0.078
10367SOL    HW143132   8.784   6.140   0.159
10367SOL    HW243133   8.929   6.120   0.087
10368SOL     OW43134   7.975   5.842   0.328
10368SOL    HW143135   8.002   5.783   0.253
10368SOL    HW243136   7.975   5.937   0.297
10369SOL     OW43137   9.202   6.809   1.588
10369SOL    HW143138   9.293   6.770   1.575
10369SOL    HW243139   9.210   6.905   1.612
10370SOL     OW43140   9.040   7.215   1.625
10370SOL    HW143141   9.067   7.249   1.535
10370SOL    HW243142   9.119   7.177   1.671
10371SOL     OW43143   8.559   6.781   1.100
10371SOL    HW143144   8.519   6.825   1.181
10371SOL    HW243145   8.518   6.818   1.017
10372SOL     OW43146   8.428   6.702   1.719
10372SOL    HW143147   8.329   6.708   1.729
10372SOL    HW243148   8.451   6.622   1.663
10373SOL     OW43149   8.153   6.636   0.368
10373SOL    HW143150   8.139   6.643   0.467
10373SOL    HW243151   8.237   6.585   0.350
10374SOL     OW43152   7.858   6.399   1.251
10374SOL    HW143153   7.944   6.411   1.301
10374SOL    HW243154   7.816   6.312   1.278
10375SOL     OW43155   7.815   6.686   0.501
10375SOL    HW143156   7.808   6.769   0.445
10375SOL    HW243157   7.819   6.606   0.441
10376SOL     OW43158   8.014   6.123   0.865
10376SOL    HW143159   8.026   6.189   0.791
10376SOL    HW243160   8.060   6.157   0.948
10377SOL     OW43161   8.700   6.934   0.388
10377SOL    HW143162   8.750   7.011   0.428
10377SOL    HW243163   8.605   6.936   0.420
10378SOL     OW43164   8.720   7.031   1.142
10378SOL    HW143165   8.767   7.044   1.229
10378SOL    HW243166   8.654   6.957   1.151
10379SOL     OW43167   9.030   6.225   0.472
10379SOL    HW143168   8.999   6.286   0.545
10379SOL    HW243169   9.080   6.277   0.403
10380SOL     OW43170   8.461   5.691   1.770
10380SOL    HW143171   8.467   5.776   1.718
10380SOL    HW243172   8.493   5.615   1.713
10381SOL     OW43173   8.021   6.456   1.029
10381SOL    HW143174   8.065   6.545   1.020
10381SOL    HW243175   7.958   6.456   1.106
10382SOL     OW43176   8.808   6.448   1.045
10382SOL    HW143177   8.733   6.448   0.979
10382SOL    HW243178   8.845   6.356   1.054
10383SOL     OW43179   8.657   6.111   0.275
10383SOL    HW143180   8.670   6.027   0.329
10383SOL    HW243181   8.628   6.185   0.335
10384SOL     OW43182   8.180   6.220   1.064
10384SOL    HW143183   8.239   6.194   0.988
10384SOL    HW243184   8.152   6.316   1.053
10385SOL     OW43185   7.755   5.649   0.618
10385SOL    HW143186   7.744   5.743   0.651
10385SOL    HW243187   7.750   5.586   0.695
10386SOL     OW43188   9.070   5.953   0.374
10386SOL    HW143189   9.072   5.877   0.438
10386SOL    HW243190   9.022   6.030   0.414
10387SOL     OW43191   8.471   6.352   0.966
10387SOL    HW143192   8.486   6.373   1.062
10387SOL    HW243193   8.441   6.257   0.957
10388SOL     OW43194   9.307   7.104   1.605
10388SOL    HW143195   9.321   7.131   1.510
10388SOL    HW243196   9.390   7.126   1.658
10389SOL     OW43197   8.988   5.860   0.125
10389SOL    HW143198   8.927   5.785   0.148
10389SOL    HW243199   9.010   5.912   0.208
10390SOL     OW43200   8.751   6.424   0.042
10390SOL    HW143201   8.785   6.331   0.057
10390SOL    HW243202   8.769   6.451  -0.053
10391SOL     OW43203   8.516   6.919   0.849
10391SOL    HW143204   8.523   6.835   0.794
10391SOL    HW243205   8.578   6.988   0.813
10392SOL     OW43206   7.767   6.396   0.949
10392SOL    HW143207   7.860   6.432   0.954
10392SOL    HW243208   7.761   6.311   1.001
10393SOL     OW43209   7.787   6.095   1.006
10393SOL    HW143210   7.735   6.012   0.989
10393SOL    HW243211   7.864   6.100   0.942
10394SOL     OW43212   7.456   6.912   0.200
10394SOL    HW143213   7.363   6.933   0.169
10394SOL    HW243214   7.466   6.813   0.213
10395SOL     OW43215   7.536   7.387   0.927
10395SOL    HW143216   7.494   7.301   0.900
10395SOL    HW243217   7.630   7.390   0.893
10396SOL     OW43218   7.952   7.154   0.910
10396SOL    HW143219   8.018   7.228   0.919
10396SOL    HW243220   7.996   7.075   0.868
10397SOL     OW43221   8.450   6.382   1.238
10397SOL    HW143222   8.491   6.350   1.324
10397SOL    HW243223   8.354   6.355   1.235
10398SOL     OW43224   7.488   6.130   1.114
10398SOL    HW143225   7.573   6.097   1.073
10398SOL    HW243226   7.501   6.145   1.212
10399SOL     OW43227   8.263   6.158   0.325
10399SOL    HW143228   8.270   6.069   0.279
10399SOL    HW243229   8.169   6.192   0.317
10400SOL     OW43230   7.700   7.150   1.744
10400SOL    HW143231   7.670   7.207   1.820
10400SOL    HW243232   7.693   7.053   1.770
10401SOL     OW43233   8.119   6.050   1.269
10401SOL    HW143234   8.085   5.961   1.239
10401SOL    HW243235   8.145   6.104   1.189
10402SOL     OW43236   7.921   6.086   0.191
10402SOL    HW143237   7.982   6.166   0.195
10402SOL    HW243238   7.826   6.117   0.198
10403SOL     OW43239   8.795   6.645   1.234
10403SOL    HW143240   8.819   6.582   1.160
10403SOL    HW243241   8.705   6.685   1.216
10404SOL     OW43242   8.750   6.441   0.309
10404SOL    HW143243   8.664   6.410   0.351
10404SOL    HW243244   8.746   6.427   0.210
10405SOL     OW43245   9.207   7.333   1.154
10405SOL    HW143246   9.268   7.363   1.081
10405SOL    HW243247   9.169   7.244   1.132
10406SOL     OW43248   8.700   7.317   1.128
10406SOL    HW143249   8.784   7.322   1.074
10406SOL    HW243250   8.677   7.221   1.146
10407SOL     OW43251   7.531   6.844   1.022
10407SOL    HW143252   7.526   6.843   1.122
10407SOL    HW243253   7.448   6.803   0.984
10408SOL     OW43254   8.136   7.248   1.716
10408SOL    HW143255   8.080   7.329   1.725
10408SOL    HW243256   8.188   7.252   1.630
10409SOL     OW43257   8.351   5.672   0.133
10409SOL    HW143258   8.402   5.673   0.047
10409SOL    HW243259   8.407   5.630   0.204
10410SOL     OW43260   9.174   5.721   0.523
10410SOL    HW143261   9.247   5.704   0.456
10410SOL    HW243262   9.143   5.634   0.561
10411SOL     OW43263   8.836   7.159   0.477
10411SOL    HW143264   8.903   7.171   0.403
10411SOL    HW243265   8.796   7.248   0.500
10412SOL     OW43266   8.728   6.513   0.672
10412SOL    HW143267   8.788   6.432   0.674
10412SOL    HW243268   8.768   6.582   0.612
10413SOL     OW43269   8.278   6.859   1.422
10413SOL    HW143270   8.273   6.892   1.517
10413SOL    HW243271   8.192   6.878   1.376
10414SOL     OW43272   8.120   7.202   0.154
10414SOL    HW143273   8.129   7.212   0.055
10414SOL    HW243274   8.080   7.113   0.175
10415SOL     OW43275   9.098   7.306   1.394
10415SOL    HW143276   9.151   7.316   1.310
10415SOL    HW243277   9.071   7.396   1.428
10416SOL     OW43278   9.289   5.761   0.963
10416SOL    HW143279   9.328   5.676   0.927
10416SOL    HW243280   9.191   5.763   0.944
10417SOL     OW43281   7.711   5.912   0.720
10417SOL    HW143282   7.632   5.963   0.686
10417SOL    HW243283   7.702   5.897   0.818
10418SOL     OW43284   8.642   7.198   0.031
10418SOL    HW143285   8.648   7.105   0.068
10418SOL    HW243286   8.583   7.198  -0.049
10419SOL     OW43287   8.270   6.588   1.372
10419SOL    HW143288   8.310   6.587   1.280
10419SOL    HW243289   8.280   6.680   1.412
10420SOL     OW43290   8.364   6.496   0.291
10420SOL    HW143291   8.427   6.534   0.223
10420SOL    HW243292   8.404   6.413   0.330
10421SOL     OW43293   8.952   7.193   0.044
10421SOL    HW143294   8.860   7.230   0.051
10421SOL    HW243295   8.990   7.213  -0.046
10422SOL     OW43296   9.062   6.878   1.289
10422SOL    HW143297   9.122   6.881   1.369
10422SOL    HW243298   8.987   6.942   1.302
10423SOL     OW43299   8.487   6.684   0.696
10423SOL    HW143300   8.417   6.637   0.750
10423SOL    HW243301   8.546   6.616   0.653
10424SOL     OW43302   8.462   5.822   0.971
10424SOL    HW143303   8.454   5.786   0.878
10424SOL    HW243304   8.460   5.746   1.036
10425SOL     OW43305   8.038   7.073   0.491
10425SOL    HW143306   8.080   7.015   0.421
10425SOL    HW243307   7.994   7.152   0.447
10426SOL     OW43308   7.703   6.934   0.290
10426SOL    HW143309   7.607   6.935   0.263
10426SOL    HW243310   7.715   6.987   0.374
10427SOL     OW43311   7.553   6.599   1.726
10427SOL    HW143312   7.476   6.566   1.780
10427SOL    HW243313   7.638   6.569   1.768
10428SOL     OW43314   7.520   5.752   0.318
10428SOL    HW143315   7.503   5.835   0.264
10428SOL    HW243316   7.610   5.715   0.296
10429SOL     OW43317   8.631   6.921   0.119
10429SOL    HW143318   8.532   6.910   0.121
10429SOL    HW243319   8.665   6.936   0.212
10430SOL     OW43320   8.061   6.428   1.431
10430SOL    HW143321   8.117   6.509   1.414
10430SOL    HW243322   8.120   6.348   1.434
10431SOL     OW43323   8.941   7.353   0.959
10431SOL    HW143324   8.974   7.417   0.890
10431SOL    HW243325   9.007   7.347   1.034
10432SOL     OW43326   8.898   6.806   1.633
10432SOL    HW143327   8.889   6.796   1.732
10432SOL    HW243328   8.994   6.799   1.607
10433SOL     OW43329   7.838   7.327   1.560
10433SOL    HW143330   7.747   7.368   1.558
10433SOL    HW243331   7.831   7.233   1.592
10434SOL     OW43332   8.673   5.911   0.449
10434SOL    HW143333   8.738   5.837   0.438
10434SOL    HW243334   8.693   5.961   0.533
10435SOL     OW43335   8.042   6.331   0.652
10435SOL    HW143336   8.092   6.416   0.633
10435SOL    HW243337   7.954   6.333   0.604
10436SOL     OW43338   9.225   5.928   1.642
10436SOL    HW143339   9.208   5.959   1.548
10436SOL    HW243340   9.141   5.891   1.680
10437SOL     OW43341   8.307   6.960   0.016
10437SOL    HW143342   8.261   6.975   0.104
10437SOL    HW243343   8.351   7.045  -0.014
10438SOL     OW43344   8.109   7.376   0.953
10438SOL    HW143345   8.063   7.464   0.940
10438SOL    HW243346   8.208   7.388   0.946
10439SOL     OW43347   8.307   6.542   0.861
10439SOL    HW143348   8.361   6.473   0.909
10439SOL    HW243349   8.275   6.611   0.927
10440SOL     OW43350   8.531   6.570   0.087
10440SOL    HW143351   8.508   6.623   0.005
10440SOL    HW243352   8.612   6.514   0.068
10441SOL     OW43353   9.309   7.155   0.851
10441SOL    HW143354   9.238   7.143   0.781
10441SOL    HW243355   9.310   7.076   0.911
10442SOL     OW43356   7.527   6.826   0.653
10442SOL    HW143357   7.526   6.779   0.741
10442SOL    HW243358   7.609   6.798   0.602
10443SOL     OW43359   8.120   6.977   1.624
10443SOL    HW143360   8.042   6.927   1.662
10443SOL    HW243361   8.117   7.072   1.655
10444SOL     OW43362   7.876   6.010   0.520
10444SOL    HW143363   7.906   5.938   0.458
10444SOL    HW243364   7.837   5.970   0.603
10445SOL     OW43365   9.153   7.073   1.104
10445SOL    HW143366   9.060   7.048   1.077
10445SOL    HW243367   9.179   7.023   1.186
10446SOL     OW43368   7.765   6.133   1.280
10446SOL    HW143369   7.803   6.074   1.352
10446SOL    HW243370   7.805   6.107   1.192
10447SOL     OW43371   8.260   7.172   0.687
10447SOL    HW143372   8.292   7.182   0.593
10447SOL    HW243373   8.181   7.110   0.689
10448SOL     OW43374   8.872   5.800   1.112
10448SOL    HW143375   8.924   5.735   1.167
10448SOL    HW243376   8.823   5.863   1.173
10449SOL     OW43377   8.218   6.916   0.301
10449SOL    HW143378   8.172   6.829   0.318
10449SOL    HW243379   8.309   6.913   0.342
10450SOL     OW43380   8.066   7.153   1.284
10450SOL    HW143381   8.061   7.235   1.341
10450SOL    HW243382   8.155   7.150   1.239
10451SOL     OW43383   8.800   5.638   0.168
10451SOL    HW143384   8.835   5.597   0.084
10451SOL    HW243385   8.710   5.600   0.188
10452SOL     OW43386   8.748   6.039   0.691
10452SOL    HW143387   8.689   6.119   0.695
10452SOL    HW243388   8.763   6.004   0.784
10453SOL     OW43389   9.041   5.807   0.882
10453SOL    HW143390   8.957   5.806   0.936
10453SOL    HW243391   9.043   5.890   0.826
10454SOL     OW43392   7.487   6.663   0.300
10454SOL    HW143393   7.586   6.652   0.291
10454SOL    HW243394   7.447   6.577   0.332
10455SOL     OW43395   8.323   7.232   0.337
10455SOL    HW143396   8.246   7.197   0.283
10455SOL    HW243397   8.291   7.303   0.399
10456SOL     OW43398   7.467   5.954   2.509
10456SOL    HW143399   7.385   5.997   2.548
10456SOL    HW243400   7.439   5.881   2.446
10457SOL     OW43401   8.298   6.384   3.685
10457SOL    HW143402   8.294   6.460   3.750
10457SOL    HW243403   8.320   6.420   3.594
10458SOL     OW43404   7.886   5.978   3.361
10458SOL    HW143405   7.968   5.922   3.370
10458SOL    HW243406   7.805   5.920   3.365
10459SOL     OW43407   9.051   6.033   2.599
10459SOL    HW143408   8.977   6.079   2.549
10459SOL    HW243409   9.102   6.101   2.652
10460SOL     OW43410   8.575   6.927   3.552
10460SOL    HW143411   8.622   6.927   3.640
10460SOL    HW243412   8.527   6.840   3.541
10461SOL     OW43413   7.688   6.677   2.748
10461SOL    HW143414   7.702   6.593   2.800
10461SOL    HW243415   7.633   6.741   2.803
10462SOL     OW43416   9.042   5.700   3.342
10462SOL    HW143417   9.024   5.767   3.270
10462SOL    HW243418   9.039   5.746   3.431
10463SOL     OW43419   7.570   6.229   2.425
10463SOL    HW143420   7.525   6.141   2.442
10463SOL    HW243421   7.569   6.283   2.509
10464SOL     OW43422   8.061   6.951   2.588
10464SOL    HW143423   8.012   6.864   2.597
10464SOL    HW243424   8.038   6.994   2.501
10465SOL     OW43425   8.257   5.590   2.364
10465SOL    HW143426   8.297   5.681   2.355
10465SOL    HW243427   8.157   5.598   2.370
10466SOL     OW43428   8.729   5.931   2.806
10466SOL    HW143429   8.643   5.881   2.793
10466SOL    HW243430   8.791   5.877   2.862
10467SOL     OW43431   9.024   7.248   2.169
10467SOL    HW143432   9.113   7.294   2.172
10467SOL    HW243433   9.003   7.224   2.074
10468SOL     OW43434   8.842   6.055   3.536
10468SOL    HW143435   8.822   6.098   3.624
10468SOL    HW243436   8.920   5.993   3.545
10469SOL     OW43437   8.421   6.476   3.434
10469SOL    HW143438   8.467   6.392   3.405
10469SOL    HW243439   8.365   6.510   3.359
10470SOL     OW43440   8.489   6.287   2.291
10470SOL    HW143441   8.515   6.283   2.387
10470SOL    HW243442   8.404   6.236   2.277
10471SOL     OW43443   7.524   6.397   2.651
10471SOL    HW143444   7.623   6.385   2.660
10471SOL    HW243445   7.500   6.492   2.672
10472SOL     OW43446   7.578   7.407   3.433
10472SOL    HW143447   7.568   7.392   3.532
10472SOL    HW243448   7.492   7.443   3.397
10473SOL     OW43449   7.998   5.782   2.747
10473SOL    HW143450   7.993   5.777   2.847
10473SOL    HW243451   8.000   5.878   2.718
10474SOL     OW43452   8.456   7.042   2.339
10474SOL    HW143453   8.410   7.114   2.287
10474SOL    HW243454   8.452   7.062   2.437
10475SOL     OW43455   7.799   7.387   2.715
10475SOL    HW143456   7.849   7.301   2.721
10475SOL    HW243457   7.864   7.464   2.712
10476SOL     OW43458   8.675   7.136   3.368
10476SOL    HW143459   8.681   7.059   3.432
10476SOL    HW243460   8.623   7.110   3.288
10477SOL     OW43461   7.769   6.529   2.104
10477SOL    HW143462   7.851   6.568   2.062
10477SOL    HW243463   7.742   6.447   2.055
10478SOL     OW43464   7.909   6.852   3.589
10478SOL    HW143465   7.859   6.853   3.503
10478SOL    HW243466   7.846   6.834   3.665
10479SOL     OW43467   9.080   6.963   1.943
10479SOL    HW143468   9.048   7.057   1.933
10479SOL    HW243469   9.004   6.900   1.931
10480SOL     OW43470   8.848   5.693   2.288
10480SOL    HW143471   8.824   5.656   2.198
10480SOL    HW243472   8.947   5.709   2.292
10481SOL     OW43473   7.830   6.286   2.342
10481SOL    HW143474   7.875   6.196   2.339
10481SOL    HW243475   7.736   6.275   2.375
10482SOL     OW43476   8.995   5.808   3.591
10482SOL    HW143477   8.990   5.845   3.683
10482SOL    HW243478   8.923   5.739   3.579
10483SOL     OW43479   8.229   5.850   3.611
10483SOL    HW143480   8.296   5.789   3.654
10483SOL    HW243481   8.156   5.869   3.676
10484SOL     OW43482   7.745   5.621   2.033
10484SOL    HW143483   7.794   5.705   2.012
10484SOL    HW243484   7.807   5.556   2.078
10485SOL     OW43485   7.526   6.142   3.248
10485SOL    HW143486   7.618   6.141   3.207
10485SOL    HW243487   7.520   6.216   3.315
10486SOL     OW43488   8.914   6.176   2.854
10486SOL    HW143489   8.884   6.081   2.861
10486SOL    HW243490   8.987   6.192   2.920
10487SOL     OW43491   8.363   5.675   3.264
10487SOL    HW143492   8.388   5.655   3.169
10487SOL    HW243493   8.435   5.731   3.306
10488SOL     OW43494   7.815   6.686   2.363
10488SOL    HW143495   7.808   6.769   2.307
10488SOL    HW243496   7.819   6.606   2.303
10489SOL     OW43497   8.014   6.123   2.727
10489SOL    HW143498   8.026   6.189   2.653
10489SOL    HW243499   8.060   6.157   2.810
10490SOL     OW43500   8.021   6.456   2.891
10490SOL    HW143501   8.065   6.545   2.882
10490SOL    HW243502   7.958   6.456   2.968
10491SOL     OW43503   8.471   6.352   2.828
10491SOL    HW143504   8.486   6.373   2.924
10491SOL    HW243505   8.441   6.257   2.819
10492SOL     OW43506   9.307   7.104   3.467
10492SOL    HW143507   9.321   7.131   3.372
10492SOL    HW243508   9.390   7.126   3.520
10493SOL     OW43509   8.988   5.860   1.987
10493SOL    HW143510   8.927   5.785   2.010
10493SOL    HW243511   9.010   5.912   2.070
10494SOL     OW43512   8.516   6.919   2.711
10494SOL    HW143513   8.523   6.835   2.656
10494SOL    HW243514   8.578   6.988   2.675
10495SOL     OW43515   7.767   6.396   2.811
10495SOL    HW143516   7.860   6.432   2.816
10495SOL    HW243517   7.761   6.311   2.863
10496SOL     OW43518   8.586   5.966   3.540
10496SOL    HW143519   8.541   6.029   3.604
10496SOL    HW243520   8.679   5.997   3.523
10497SOL     OW43521   8.608   5.793   3.339
10497SOL    HW143522   8.608   5.857   3.416
10497SOL    HW243523   8.636   5.841   3.256
10498SOL     OW43524   7.536   7.387   2.789
10498SOL    HW143525   7.494   7.301   2.762
10498SOL    HW243526   7.630   7.390   2.755
10499SOL     OW43527   7.952   7.154   2.772
10499SOL    HW143528   8.018   7.228   2.781
10499SOL    HW243529   7.996   7.075   2.730
10500SOL     OW43530   8.450   6.382   3.100
10500SOL    HW143531   8.491   6.350   3.186
10500SOL    HW243532   8.354   6.355   3.097
10501SOL     OW43533   7.700   7.150   3.606
10501SOL    HW143534   7.670   7.207   3.682
10501SOL    HW243535   7.693   7.053   3.632
10502SOL     OW43536   8.119   6.050   3.131
10502SOL    HW143537   8.085   5.961   3.101
10502SOL    HW243538   8.145   6.104   3.051
10503SOL     OW43539   7.531   6.844   2.884
10503SOL    HW143540   7.526   6.843   2.984
10503SOL    HW243541   7.448   6.803   2.846
10504SOL     OW43542   8.836   7.159   2.339
10504SOL    HW143543   8.903   7.171   2.265
10504SOL    HW243544   8.796   7.248   2.362
10505SOL     OW43545   7.578   7.380   3.713
10505SOL    HW143546   7.537   7.306   3.766
10505SOL    HW243547   7.642   7.431   3.771
10506SOL     OW43548   8.728   6.513   2.534
10506SOL    HW143549   8.788   6.432   2.536
10506SOL    HW243550   8.768   6.582   2.474
10507SOL     OW43551   7.711   5.912   2.582
10507SOL    HW143552   7.632   5.963   2.548
10507SOL    HW243553   7.702   5.897   2.680
10508SOL     OW43554   8.462   5.822   2.833
10508SOL    HW143555   8.454   5.786   2.740
10508SOL    HW243556   8.460   5.746   2.898
10509SOL     OW43557   8.038   7.073   2.353
10509SOL    HW143558   8.080   7.015   2.283
10509SOL    HW243559   7.994   7.152   2.309
10510SOL     OW43560   8.120   5.789   3.351
10510SOL    HW143561   8.210   5.773   3.311
10510SOL    HW243562   8.128   5.794   3.450
10511SOL     OW43563   8.631   6.921   1.981
10511SOL    HW143564   8.532   6.910   1.983
10511SOL    HW243565   8.665   6.936   2.074
10512SOL     OW43566   8.941   7.353   2.821
10512SOL    HW143567   8.974   7.417   2.752
10512SOL    HW243568   9.007   7.347   2.896
10513SOL     OW43569   8.898   6.806   3.495
10513SOL    HW143570   8.889   6.796   3.594
10513SOL    HW243571   8.994   6.799   3.469
10514SOL     OW43572   7.838   7.327   3.422
10514SOL    HW143573   7.747   7.368   3.420
10514SOL    HW243574   7.831   7.233   3.454
10515SOL     OW43575   9.122   6.469   3.116
10515SOL    HW143576   9.095   6.380   3.079
10515SOL    HW243577   9.123   6.537   3.043
10516SOL     OW43578   8.307   6.960   1.878
10516SOL    HW143579   8.261   6.975   1.966
10516SOL    HW243580   8.351   7.045   1.848
10517SOL     OW43581   8.109   7.376   2.815
10517SOL    HW143582   8.063   7.464   2.802
10517SOL    HW243583   8.208   7.388   2.808
10518SOL     OW43584   9.309   7.155   2.713
10518SOL    HW143585   9.238   7.143   2.643
10518SOL    HW243586   9.310   7.076   2.773
10519SOL     OW43587   9.272   5.778   3.089
10519SOL    HW143588   9.268   5.688   3.133
10519SOL    HW243589   9.275   5.767   2.990
10520SOL     OW43590   8.449   5.620   3.016
10520SOL    HW143591   8.386   5.548   2.985
10520SOL    HW243592   8.542   5.584   3.016
10521SOL     OW43593   8.066   7.153   3.146
10521SOL    HW143594   8.061   7.235   3.203
10521SOL    HW243595   8.155   7.150   3.101
10522SOL     OW43596   7.487   6.663   2.162
10522SOL    HW143597   7.586   6.652   2.153
10522SOL    HW243598   7.447   6.577   2.194
10523SOL     OW43599   8.017   6.861   4.889
10523SOL    HW143600   7.924   6.854   4.852
10523SOL    HW243601   8.028   6.950   4.933
10524SOL     OW43602   8.216   6.730   4.747
10524SOL    HW143603   8.138   6.747   4.807
10524SOL    HW243604   8.250   6.817   4.711
10525SOL     OW43605   8.133   6.598   4.389
10525SOL    HW143606   8.202   6.582   4.459
10525SOL    HW243607   8.060   6.655   4.427
10526SOL     OW43608   8.134   6.747   5.527
10526SOL    HW143609   8.194   6.826   5.541
10526SOL    HW243610   8.048   6.778   5.486
10527SOL     OW43611   8.908   7.091   5.063
10527SOL    HW143612   8.932   7.185   5.089
10527SOL    HW243613   8.892   7.037   5.145
10528SOL     OW43614   7.679   7.299   4.207
10528SOL    HW143615   7.713   7.376   4.261
10528SOL    HW243616   7.723   7.299   4.117
10529SOL     OW43617   8.575   6.927   5.414
10529SOL    HW143618   8.622   6.927   5.502
10529SOL    HW243619   8.527   6.840   5.403
10530SOL     OW43620   7.678   7.020   4.262
10530SOL    HW143621   7.652   7.116   4.262
10530SOL    HW243622   7.607   6.966   4.307
10531SOL     OW43623   8.068   7.372   5.163
10531SOL    HW143624   7.976   7.355   5.198
10531SOL    HW243625   8.096   7.464   5.189
10532SOL     OW43626   7.475   7.182   3.841
10532SOL    HW143627   7.456   7.086   3.862
10532SOL    HW243628   7.442   7.240   3.916
10533SOL     OW43629   7.561   6.323   5.321
10533SOL    HW143630   7.649   6.310   5.366
10533SOL    HW243631   7.548   6.420   5.299
10534SOL     OW43632   8.741   6.814   5.147
10534SOL    HW143633   8.778   6.741   5.089
10534SOL    HW243634   8.793   6.819   5.232
10535SOL     OW43635   7.645   6.562   4.988
10535SOL    HW143636   7.734   6.517   4.974
10535SOL    HW243637   7.572   6.497   4.969
10536SOL     OW43638   8.635   7.378   5.340
10536SOL    HW143639   8.659   7.438   5.264
10536SOL    HW243640   8.642   7.283   5.310
10537SOL     OW43641   7.765   5.837   5.525
10537SOL    HW143642   7.836   5.908   5.531
10537SOL    HW243643   7.677   5.876   5.553
10538SOL     OW43644   8.729   5.931   4.668
10538SOL    HW143645   8.643   5.881   4.655
10538SOL    HW243646   8.791   5.877   4.724
10539SOL     OW43647   8.842   6.055   5.398
10539SOL    HW143648   8.822   6.098   5.486
10539SOL    HW243649   8.920   5.993   5.407
10540SOL     OW43650   7.578   7.407   5.295
10540SOL    HW143651   7.568   7.392   5.394
10540SOL    HW243652   7.492   7.443   5.259
10541SOL     OW43653   8.313   5.934   3.919
10541SOL    HW143654   8.372   5.997   3.870
10541SOL    HW243655   8.332   5.840   3.890
10542SOL     OW43656   9.167   6.171   5.555
10542SOL    HW143657   9.141   6.260   5.519
10542SOL    HW243658   9.165   6.103   5.482
10543SOL     OW43659   7.998   5.782   4.609
10543SOL    HW143660   7.993   5.777   4.709
10543SOL    HW243661   8.000   5.878   4.580
10544SOL     OW43662   8.456   7.042   4.201
10544SOL    HW143663   8.410   7.114   4.149
10544SOL    HW243664   8.452   7.062   4.299
10545SOL     OW43665   9.243   6.652   4.597
10545SOL    HW143666   9.181   6.637   4.521
10545SOL    HW243667   9.191   6.663   4.682
10546SOL     OW43668   8.675   7.136   5.230
10546SOL    HW143669   8.681   7.059   5.294
10546SOL    HW243670   8.623   7.110   5.150
10547SOL     OW43671   7.769   6.529   3.966
10547SOL    HW143672   7.851   6.568   3.924
10547SOL    HW243673   7.742   6.447   3.917
10548SOL     OW43674   8.906   6.321   4.452
10548SOL    HW143675   8.901   6.256   4.527
10548SOL    HW243676   8.986   6.380   4.465
10549SOL     OW43677   7.650   5.871   5.222
10549SOL    HW143678   7.570   5.931   5.209
10549SOL    HW243679   7.640   5.822   5.308
10550SOL     OW43680   9.080   6.963   3.805
10550SOL    HW143681   9.048   7.057   3.795
10550SOL    HW243682   9.004   6.900   3.793
10551SOL     OW43683   7.697   7.371   4.965
10551SOL    HW143684   7.754   7.306   5.015
10551SOL    HW243685   7.681   7.338   4.872
10552SOL     OW43686   8.995   5.808   5.453
10552SOL    HW143687   8.990   5.845   5.545
10552SOL    HW243688   8.923   5.739   5.441
10553SOL     OW43689   8.336   7.100   4.919
10553SOL    HW143690   8.313   7.075   4.825
10553SOL    HW243691   8.397   7.031   4.958
10554SOL     OW43692   8.799   6.176   5.157
10554SOL    HW143693   8.827   6.133   5.242
10554SOL    HW243694   8.824   6.272   5.158
10555SOL     OW43695   8.882   6.774   3.765
10555SOL    HW143696   8.914   6.698   3.822
10555SOL    HW243697   8.790   6.801   3.795
10556SOL     OW43698   7.745   5.621   3.895
10556SOL    HW143699   7.794   5.705   3.874
10556SOL    HW243700   7.807   5.556   3.940
10557SOL     OW43701   8.383   5.822   4.204
10557SOL    HW143702   8.335   5.863   4.126
10557SOL    HW243703   8.482   5.820   4.185
10558SOL     OW43704   8.719   7.383   4.315
10558SOL    HW143705   8.763   7.447   4.251
10558SOL    HW243706   8.669   7.435   4.385
10559SOL     OW43707   8.480   6.135   3.740
10559SOL    HW143708   8.439   6.217   3.701
10559SOL    HW243709   8.544   6.161   3.813
10560SOL     OW43710   8.465   5.625   4.477
10560SOL    HW143711   8.393   5.630   4.408
10560SOL    HW243712   8.441   5.556   4.546
10561SOL     OW43713   8.914   6.176   4.716
10561SOL    HW143714   8.884   6.081   4.723
10561SOL    HW243715   8.987   6.192   4.782
10562SOL     OW43716   7.936   6.971   3.898
10562SOL    HW143717   7.849   6.956   3.945
10562SOL    HW243718   7.919   6.997   3.803
10563SOL     OW43719   8.838   6.161   3.802
10563SOL    HW143720   8.784   6.140   3.883
10563SOL    HW243721   8.929   6.120   3.811
10564SOL     OW43722   7.975   5.842   4.052
10564SOL    HW143723   8.002   5.783   3.977
10564SOL    HW243724   7.975   5.937   4.021
10565SOL     OW43725   8.512   6.933   5.064
10565SOL    HW143726   8.432   6.910   5.119
10565SOL    HW243727   8.595   6.907   5.113
10566SOL     OW43728   9.040   7.215   5.349
10566SOL    HW143729   9.067   7.249   5.259
10566SOL    HW243730   9.119   7.177   5.395
10567SOL     OW43731   8.559   6.781   4.824
10567SOL    HW143732   8.519   6.825   4.905
10567SOL    HW243733   8.518   6.818   4.741
10568SOL     OW43734   8.428   6.702   5.443
10568SOL    HW143735   8.329   6.708   5.453
10568SOL    HW243736   8.451   6.622   5.387
10569SOL     OW43737   8.720   7.031   4.866
10569SOL    HW143738   8.767   7.044   4.953
10569SOL    HW243739   8.654   6.957   4.875
10570SOL     OW43740   9.030   6.225   4.196
10570SOL    HW143741   8.999   6.286   4.269
10570SOL    HW243742   9.080   6.277   4.127
10571SOL     OW43743   9.035   6.365   5.394
10571SOL    HW143744   8.943   6.403   5.389
10571SOL    HW243745   9.095   6.412   5.329
10572SOL     OW43746   8.021   6.456   4.753
10572SOL    HW143747   8.065   6.545   4.744
10572SOL    HW243748   7.958   6.456   4.830
10573SOL     OW43749   9.176   6.521   5.578
10573SOL    HW143750   9.130   6.514   5.489
10573SOL    HW243751   9.114   6.565   5.644
10574SOL     OW43752   7.755   5.649   4.342
10574SOL    HW143753   7.744   5.743   4.375
10574SOL    HW243754   7.750   5.586   4.419
10575SOL     OW43755   9.070   5.953   4.098
10575SOL    HW143756   9.072   5.877   4.162
10575SOL    HW243757   9.022   6.030   4.138
10576SOL     OW43758   8.428   7.159   5.424
10576SOL    HW143759   8.408   7.203   5.336
10576SOL    HW243760   8.467   7.068   5.408
10577SOL     OW43761   9.307   7.104   5.329
10577SOL    HW143762   9.321   7.131   5.234
10577SOL    HW243763   9.390   7.126   5.382
10578SOL     OW43764   7.787   6.095   4.730
10578SOL    HW143765   7.735   6.012   4.713
10578SOL    HW243766   7.864   6.100   4.666
10579SOL     OW43767   8.586   5.966   5.402
10579SOL    HW143768   8.541   6.029   5.466
10579SOL    HW243769   8.679   5.997   5.385
10580SOL     OW43770   8.608   5.793   5.201
10580SOL    HW143771   8.608   5.857   5.278
10580SOL    HW243772   8.636   5.841   5.118
10581SOL     OW43773   8.450   6.382   4.962
10581SOL    HW143774   8.491   6.350   5.048
10581SOL    HW243775   8.354   6.355   4.959
10582SOL     OW43776   7.637   6.106   5.446
10582SOL    HW143777   7.696   6.066   5.376
10582SOL    HW243778   7.579   6.177   5.405
10583SOL     OW43779   8.817   6.536   5.384
10583SOL    HW143780   8.856   6.625   5.404
10583SOL    HW243781   8.827   6.516   5.287
10584SOL     OW43782   8.378   7.264   5.189
10584SOL    HW143783   8.354   7.246   5.094
10584SOL    HW243784   8.408   7.358   5.199
10585SOL     OW43785   7.607   6.723   5.190
10585SOL    HW143786   7.629   6.662   5.266
10585SOL    HW243787   7.617   6.674   5.104
10586SOL     OW43788   8.795   6.645   4.958
10586SOL    HW143789   8.819   6.582   4.884
10586SOL    HW243790   8.705   6.685   4.940
10587SOL     OW43791   8.136   7.248   5.440
10587SOL    HW143792   8.080   7.329   5.449
10587SOL    HW243793   8.188   7.252   5.354
10588SOL     OW43794   8.836   7.159   4.201
10588SOL    HW143795   8.903   7.171   4.127
10588SOL    HW243796   8.796   7.248   4.224
10589SOL     OW43797   7.578   7.380   5.575
10589SOL    HW143798   7.537   7.306   5.628
10589SOL    HW243799   7.642   7.431   5.633
10590SOL     OW43800   8.278   6.859   5.146
10590SOL    HW143801   8.273   6.892   5.241
10590SOL    HW243802   8.192   6.878   5.100
10591SOL     OW43803   9.098   7.306   5.118
10591SOL    HW143804   9.151   7.316   5.034
10591SOL    HW243805   9.071   7.396   5.152
10592SOL     OW43806   8.270   6.588   5.096
10592SOL    HW143807   8.310   6.587   5.004
10592SOL    HW243808   8.280   6.680   5.136
10593SOL     OW43809   8.364   6.496   4.015
10593SOL    HW143810   8.427   6.534   3.947
10593SOL    HW243811   8.404   6.413   4.054
10594SOL     OW43812   8.952   7.193   3.768
10594SOL    HW143813   8.860   7.230   3.775
10594SOL    HW243814   8.990   7.213   3.678
10595SOL     OW43815   8.487   6.684   4.420
10595SOL    HW143816   8.417   6.637   4.474
10595SOL    HW243817   8.546   6.616   4.377
10596SOL     OW43818   9.157   5.971   5.105
10596SOL    HW143819   9.230   6.040   5.109
10596SOL    HW243820   9.185   5.896   5.046
10597SOL     OW43821   8.888   6.442   5.122
10597SOL    HW143822   8.831   6.494   5.059
10597SOL    HW243823   8.984   6.454   5.098
10598SOL     OW43824   7.520   5.752   4.042
10598SOL    HW143825   7.503   5.835   3.988
10598SOL    HW243826   7.610   5.715   4.020
10599SOL     OW43827   8.631   6.921   3.843
10599SOL    HW143828   8.532   6.910   3.845
10599SOL    HW243829   8.665   6.936   3.936
10600SOL     OW43830   8.898   6.806   5.357
10600SOL    HW143831   8.889   6.796   5.456
10600SOL    HW243832   8.994   6.799   5.331
10601SOL     OW43833   9.225   5.928   5.366
10601SOL    HW143834   9.208   5.959   5.272
10601SOL    HW243835   9.141   5.891   5.404
10602SOL     OW43836   9.178   6.520   5.241
10602SOL    HW143837   9.216   6.611   5.256
10602SOL    HW243838   9.170   6.503   5.142
10603SOL     OW43839   8.307   6.960   3.740
10603SOL    HW143840   8.261   6.975   3.828
10603SOL    HW243841   8.351   7.045   3.710
10604SOL     OW43842   8.531   6.570   3.811
10604SOL    HW143843   8.508   6.623   3.729
10604SOL    HW243844   8.612   6.514   3.792
10605SOL     OW43845   8.120   6.977   5.348
10605SOL    HW143846   8.042   6.927   5.386
10605SOL    HW243847   8.117   7.072   5.379
10606SOL     OW43848   8.872   5.800   4.836
10606SOL    HW143849   8.924   5.735   4.891
10606SOL    HW243850   8.823   5.863   4.897
10607SOL     OW43851   8.066   7.153   5.008
10607SOL    HW143852   8.061   7.235   5.065
10607SOL    HW243853   8.155   7.150   4.963
10608SOL     OW43854   8.748   6.039   4.415
10608SOL    HW143855   8.689   6.119   4.419
10608SOL    HW243856   8.763   6.004   4.508
10609SOL     OW43857   7.487   6.663   4.024
10609SOL    HW143858   7.586   6.652   4.015
10609SOL    HW243859   7.447   6.577   4.056
10610SOL     OW43860   7.678   6.214   5.699
10610SOL    HW143861   7.585   6.212   5.736
10610SOL    HW243862   7.679   6.175   5.607
10611SOL     OW43863   7.673   5.861   6.582
10611SOL    HW143864   7.708   5.844   6.674
10611SOL    HW243865   7.585   5.816   6.570
10612SOL     OW43866   7.467   5.954   6.233
10612SOL    HW143867   7.385   5.997   6.272
10612SOL    HW243868   7.439   5.881   6.170
10613SOL     OW43869   8.017   6.861   6.751
10613SOL    HW143870   7.924   6.854   6.714
10613SOL    HW243871   8.028   6.950   6.795
10614SOL     OW43872   9.003   7.097   6.289
10614SOL    HW143873   8.946   7.081   6.370
10614SOL    HW243874   8.944   7.107   6.209
10615SOL     OW43875   8.583   6.289   6.303
10615SOL    HW143876   8.640   6.367   6.278
10615SOL    HW243877   8.523   6.315   6.379
10616SOL     OW43878   9.203   6.193   5.817
10616SOL    HW143879   9.191   6.180   5.718
10616SOL    HW243880   9.173   6.112   5.866
10617SOL     OW43881   8.216   6.730   6.609
10617SOL    HW143882   8.138   6.747   6.669
10617SOL    HW243883   8.250   6.817   6.573
10618SOL     OW43884   8.133   6.598   6.251
10618SOL    HW143885   8.202   6.582   6.321
10618SOL    HW243886   8.060   6.655   6.289
10619SOL     OW43887   7.783   7.021   6.647
10619SOL    HW143888   7.705   6.990   6.594
10619SOL    HW243889   7.841   7.079   6.590
10620SOL     OW43890   8.908   7.091   6.925
10620SOL    HW143891   8.932   7.185   6.951
10620SOL    HW243892   8.892   7.037   7.007
10621SOL     OW43893   7.886   5.978   7.085
10621SOL    HW143894   7.968   5.922   7.094
10621SOL    HW243895   7.805   5.920   7.089
10622SOL     OW43896   9.051   6.033   6.323
10622SOL    HW143897   8.977   6.079   6.273
10622SOL    HW243898   9.102   6.101   6.376
10623SOL     OW43899   7.679   7.299   6.069
10623SOL    HW143900   7.713   7.376   6.123
10623SOL    HW243901   7.723   7.299   5.979
10624SOL     OW43902   7.678   7.020   6.124
10624SOL    HW143903   7.652   7.116   6.124
10624SOL    HW243904   7.607   6.966   6.169
10625SOL     OW43905   7.688   6.677   6.472
10625SOL    HW143906   7.702   6.593   6.524
10625SOL    HW243907   7.633   6.741   6.527
10626SOL     OW43908   8.068   7.372   7.025
10626SOL    HW143909   7.976   7.355   7.060
10626SOL    HW243910   8.096   7.464   7.051
10627SOL     OW43911   8.054   6.550   5.709
10627SOL    HW143912   8.061   6.634   5.655
10627SOL    HW243913   8.100   6.563   5.797
10628SOL     OW43914   9.042   5.700   7.066
10628SOL    HW143915   9.024   5.767   6.994
10628SOL    HW243916   9.039   5.746   7.155
10629SOL     OW43917   7.570   6.229   6.149
10629SOL    HW143918   7.525   6.141   6.166
10629SOL    HW243919   7.569   6.283   6.233
10630SOL     OW43920   9.290   7.353   5.945
10630SOL    HW143921   9.344   7.324   6.025
10630SOL    HW243922   9.320   7.443   5.916
10631SOL     OW43923   9.137   6.508   6.198
10631SOL    HW143924   9.232   6.479   6.206
10631SOL    HW243925   9.129   6.573   6.123
10632SOL     OW43926   9.089   6.694   6.018
10632SOL    HW143927   9.175   6.696   5.966
10632SOL    HW243928   9.103   6.741   6.106
10633SOL     OW43929   8.061   6.951   6.312
10633SOL    HW143930   8.012   6.864   6.321
10633SOL    HW243931   8.038   6.994   6.225
10634SOL     OW43932   8.257   5.590   6.088
10634SOL    HW143933   8.297   5.681   6.079
10634SOL    HW243934   8.157   5.598   6.094
10635SOL     OW43935   7.645   6.562   6.850
10635SOL    HW143936   7.734   6.517   6.836
10635SOL    HW243937   7.572   6.497   6.831
10636SOL     OW43938   8.973   6.585   5.776
10636SOL    HW143939   8.910   6.509   5.789
10636SOL    HW243940   9.021   6.603   5.862
10637SOL     OW43941   8.914   7.003   6.539
10637SOL    HW143942   8.855   7.009   6.619
10637SOL    HW243943   8.899   6.915   6.493
10638SOL     OW43944   9.115   7.300   6.158
10638SOL    HW143945   9.074   7.277   6.070
10638SOL    HW243946   9.097   7.226   6.223
10639SOL     OW43947   8.046   6.315   5.856
10639SOL    HW143948   8.070   6.384   5.788
10639SOL    HW243949   7.968   6.348   5.910
10640SOL     OW43950   8.729   5.931   6.530
10640SOL    HW143951   8.643   5.881   6.517
10640SOL    HW243952   8.791   5.877   6.586
10641SOL     OW43953   9.024   7.248   5.893
10641SOL    HW143954   9.113   7.294   5.896
10641SOL    HW243955   9.003   7.224   5.798
10642SOL     OW43956   8.255   6.191   7.051
10642SOL    HW143957   8.208   6.188   7.140
10642SOL    HW243958   8.204   6.136   6.985
10643SOL     OW43959   8.439   5.996   6.828
10643SOL    HW143960   8.362   6.030   6.882
10643SOL    HW243961   8.405   5.945   6.749
10644SOL     OW43962   8.489   6.287   6.015
10644SOL    HW143963   8.515   6.283   6.111
10644SOL    HW243964   8.404   6.236   6.001
10645SOL     OW43965   7.524   6.397   6.375
10645SOL    HW143966   7.623   6.385   6.384
10645SOL    HW243967   7.500   6.492   6.396
10646SOL     OW43968   7.578   7.407   7.157
10646SOL    HW143969   7.568   7.392   7.256
10646SOL    HW243970   7.492   7.443   7.121
10647SOL     OW43971   8.313   5.934   5.781
10647SOL    HW143972   8.372   5.997   5.732
10647SOL    HW243973   8.332   5.840   5.752
10648SOL     OW43974   8.810   6.730   6.131
10648SOL    HW143975   8.893   6.701   6.083
10648SOL    HW243976   8.761   6.797   6.075
10649SOL     OW43977   7.998   5.782   6.471
10649SOL    HW143978   7.993   5.777   6.571
10649SOL    HW243979   8.000   5.878   6.442
10650SOL     OW43980   8.456   7.042   6.063
10650SOL    HW143981   8.410   7.114   6.011
10650SOL    HW243982   8.452   7.062   6.161
10651SOL     OW43983   7.799   7.387   6.439
10651SOL    HW143984   7.849   7.301   6.445
10651SOL    HW243985   7.864   7.464   6.436
10652SOL     OW43986   9.243   6.652   6.459
10652SOL    HW143987   9.181   6.637   6.383
10652SOL    HW243988   9.191   6.663   6.544
10653SOL     OW43989   7.769   6.529   5.828
10653SOL    HW143990   7.851   6.568   5.786
10653SOL    HW243991   7.742   6.447   5.779
10654SOL     OW43992   8.906   6.321   6.314
10654SOL    HW143993   8.901   6.256   6.389
10654SOL    HW243994   8.986   6.380   6.327
10655SOL     OW43995   8.559   7.362   5.823
10655SOL    HW143996   8.499   7.300   5.873
10655SOL    HW243997   8.590   7.318   5.738
10656SOL     OW43998   7.650   5.871   7.084
10656SOL    HW143999   7.570   5.931   7.071
10656SOL    HW244000   7.640   5.822   7.170
10657SOL     OW44001   9.080   6.963   5.667
10657SOL    HW144002   9.048   7.057   5.657
10657SOL    HW244003   9.004   6.900   5.655
10658SOL     OW44004   7.912   7.329   5.909
10658SOL    HW144005   7.945   7.368   5.995
10658SOL    HW244006   7.988   7.322   5.844
10659SOL     OW44007   8.848   5.693   6.012
10659SOL    HW144008   8.824   5.656   5.922
10659SOL    HW244009   8.947   5.709   6.016
10660SOL     OW44010   7.697   7.371   6.827
10660SOL    HW144011   7.754   7.306   6.877
10660SOL    HW244012   7.681   7.338   6.734
10661SOL     OW44013   8.388   7.284   6.490
10661SOL    HW144014   8.468   7.227   6.511
10661SOL    HW244015   8.339   7.244   6.413
10662SOL     OW44016   7.830   6.286   6.066
10662SOL    HW144017   7.875   6.196   6.063
10662SOL    HW244018   7.736   6.275   6.099
10663SOL     OW44019   8.336   7.100   6.781
10663SOL    HW144020   8.313   7.075   6.687
10663SOL    HW244021   8.397   7.031   6.820
10664SOL     OW44022   8.251   6.988   6.510
10664SOL    HW144023   8.341   7.002   6.468
10664SOL    HW244024   8.180   6.990   6.439
10665SOL     OW44025   8.370   6.089   6.485
10665SOL    HW144026   8.345   6.080   6.389
10665SOL    HW244027   8.418   6.007   6.516
10666SOL     OW44028   7.987   5.650   6.098
10666SOL    HW144029   7.906   5.651   6.156
10666SOL    HW244030   7.990   5.733   6.043
10667SOL     OW44031   8.882   6.774   5.627
10667SOL    HW144032   8.914   6.698   5.684
10667SOL    HW244033   8.790   6.801   5.657
10668SOL     OW44034   7.745   5.621   5.757
10668SOL    HW144035   7.794   5.705   5.736
10668SOL    HW244036   7.807   5.556   5.802
10669SOL     OW44037   8.383   5.822   6.066
10669SOL    HW144038   8.335   5.863   5.988
10669SOL    HW244039   8.482   5.820   6.047
10670SOL     OW44040   8.675   7.156   6.379
10670SOL    HW144041   8.696   7.230   6.314
10670SOL    HW244042   8.743   7.156   6.452
10671SOL     OW44043   7.907   6.738   6.327
10671SOL    HW144044   7.836   6.711   6.392
10671SOL    HW244045   7.881   6.710   6.234
10672SOL     OW44046   8.719   7.383   6.177
10672SOL    HW144047   8.763   7.447   6.113
10672SOL    HW244048   8.669   7.435   6.247
10673SOL     OW44049   7.526   6.142   6.972
10673SOL    HW144050   7.618   6.141   6.931
10673SOL    HW244051   7.520   6.216   7.039
10674SOL     OW44052   8.009   5.808   6.733
10674SOL    HW144053   8.047   5.724   6.770
10674SOL    HW244054   7.921   5.827   6.777
10675SOL     OW44055   8.314   6.040   6.228
10675SOL    HW144056   8.282   6.112   6.166
10675SOL    HW244057   8.338   5.959   6.175
10676SOL     OW44058   8.465   5.625   6.339
10676SOL    HW144059   8.393   5.630   6.270
10676SOL    HW244060   8.441   5.556   6.408
10677SOL     OW44061   8.877   6.759   6.453
10677SOL    HW144062   8.822   6.675   6.446
10677SOL    HW244063   8.903   6.788   6.361
10678SOL     OW44064   8.914   6.176   6.578
10678SOL    HW144065   8.884   6.081   6.585
10678SOL    HW244066   8.987   6.192   6.644
10679SOL     OW44067   9.305   6.419   5.963
10679SOL    HW144068   9.347   6.355   6.027
10679SOL    HW244069   9.267   6.368   5.885
10680SOL     OW44070   7.936   6.971   5.760
10680SOL    HW144071   7.849   6.956   5.807
10680SOL    HW244072   7.919   6.997   5.665
10681SOL     OW44073   9.112   6.866   6.243
10681SOL    HW144074   9.211   6.874   6.257
10681SOL    HW244075   9.067   6.950   6.274
10682SOL     OW44076   8.838   6.161   5.664
10682SOL    HW144077   8.784   6.140   5.745
10682SOL    HW244078   8.929   6.120   5.673
10683SOL     OW44079   7.975   5.842   5.914
10683SOL    HW144080   8.002   5.783   5.839
10683SOL    HW244081   7.975   5.937   5.883
10684SOL     OW44082   8.512   6.933   6.926
10684SOL    HW144083   8.432   6.910   6.981
10684SOL    HW244084   8.595   6.907   6.975
10685SOL     OW44085   8.559   6.781   6.686
10685SOL    HW144086   8.519   6.825   6.767
10685SOL    HW244087   8.518   6.818   6.603
10686SOL     OW44088   9.086   6.685   6.665
10686SOL    HW144089   9.091   6.766   6.724
10686SOL    HW244090   9.000   6.687   6.614
10687SOL     OW44091   8.363   5.675   6.988
10687SOL    HW144092   8.388   5.655   6.893
10687SOL    HW244093   8.435   5.731   7.030
10688SOL     OW44094   8.153   6.636   5.954
10688SOL    HW144095   8.139   6.643   6.053
10688SOL    HW244096   8.237   6.585   5.936
10689SOL     OW44097   7.858   6.399   6.837
10689SOL    HW144098   7.944   6.411   6.887
10689SOL    HW244099   7.816   6.312   6.864
10690SOL     OW44100   8.722   5.972   6.848
10690SOL    HW144101   8.743   6.046   6.912
10690SOL    HW244102   8.633   5.989   6.805
10691SOL     OW44103   7.512   7.150   6.917
10691SOL    HW144104   7.466   7.232   6.883
10691SOL    HW244105   7.610   7.169   6.926
10692SOL     OW44106   7.815   6.686   6.087
10692SOL    HW144107   7.808   6.769   6.031
10692SOL    HW244108   7.819   6.606   6.027
10693SOL     OW44109   8.014   6.123   6.451
10693SOL    HW144110   8.026   6.189   6.377
10693SOL    HW244111   8.060   6.157   6.534
10694SOL     OW44112   8.700   6.934   5.974
10694SOL    HW144113   8.750   7.011   6.014
10694SOL    HW244114   8.605   6.936   6.006
10695SOL     OW44115   8.720   7.031   6.728
10695SOL    HW144116   8.767   7.044   6.815
10695SOL    HW244117   8.654   6.957   6.737
10696SOL     OW44118   9.030   6.225   6.058
10696SOL    HW144119   8.999   6.286   6.131
10696SOL    HW244120   9.080   6.277   5.989
10697SOL     OW44121   7.802   7.096   6.915
10697SOL    HW144122   7.781   7.052   6.828
10697SOL    HW244123   7.899   7.122   6.918
10698SOL     OW44124   7.850   6.337   7.184
10698SOL    HW144125   7.918   6.392   7.137
10698SOL    HW244126   7.890   6.249   7.211
10699SOL     OW44127   9.035   6.365   7.256
10699SOL    HW144128   8.943   6.403   7.251
10699SOL    HW244129   9.095   6.412   7.191
10700SOL     OW44130   8.021   6.456   6.615
10700SOL    HW144131   8.065   6.545   6.606
10700SOL    HW244132   7.958   6.456   6.692
10701SOL     OW44133   8.808   6.448   6.631
10701SOL    HW144134   8.733   6.448   6.565
10701SOL    HW244135   8.845   6.356   6.640
10702SOL     OW44136   8.657   6.111   5.861
10702SOL    HW144137   8.670   6.027   5.915
10702SOL    HW244138   8.628   6.185   5.921
10703SOL     OW44139   7.755   5.799   6.817
10703SOL    HW144140   7.732   5.836   6.907
10703SOL    HW244141   7.725   5.704   6.811
10704SOL     OW44142   7.485   6.896   6.868
10704SOL    HW144143   7.538   6.847   6.936
10704SOL    HW244144   7.507   6.994   6.873
10705SOL     OW44145   8.180   6.220   6.650
10705SOL    HW144146   8.239   6.194   6.574
10705SOL    HW244147   8.152   6.316   6.639
10706SOL     OW44148   7.755   5.649   6.204
10706SOL    HW144149   7.744   5.743   6.237
10706SOL    HW244150   7.750   5.586   6.281
10707SOL     OW44151   9.070   5.953   5.960
10707SOL    HW144152   9.072   5.877   6.024
10707SOL    HW244153   9.022   6.030   6.000
10708SOL     OW44154   8.471   6.352   6.552
10708SOL    HW144155   8.486   6.373   6.648
10708SOL    HW244156   8.441   6.257   6.543
10709SOL     OW44157   8.428   7.159   7.286
10709SOL    HW144158   8.408   7.203   7.198
10709SOL    HW244159   8.467   7.068   7.270
10710SOL     OW44160   8.988   5.860   5.711
10710SOL    HW144161   8.927   5.785   5.734
10710SOL    HW244162   9.010   5.912   5.794
10711SOL     OW44163   8.751   6.424   5.628
10711SOL    HW144164   8.785   6.331   5.643
10711SOL    HW244165   8.769   6.451   5.533
10712SOL     OW44166   8.516   6.919   6.435
10712SOL    HW144167   8.523   6.835   6.380
10712SOL    HW244168   8.578   6.988   6.399
10713SOL     OW44169   7.767   6.396   6.535
10713SOL    HW144170   7.860   6.432   6.540
10713SOL    HW244171   7.761   6.311   6.587
10714SOL     OW44172   7.787   6.095   6.592
10714SOL    HW144173   7.735   6.012   6.575
10714SOL    HW244174   7.864   6.100   6.528
10715SOL     OW44175   8.586   5.966   7.264
10715SOL    HW144176   8.541   6.029   7.328
10715SOL    HW244177   8.679   5.997   7.247
10716SOL     OW44178   8.608   5.793   7.063
10716SOL    HW144179   8.608   5.857   7.140
10716SOL    HW244180   8.636   5.841   6.980
10717SOL     OW44181   7.456   6.912   5.786
10717SOL    HW144182   7.363   6.933   5.755
10717SOL    HW244183   7.466   6.813   5.799
10718SOL     OW44184   7.536   7.387   6.513
10718SOL    HW144185   7.494   7.301   6.486
10718SOL    HW244186   7.630   7.390   6.479
10719SOL     OW44187   7.952   7.154   6.496
10719SOL    HW144188   8.018   7.228   6.505
10719SOL    HW244189   7.996   7.075   6.454
10720SOL     OW44190   8.450   6.382   6.824
10720SOL    HW144191   8.491   6.350   6.910
10720SOL    HW244192   8.354   6.355   6.821
10721SOL     OW44193   7.488   6.130   6.700
10721SOL    HW144194   7.573   6.097   6.659
10721SOL    HW244195   7.501   6.145   6.798
10722SOL     OW44196   8.263   6.158   5.911
10722SOL    HW144197   8.270   6.069   5.865
10722SOL    HW244198   8.169   6.192   5.903
10723SOL     OW44199   9.105   6.190   6.792
10723SOL    HW144200   9.067   6.121   6.854
10723SOL    HW244201   9.187   6.154   6.748
10724SOL     OW44202   8.119   6.050   6.855
10724SOL    HW144203   8.085   5.961   6.825
10724SOL    HW244204   8.145   6.104   6.775
10725SOL     OW44205   8.378   7.264   7.051
10725SOL    HW144206   8.354   7.246   6.956
10725SOL    HW244207   8.408   7.358   7.061
10726SOL     OW44208   7.921   6.086   5.777
10726SOL    HW144209   7.982   6.166   5.781
10726SOL    HW244210   7.826   6.117   5.784
10727SOL     OW44211   7.607   6.723   7.052
10727SOL    HW144212   7.629   6.662   7.128
10727SOL    HW244213   7.617   6.674   6.966
10728SOL     OW44214   8.795   6.645   6.820
10728SOL    HW144215   8.819   6.582   6.746
10728SOL    HW244216   8.705   6.685   6.802
10729SOL     OW44217   8.750   6.441   5.895
10729SOL    HW144218   8.664   6.410   5.937
10729SOL    HW244219   8.746   6.427   5.796
10730SOL     OW44220   9.207   7.333   6.740
10730SOL    HW144221   9.268   7.363   6.667
10730SOL    HW244222   9.169   7.244   6.718
10731SOL     OW44223   8.700   7.317   6.714
10731SOL    HW144224   8.784   7.322   6.660
10731SOL    HW244225   8.677   7.221   6.732
10732SOL     OW44226   7.531   6.844   6.608
10732SOL    HW144227   7.526   6.843   6.708
10732SOL    HW244228   7.448   6.803   6.570
10733SOL     OW44229   9.174   5.721   6.109
10733SOL    HW144230   9.247   5.704   6.042
10733SOL    HW244231   9.143   5.634   6.147
10734SOL     OW44232   8.836   7.159   6.063
10734SOL    HW144233   8.903   7.171   5.989
10734SOL    HW244234   8.796   7.248   6.086
10735SOL     OW44235   8.728   6.513   6.258
10735SOL    HW144236   8.788   6.432   6.260
10735SOL    HW244237   8.768   6.582   6.198
10736SOL     OW44238   8.120   7.202   5.740
10736SOL    HW144239   8.129   7.212   5.641
10736SOL    HW244240   8.080   7.113   5.761
10737SOL     OW44241   9.098   7.306   6.980
10737SOL    HW144242   9.151   7.316   6.896
10737SOL    HW244243   9.071   7.396   7.014
10738SOL     OW44244   9.289   5.761   6.549
10738SOL    HW144245   9.328   5.676   6.513
10738SOL    HW244246   9.191   5.763   6.530
10739SOL     OW44247   7.711   5.912   6.306
10739SOL    HW144248   7.632   5.963   6.272
10739SOL    HW244249   7.702   5.897   6.404
10740SOL     OW44250   8.642   7.198   5.617
10740SOL    HW144251   8.648   7.105   5.654
10740SOL    HW244252   8.583   7.198   5.537
10741SOL     OW44253   8.270   6.588   6.958
10741SOL    HW144254   8.310   6.587   6.866
10741SOL    HW244255   8.280   6.680   6.998
10742SOL     OW44256   8.364   6.496   5.877
10742SOL    HW144257   8.427   6.534   5.809
10742SOL    HW244258   8.404   6.413   5.916
10743SOL     OW44259   8.952   7.193   5.630
10743SOL    HW144260   8.860   7.230   5.637
10743SOL    HW244261   8.990   7.213   5.540
10744SOL     OW44262   7.820   6.874   7.076
10744SOL    HW144263   7.807   6.967   7.042
10744SOL    HW244264   7.736   6.822   7.063
10745SOL     OW44265   9.062   6.878   6.875
10745SOL    HW144266   9.122   6.881   6.955
10745SOL    HW244267   8.987   6.942   6.888
10746SOL     OW44268   8.487   6.684   6.282
10746SOL    HW144269   8.417   6.637   6.336
10746SOL    HW244270   8.546   6.616   6.239
10747SOL     OW44271   8.462   5.822   6.557
10747SOL    HW144272   8.454   5.786   6.464
10747SOL    HW244273   8.460   5.746   6.622
10748SOL     OW44274   8.038   7.073   6.077
10748SOL    HW144275   8.080   7.015   6.007
10748SOL    HW244276   7.994   7.152   6.033
10749SOL     OW44277   9.157   5.971   6.967
10749SOL    HW144278   9.230   6.040   6.971
10749SOL    HW244279   9.185   5.896   6.908
10750SOL     OW44280   7.703   6.934   5.876
10750SOL    HW144281   7.607   6.935   5.849
10750SOL    HW244282   7.715   6.987   5.960
10751SOL     OW44283   7.523   5.931   5.619
10751SOL    HW144284   7.431   5.903   5.590
10751SOL    HW244285   7.554   6.008   5.563
10752SOL     OW44286   8.888   6.442   6.984
10752SOL    HW144287   8.831   6.494   6.921
10752SOL    HW244288   8.984   6.454   6.960
10753SOL     OW44289   7.520   5.752   5.904
10753SOL    HW144290   7.503   5.835   5.850
10753SOL    HW244291   7.610   5.715   5.882
10754SOL     OW44292   8.631   6.921   5.705
10754SOL    HW144293   8.532   6.910   5.707
10754SOL    HW244294   8.665   6.936   5.798
10755SOL     OW44295   8.061   6.428   7.017
10755SOL    HW144296   8.117   6.509   7.000
10755SOL    HW244297   8.120   6.348   7.020
10756SOL     OW44298   8.941   7.353   6.545
10756SOL    HW144299   8.974   7.417   6.476
10756SOL    HW244300   9.007   7.347   6.620
10757SOL     OW44301   7.838   7.327   7.146
10757SOL    HW144302   7.747   7.368   7.144
10757SOL    HW244303   7.831   7.233   7.178
10758SOL     OW44304   9.122   6.469   6.840
10758SOL    HW144305   9.095   6.380   6.803
10758SOL    HW244306   9.123   6.537   6.767
10759SOL     OW44307   8.673   5.911   6.035
10759SOL    HW144308   8.738   5.837   6.024
10759SOL    HW244309   8.693   5.961   6.119
10760SOL     OW44310   8.042   6.331   6.238
10760SOL    HW144311   8.092   6.416   6.219
10760SOL    HW244312   7.954   6.333   6.190
10761SOL     OW44313   9.225   5.928   7.228
10761SOL    HW144314   9.208   5.959   7.134
10761SOL    HW244315   9.141   5.891   7.266
10762SOL     OW44316   9.178   6.520   7.103
10762SOL    HW144317   9.216   6.611   7.118
10762SOL    HW244318   9.170   6.503   7.004
10763SOL     OW44319   8.307   6.960   5.602
10763SOL    HW144320   8.261   6.975   5.690
10763SOL    HW244321   8.351   7.045   5.572
10764SOL     OW44322   8.109   7.376   6.539
10764SOL    HW144323   8.063   7.464   6.526
10764SOL    HW244324   8.208   7.388   6.532
10765SOL     OW44325   8.307   6.542   6.447
10765SOL    HW144326   8.361   6.473   6.495
10765SOL    HW244327   8.275   6.611   6.513
10766SOL     OW44328   8.531   6.570   5.673
10766SOL    HW144329   8.508   6.623   5.591
10766SOL    HW244330   8.612   6.514   5.654
10767SOL     OW44331   9.309   7.155   6.437
10767SOL    HW144332   9.238   7.143   6.367
10767SOL    HW244333   9.310   7.076   6.497
10768SOL     OW44334   7.527   6.826   6.239
10768SOL    HW144335   7.526   6.779   6.327
10768SOL    HW244336   7.609   6.798   6.188
10769SOL     OW44337   9.272   5.778   6.813
10769SOL    HW144338   9.268   5.688   6.857
10769SOL    HW244339   9.275   5.767   6.714
10770SOL     OW44340   7.876   6.010   6.106
10770SOL    HW144341   7.906   5.938   6.044
10770SOL    HW244342   7.837   5.970   6.189
10771SOL     OW44343   9.153   7.073   6.690
10771SOL    HW144344   9.060   7.048   6.663
10771SOL    HW244345   9.179   7.023   6.772
10772SOL     OW44346   7.765   6.133   6.866
10772SOL    HW144347   7.803   6.074   6.938
10772SOL    HW244348   7.805   6.107   6.778
10773SOL     OW44349   8.260   7.172   6.273
10773SOL    HW144350   8.292   7.182   6.179
10773SOL    HW244351   8.181   7.110   6.275
10774SOL     OW44352   8.872   5.800   6.698
10774SOL    HW144353   8.924   5.735   6.753
10774SOL    HW244354   8.823   5.863   6.759
10775SOL     OW44355   8.449   5.620   6.740
10775SOL    HW144356   8.386   5.548   6.709
10775SOL    HW244357   8.542   5.584   6.740
10776SOL     OW44358   8.218   6.916   5.887
10776SOL    HW144359   8.172   6.829   5.904
10776SOL    HW244360   8.309   6.913   5.928
10777SOL     OW44361   8.066   7.153   6.870
10777SOL    HW144362   8.061   7.235   6.927
10777SOL    HW244363   8.155   7.150   6.825
10778SOL     OW44364   8.800   5.638   5.754
10778SOL    HW144365   8.835   5.597   5.670
10778SOL    HW244366   8.710   5.600   5.774
10779SOL     OW44367   8.748   6.039   6.277
10779SOL    HW144368   8.689   6.119   6.281
10779SOL    HW244369   8.763   6.004   6.370
10780SOL     OW44370   9.041   5.807   6.468
10780SOL    HW144371   8.957   5.806   6.522
10780SOL    HW244372   9.043   5.890   6.412
10781SOL     OW44373   7.487   6.663   5.886
10781SOL    HW144374   7.586   6.652   5.877
10781SOL    HW244375   7.447   6.577   5.918
10782SOL     OW44376   8.323   7.232   5.923
10782SOL    HW144377   8.246   7.197   5.869
10782SOL    HW244378   8.291   7.303   5.985
10783SOL     OW44379   7.678   8.076   0.113
10783SOL    HW144380   7.585   8.074   0.150
10783SOL    HW244381   7.679   8.037   0.021
10784SOL     OW44382   7.673   7.723   0.996
10784SOL    HW144383   7.708   7.706   1.088
10784SOL    HW244384   7.585   7.678   0.984
10785SOL     OW44385   7.467   7.816   0.647
10785SOL    HW144386   7.385   7.859   0.686
10785SOL    HW244387   7.439   7.743   0.584
10786SOL     OW44388   8.583   8.151   0.717
10786SOL    HW144389   8.640   8.229   0.692
10786SOL    HW244390   8.523   8.177   0.793
10787SOL     OW44391   9.203   8.055   0.231
10787SOL    HW144392   9.191   8.042   0.132
10787SOL    HW244393   9.173   7.974   0.280
10788SOL     OW44394   8.133   8.460   0.665
10788SOL    HW144395   8.202   8.444   0.735
10788SOL    HW244396   8.060   8.517   0.703
10789SOL     OW44397   9.051   7.895   0.737
10789SOL    HW144398   8.977   7.941   0.687
10789SOL    HW244399   9.102   7.963   0.790
10790SOL     OW44400   9.042   7.562   1.480
10790SOL    HW144401   9.024   7.629   1.408
10790SOL    HW244402   9.039   7.608   1.569
10791SOL     OW44403   7.570   8.091   0.563
10791SOL    HW144404   7.525   8.003   0.580
10791SOL    HW244405   7.569   8.145   0.647
10792SOL     OW44406   8.257   7.452   0.502
10792SOL    HW144407   8.297   7.543   0.493
10792SOL    HW244408   8.157   7.460   0.508
10793SOL     OW44409   8.973   8.447   0.190
10793SOL    HW144410   8.910   8.371   0.203
10793SOL    HW244411   9.021   8.465   0.276
10794SOL     OW44412   8.046   8.177   0.270
10794SOL    HW144413   8.070   8.246   0.202
10794SOL    HW244414   7.968   8.210   0.324
10795SOL     OW44415   8.729   7.793   0.944
10795SOL    HW144416   8.643   7.743   0.931
10795SOL    HW244417   8.791   7.739   1.000
10796SOL     OW44418   8.255   8.053   1.465
10796SOL    HW144419   8.208   8.050   1.554
10796SOL    HW244420   8.204   7.998   1.399
10797SOL     OW44421   8.842   7.917   1.674
10797SOL    HW144422   8.822   7.960   1.762
10797SOL    HW244423   8.920   7.855   1.683
10798SOL     OW44424   8.439   7.858   1.242
10798SOL    HW144425   8.362   7.892   1.296
10798SOL    HW244426   8.405   7.807   1.163
10799SOL     OW44427   8.489   8.149   0.429
10799SOL    HW144428   8.515   8.145   0.525
10799SOL    HW244429   8.404   8.098   0.415
10800SOL     OW44430   7.524   8.259   0.789
10800SOL    HW144431   7.623   8.247   0.798
10800SOL    HW244432   7.500   8.354   0.810
10801SOL     OW44433   8.313   7.796   0.195
10801SOL    HW144434   8.372   7.859   0.146
10801SOL    HW244435   8.332   7.702   0.166
10802SOL     OW44436   7.998   7.644   0.885
10802SOL    HW144437   7.993   7.639   0.985
10802SOL    HW244438   8.000   7.740   0.856
10803SOL     OW44439   8.906   8.183   0.728
10803SOL    HW144440   8.901   8.118   0.803
10803SOL    HW244441   8.986   8.242   0.741
10804SOL     OW44442   8.848   7.555   0.426
10804SOL    HW144443   8.824   7.518   0.336
10804SOL    HW244444   8.947   7.571   0.430
10805SOL     OW44445   7.830   8.148   0.480
10805SOL    HW144446   7.875   8.058   0.477
10805SOL    HW244447   7.736   8.137   0.513
10806SOL     OW44448   8.995   7.670   1.729
10806SOL    HW144449   8.990   7.707   1.821
10806SOL    HW244450   8.923   7.601   1.717
10807SOL     OW44451   8.062   7.570   0.117
10807SOL    HW144452   8.160   7.548   0.124
10807SOL    HW244453   8.031   7.553   0.024
10808SOL     OW44454   8.370   7.951   0.899
10808SOL    HW144455   8.345   7.942   0.803
10808SOL    HW244456   8.418   7.869   0.930
10809SOL     OW44457   7.987   7.512   0.512
10809SOL    HW144458   7.906   7.513   0.570
10809SOL    HW244459   7.990   7.595   0.457
10810SOL     OW44460   7.745   7.483   0.171
10810SOL    HW144461   7.794   7.567   0.150
10810SOL    HW244462   7.807   7.418   0.216
10811SOL     OW44463   8.383   7.684   0.480
10811SOL    HW144464   8.335   7.725   0.402
10811SOL    HW244465   8.482   7.682   0.461
10812SOL     OW44466   8.524   8.131   1.464
10812SOL    HW144467   8.444   8.070   1.467
10812SOL    HW244468   8.605   8.078   1.440
10813SOL     OW44469   8.480   7.997   0.016
10813SOL    HW144470   8.439   8.079  -0.023
10813SOL    HW244471   8.544   8.023   0.089
10814SOL     OW44472   8.009   7.670   1.147
10814SOL    HW144473   8.047   7.586   1.184
10814SOL    HW244474   7.921   7.689   1.191
10815SOL     OW44475   8.314   7.902   0.642
10815SOL    HW144476   8.282   7.974   0.580
10815SOL    HW244477   8.338   7.821   0.589
10816SOL     OW44478   8.465   7.487   0.753
10816SOL    HW144479   8.393   7.492   0.684
10816SOL    HW244480   8.441   7.418   0.822
10817SOL     OW44481   9.305   8.281   0.377
10817SOL    HW144482   9.347   8.217   0.441
10817SOL    HW244483   9.267   8.230   0.299
10818SOL     OW44484   8.838   8.023   0.078
10818SOL    HW144485   8.784   8.002   0.159
10818SOL    HW244486   8.929   7.982   0.087
10819SOL     OW44487   7.975   7.704   0.328
10819SOL    HW144488   8.002   7.645   0.253
10819SOL    HW244489   7.975   7.799   0.297
10820SOL     OW44490   9.086   8.547   1.079
10820SOL    HW144491   9.091   8.628   1.138
10820SOL    HW244492   9.000   8.549   1.028
10821SOL     OW44493   8.722   7.834   1.262
10821SOL    HW144494   8.743   7.908   1.326
10821SOL    HW244495   8.633   7.851   1.219
10822SOL     OW44496   8.014   7.985   0.865
10822SOL    HW144497   8.026   8.051   0.791
10822SOL    HW244498   8.060   8.019   0.948
10823SOL     OW44499   9.030   8.087   0.472
10823SOL    HW144500   8.999   8.148   0.545
10823SOL    HW244501   9.080   8.139   0.403
10824SOL     OW44502   8.657   7.973   0.275
10824SOL    HW144503   8.670   7.889   0.329
10824SOL    HW244504   8.628   8.047   0.335
10825SOL     OW44505   7.755   7.661   1.231
10825SOL    HW144506   7.732   7.698   1.321
10825SOL    HW244507   7.725   7.566   1.225
10826SOL     OW44508   8.180   8.082   1.064
10826SOL    HW144509   8.239   8.056   0.988
10826SOL    HW244510   8.152   8.178   1.053
10827SOL     OW44511   7.755   7.511   0.618
10827SOL    HW144512   7.744   7.605   0.651
10827SOL    HW244513   7.750   7.448   0.695
10828SOL     OW44514   9.070   7.815   0.374
10828SOL    HW144515   9.072   7.739   0.438
10828SOL    HW244516   9.022   7.892   0.414
10829SOL     OW44517   8.471   8.214   0.966
10829SOL    HW144518   8.486   8.235   1.062
10829SOL    HW244519   8.441   8.119   0.957
10830SOL     OW44520   8.988   7.722   0.125
10830SOL    HW144521   8.927   7.647   0.148
10830SOL    HW244522   9.010   7.774   0.208
10831SOL     OW44523   8.751   8.286   0.042
10831SOL    HW144524   8.785   8.193   0.057
10831SOL    HW244525   8.769   8.313  -0.053
10832SOL     OW44526   7.787   7.957   1.006
10832SOL    HW144527   7.735   7.874   0.989
10832SOL    HW244528   7.864   7.962   0.942
10833SOL     OW44529   8.608   7.655   1.477
10833SOL    HW144530   8.608   7.719   1.554
10833SOL    HW244531   8.636   7.703   1.394
10834SOL     OW44532   8.450   8.244   1.238
10834SOL    HW144533   8.491   8.212   1.324
10834SOL    HW244534   8.354   8.217   1.235
10835SOL     OW44535   7.488   7.992   1.114
10835SOL    HW144536   7.573   7.959   1.073
10835SOL    HW244537   7.501   8.007   1.212
10836SOL     OW44538   8.263   8.020   0.325
10836SOL    HW144539   8.270   7.931   0.279
10836SOL    HW244540   8.169   8.054   0.317
10837SOL     OW44541   9.105   8.052   1.206
10837SOL    HW144542   9.067   7.983   1.268
10837SOL    HW244543   9.187   8.016   1.162
10838SOL     OW44544   8.119   7.912   1.269
10838SOL    HW144545   8.085   7.823   1.239
10838SOL    HW244546   8.145   7.966   1.189
10839SOL     OW44547   7.921   7.948   0.191
10839SOL    HW144548   7.982   8.028   0.195
10839SOL    HW244549   7.826   7.979   0.198
10840SOL     OW44550   7.607   8.585   1.466
10840SOL    HW144551   7.629   8.524   1.542
10840SOL    HW244552   7.617   8.536   1.380
10841SOL     OW44553   8.750   8.303   0.309
10841SOL    HW144554   8.664   8.272   0.351
10841SOL    HW244555   8.746   8.289   0.210
10842SOL     OW44556   8.351   7.534   0.133
10842SOL    HW144557   8.402   7.535   0.047
10842SOL    HW244558   8.407   7.492   0.204
10843SOL     OW44559   9.174   7.583   0.523
10843SOL    HW144560   9.247   7.566   0.456
10843SOL    HW244561   9.143   7.496   0.561
10844SOL     OW44562   8.728   8.375   0.672
10844SOL    HW144563   8.788   8.294   0.674
10844SOL    HW244564   8.768   8.444   0.612
10845SOL     OW44565   9.289   7.623   0.963
10845SOL    HW144566   9.328   7.538   0.927
10845SOL    HW244567   9.191   7.625   0.944
10846SOL     OW44568   7.711   7.774   0.720
10846SOL    HW144569   7.632   7.825   0.686
10846SOL    HW244570   7.702   7.759   0.818
10847SOL     OW44571   8.364   8.358   0.291
10847SOL    HW144572   8.427   8.396   0.223
10847SOL    HW244573   8.404   8.275   0.330
10848SOL     OW44574   8.462   7.684   0.971
10848SOL    HW144575   8.454   7.648   0.878
10848SOL    HW244576   8.460   7.608   1.036
10849SOL     OW44577   7.520   7.614   0.318
10849SOL    HW144578   7.503   7.697   0.264
10849SOL    HW244579   7.610   7.577   0.296
10850SOL     OW44580   8.061   8.290   1.431
10850SOL    HW144581   8.117   8.371   1.414
10850SOL    HW244582   8.120   8.210   1.434
10851SOL     OW44583   9.122   8.331   1.254
10851SOL    HW144584   9.095   8.242   1.217
10851SOL    HW244585   9.123   8.399   1.181
10852SOL     OW44586   8.673   7.773   0.449
10852SOL    HW144587   8.738   7.699   0.438
10852SOL    HW244588   8.693   7.823   0.533
10853SOL     OW44589   8.042   8.193   0.652
10853SOL    HW144590   8.092   8.278   0.633
10853SOL    HW244591   7.954   8.195   0.604
10854SOL     OW44592   9.225   7.790   1.642
10854SOL    HW144593   9.208   7.821   1.548
10854SOL    HW244594   9.141   7.753   1.680
10855SOL     OW44595   9.178   8.382   1.517
10855SOL    HW144596   9.216   8.473   1.532
10855SOL    HW244597   9.170   8.365   1.418
10856SOL     OW44598   8.531   8.432   0.087
10856SOL    HW144599   8.508   8.485   0.005
10856SOL    HW244600   8.612   8.376   0.068
10857SOL     OW44601   9.272   7.640   1.227
10857SOL    HW144602   9.268   7.550   1.271
10857SOL    HW244603   9.275   7.629   1.128
10858SOL     OW44604   7.876   7.872   0.520
10858SOL    HW144605   7.906   7.800   0.458
10858SOL    HW244606   7.837   7.832   0.603
10859SOL     OW44607   7.765   7.995   1.280
10859SOL    HW144608   7.803   7.936   1.352
10859SOL    HW244609   7.805   7.969   1.192
10860SOL     OW44610   8.872   7.662   1.112
10860SOL    HW144611   8.924   7.597   1.167
10860SOL    HW244612   8.823   7.725   1.173
10861SOL     OW44613   8.449   7.482   1.154
10861SOL    HW144614   8.386   7.410   1.123
10861SOL    HW244615   8.542   7.446   1.154
10862SOL     OW44616   8.800   7.500   0.168
10862SOL    HW144617   8.835   7.459   0.084
10862SOL    HW244618   8.710   7.462   0.188
10863SOL     OW44619   8.748   7.901   0.691
10863SOL    HW144620   8.689   7.981   0.695
10863SOL    HW244621   8.763   7.866   0.784
10864SOL     OW44622   9.041   7.669   0.882
10864SOL    HW144623   8.957   7.668   0.936
10864SOL    HW244624   9.043   7.752   0.826
10865SOL     OW44625   8.133   8.460   2.527
10865SOL    HW144626   8.202   8.444   2.597
10865SOL    HW244627   8.060   8.517   2.565
10866SOL     OW44628   7.561   8.185   3.459
10866SOL    HW144629   7.649   8.172   3.504
10866SOL    HW244630   7.548   8.282   3.437
10867SOL     OW44631   8.257   7.452   2.364
10867SOL    HW144632   8.297   7.543   2.355
10867SOL    HW244633   8.157   7.460   2.370
10868SOL     OW44634   8.046   8.177   2.132
10868SOL    HW144635   8.070   8.246   2.064
10868SOL    HW244636   7.968   8.210   2.186
10869SOL     OW44637   8.255   8.053   3.327
10869SOL    HW144638   8.208   8.050   3.416
10869SOL    HW244639   8.204   7.998   3.261
10870SOL     OW44640   7.998   7.644   2.747
10870SOL    HW144641   7.993   7.639   2.847
10870SOL    HW244642   8.000   7.740   2.718
10871SOL     OW44643   7.650   7.733   3.360
10871SOL    HW144644   7.570   7.793   3.347
10871SOL    HW244645   7.640   7.684   3.446
10872SOL     OW44646   7.830   8.148   2.342
10872SOL    HW144647   7.875   8.058   2.339
10872SOL    HW244648   7.736   8.137   2.375
10873SOL     OW44649   8.524   8.131   3.326
10873SOL    HW144650   8.444   8.070   3.329
10873SOL    HW244651   8.605   8.078   3.302
10874SOL     OW44652   7.526   8.004   3.248
10874SOL    HW144653   7.618   8.003   3.207
10874SOL    HW244654   7.520   8.078   3.315
10875SOL     OW44655   8.914   8.038   2.854
10875SOL    HW144656   8.884   7.943   2.861
10875SOL    HW244657   8.987   8.054   2.920
10876SOL     OW44658   9.305   8.281   2.239
10876SOL    HW144659   9.347   8.217   2.303
10876SOL    HW244660   9.267   8.230   2.161
10877SOL     OW44661   8.838   8.023   1.940
10877SOL    HW144662   8.784   8.002   2.021
10877SOL    HW244663   8.929   7.982   1.949
10878SOL     OW44664   8.363   7.537   3.264
10878SOL    HW144665   8.388   7.517   3.169
10878SOL    HW244666   8.435   7.593   3.306
10879SOL     OW44667   9.030   8.087   2.334
10879SOL    HW144668   8.999   8.148   2.407
10879SOL    HW244669   9.080   8.139   2.265
10880SOL     OW44670   9.035   8.227   3.532
10880SOL    HW144671   8.943   8.265   3.527
10880SOL    HW244672   9.095   8.274   3.467
10881SOL     OW44673   8.461   7.553   3.632
10881SOL    HW144674   8.467   7.638   3.580
10881SOL    HW244675   8.493   7.477   3.575
10882SOL     OW44676   8.021   8.318   2.891
10882SOL    HW144677   8.065   8.407   2.882
10882SOL    HW244678   7.958   8.318   2.968
10883SOL     OW44679   9.176   8.383   3.716
10883SOL    HW144680   9.130   8.376   3.627
10883SOL    HW244681   9.114   8.427   3.782
10884SOL     OW44682   7.767   8.258   2.811
10884SOL    HW144683   7.860   8.294   2.816
10884SOL    HW244684   7.761   8.173   2.863
10885SOL     OW44685   8.586   7.828   3.540
10885SOL    HW144686   8.541   7.891   3.604
10885SOL    HW244687   8.679   7.859   3.523
10886SOL     OW44688   8.608   7.655   3.339
10886SOL    HW144689   8.608   7.719   3.416
10886SOL    HW244690   8.636   7.703   3.256
10887SOL     OW44691   8.450   8.244   3.100
10887SOL    HW144692   8.491   8.212   3.186
10887SOL    HW244693   8.354   8.217   3.097
10888SOL     OW44694   7.488   7.992   2.976
10888SOL    HW144695   7.573   7.959   2.935
10888SOL    HW244696   7.501   8.007   3.074
10889SOL     OW44697   8.263   8.020   2.187
10889SOL    HW144698   8.270   7.931   2.141
10889SOL    HW244699   8.169   8.054   2.179
10890SOL     OW44700   8.119   7.912   3.131
10890SOL    HW144701   8.085   7.823   3.101
10890SOL    HW244702   8.145   7.966   3.051
10891SOL     OW44703   7.921   7.948   2.053
10891SOL    HW144704   7.982   8.028   2.057
10891SOL    HW244705   7.826   7.979   2.060
10892SOL     OW44706   9.174   7.583   2.385
10892SOL    HW144707   9.247   7.566   2.318
10892SOL    HW244708   9.143   7.496   2.423
10893SOL     OW44709   8.728   8.375   2.534
10893SOL    HW144710   8.788   8.294   2.536
10893SOL    HW244711   8.768   8.444   2.474
10894SOL     OW44712   8.061   8.290   3.293
10894SOL    HW144713   8.117   8.371   3.276
10894SOL    HW244714   8.120   8.210   3.296
10895SOL     OW44715   8.164   8.013   3.570
10895SOL    HW144716   8.183   8.078   3.644
10895SOL    HW244717   8.224   7.933   3.579
10896SOL     OW44718   9.178   8.382   3.379
10896SOL    HW144719   9.216   8.473   3.394
10896SOL    HW244720   9.170   8.365   3.280
10897SOL     OW44721   9.272   7.640   3.089
10897SOL    HW144722   9.268   7.550   3.133
10897SOL    HW244723   9.275   7.629   2.990
10898SOL     OW44724   8.449   7.482   3.016
10898SOL    HW144725   8.386   7.410   2.985
10898SOL    HW244726   8.542   7.446   3.016
10899SOL     OW44727   9.203   8.055   3.955
10899SOL    HW144728   9.191   8.042   3.856
10899SOL    HW244729   9.173   7.974   4.004
10900SOL     OW44730   8.298   8.246   5.547
10900SOL    HW144731   8.294   8.322   5.612
10900SOL    HW244732   8.320   8.282   5.456
10901SOL     OW44733   9.051   7.895   4.461
10901SOL    HW144734   8.977   7.941   4.411
10901SOL    HW244735   9.102   7.963   4.514
10902SOL     OW44736   9.042   7.562   5.204
10902SOL    HW144737   9.024   7.629   5.132
10902SOL    HW244738   9.039   7.608   5.293
10903SOL     OW44739   8.973   8.447   3.914
10903SOL    HW144740   8.910   8.371   3.927
10903SOL    HW244741   9.021   8.465   4.000
10904SOL     OW44742   8.421   8.338   5.296
10904SOL    HW144743   8.467   8.254   5.267
10904SOL    HW244744   8.365   8.372   5.221
10905SOL     OW44745   8.439   7.858   4.966
10905SOL    HW144746   8.362   7.892   5.020
10905SOL    HW244747   8.405   7.807   4.887
10906SOL     OW44748   7.524   8.259   4.513
10906SOL    HW144749   7.623   8.247   4.522
10906SOL    HW244750   7.500   8.354   4.534
10907SOL     OW44751   8.313   7.796   3.919
10907SOL    HW144752   8.372   7.859   3.870
10907SOL    HW244753   8.332   7.702   3.890
10908SOL     OW44754   7.998   7.644   4.609
10908SOL    HW144755   7.993   7.639   4.709
10908SOL    HW244756   8.000   7.740   4.580
10909SOL     OW44757   8.906   8.183   4.452
10909SOL    HW144758   8.901   8.118   4.527
10909SOL    HW244759   8.986   8.242   4.465
10910SOL     OW44760   8.848   7.555   4.150
10910SOL    HW144761   8.824   7.518   4.060
10910SOL    HW244762   8.947   7.571   4.154
10911SOL     OW44763   8.062   7.570   3.841
10911SOL    HW144764   8.160   7.548   3.848
10911SOL    HW244765   8.031   7.553   3.748
10912SOL     OW44766   8.229   7.712   5.473
10912SOL    HW144767   8.296   7.651   5.516
10912SOL    HW244768   8.156   7.731   5.538
10913SOL     OW44769   8.370   7.951   4.623
10913SOL    HW144770   8.345   7.942   4.527
10913SOL    HW244771   8.418   7.869   4.654
10914SOL     OW44772   7.987   7.512   4.236
10914SOL    HW144773   7.906   7.513   4.294
10914SOL    HW244774   7.990   7.595   4.181
10915SOL     OW44775   8.383   7.684   4.204
10915SOL    HW144776   8.335   7.725   4.126
10915SOL    HW244777   8.482   7.682   4.185
10916SOL     OW44778   8.465   7.487   4.477
10916SOL    HW144779   8.393   7.492   4.408
10916SOL    HW244780   8.441   7.418   4.546
10917SOL     OW44781   9.305   8.281   4.101
10917SOL    HW144782   9.347   8.217   4.165
10917SOL    HW244783   9.267   8.230   4.023
10918SOL     OW44784   8.363   7.537   5.126
10918SOL    HW144785   8.388   7.517   5.031
10918SOL    HW244786   8.435   7.593   5.168
10919SOL     OW44787   7.850   8.199   5.322
10919SOL    HW144788   7.918   8.254   5.275
10919SOL    HW244789   7.890   8.111   5.349
10920SOL     OW44790   8.461   7.553   5.494
10920SOL    HW144791   8.467   7.638   5.442
10920SOL    HW244792   8.493   7.477   5.437
10921SOL     OW44793   7.952   7.498   5.464
10921SOL    HW144794   7.910   7.441   5.394
10921SOL    HW244795   7.886   7.567   5.496
10922SOL     OW44796   9.176   8.383   5.578
10922SOL    HW144797   9.130   8.376   5.489
10922SOL    HW244798   9.114   8.427   5.644
10923SOL     OW44799   9.070   7.815   4.098
10923SOL    HW144800   9.072   7.739   4.162
10923SOL    HW244801   9.022   7.892   4.138
10924SOL     OW44802   7.798   8.346   5.528
10924SOL    HW144803   7.874   8.390   5.576
10924SOL    HW244804   7.833   8.299   5.446
10925SOL     OW44805   8.586   7.828   5.402
10925SOL    HW144806   8.541   7.891   5.466
10925SOL    HW244807   8.679   7.859   5.385
10926SOL     OW44808   7.488   7.992   4.838
10926SOL    HW144809   7.573   7.959   4.797
10926SOL    HW244810   7.501   8.007   4.936
10927SOL     OW44811   8.817   8.398   5.384
10927SOL    HW144812   8.856   8.487   5.404
10927SOL    HW244813   8.827   8.378   5.287
10928SOL     OW44814   7.553   8.461   5.450
10928SOL    HW144815   7.476   8.428   5.504
10928SOL    HW244816   7.638   8.431   5.492
10929SOL     OW44817   8.120   7.651   5.213
10929SOL    HW144818   8.210   7.635   5.173
10929SOL    HW244819   8.128   7.656   5.312
10930SOL     OW44820   8.061   8.290   5.155
10930SOL    HW144821   8.117   8.371   5.138
10930SOL    HW244822   8.120   8.210   5.158
10931SOL     OW44823   8.164   8.013   5.432
10931SOL    HW144824   8.183   8.078   5.506
10931SOL    HW244825   8.224   7.933   5.441
10932SOL     OW44826   8.042   8.193   4.376
10932SOL    HW144827   8.092   8.278   4.357
10932SOL    HW244828   7.954   8.195   4.328
10933SOL     OW44829   8.531   8.432   3.811
10933SOL    HW144830   8.508   8.485   3.729
10933SOL    HW244831   8.612   8.376   3.792
10934SOL     OW44832   9.272   7.640   4.951
10934SOL    HW144833   9.268   7.550   4.995
10934SOL    HW244834   9.275   7.629   4.852
10935SOL     OW44835   7.765   7.995   5.004
10935SOL    HW144836   7.803   7.936   5.076
10935SOL    HW244837   7.805   7.969   4.916
10936SOL     OW44838   7.673   7.723   6.582
10936SOL    HW144839   7.708   7.706   6.674
10936SOL    HW244840   7.585   7.678   6.570
10937SOL     OW44841   7.467   7.816   6.233
10937SOL    HW144842   7.385   7.859   6.272
10937SOL    HW244843   7.439   7.743   6.170
10938SOL     OW44844   8.583   8.151   6.303
10938SOL    HW144845   8.640   8.229   6.278
10938SOL    HW244846   8.523   8.177   6.379
10939SOL     OW44847   9.203   8.055   5.817
10939SOL    HW144848   9.191   8.042   5.718
10939SOL    HW244849   9.173   7.974   5.866
10940SOL     OW44850   8.216   8.592   6.609
10940SOL    HW144851   8.138   8.609   6.669
10940SOL    HW244852   8.250   8.679   6.573
10941SOL     OW44853   8.133   8.460   6.251
10941SOL    HW144854   8.202   8.444   6.321
10941SOL    HW244855   8.060   8.517   6.289
10942SOL     OW44856   7.886   7.840   7.085
10942SOL    HW144857   7.968   7.784   7.094
10942SOL    HW244858   7.805   7.782   7.089
10943SOL     OW44859   9.051   7.895   6.323
10943SOL    HW144860   8.977   7.941   6.273
10943SOL    HW244861   9.102   7.963   6.376
10944SOL     OW44862   7.688   8.539   6.472
10944SOL    HW144863   7.702   8.455   6.524
10944SOL    HW244864   7.633   8.603   6.527
10945SOL     OW44865   9.042   7.562   7.066
10945SOL    HW144866   9.024   7.629   6.994
10945SOL    HW244867   9.039   7.608   7.155
10946SOL     OW44868   7.570   8.091   6.149
10946SOL    HW144869   7.525   8.003   6.166
10946SOL    HW244870   7.569   8.145   6.233
10947SOL     OW44871   8.257   7.452   6.088
10947SOL    HW144872   8.297   7.543   6.079
10947SOL    HW244873   8.157   7.460   6.094
10948SOL     OW44874   7.645   8.424   6.850
10948SOL    HW144875   7.734   8.379   6.836
10948SOL    HW244876   7.572   8.359   6.831
10949SOL     OW44877   8.973   8.447   5.776
10949SOL    HW144878   8.910   8.371   5.789
10949SOL    HW244879   9.021   8.465   5.862
10950SOL     OW44880   8.046   8.177   5.856
10950SOL    HW144881   8.070   8.246   5.788
10950SOL    HW244882   7.968   8.210   5.910
10951SOL     OW44883   8.729   7.793   6.530
10951SOL    HW144884   8.643   7.743   6.517
10951SOL    HW244885   8.791   7.739   6.586
10952SOL     OW44886   8.255   8.053   7.051
10952SOL    HW144887   8.208   8.050   7.140
10952SOL    HW244888   8.204   7.998   6.985
10953SOL     OW44889   8.439   7.858   6.828
10953SOL    HW144890   8.362   7.892   6.882
10953SOL    HW244891   8.405   7.807   6.749
10954SOL     OW44892   8.489   8.149   6.015
10954SOL    HW144893   8.515   8.145   6.111
10954SOL    HW244894   8.404   8.098   6.001
10955SOL     OW44895   7.524   8.259   6.375
10955SOL    HW144896   7.623   8.247   6.384
10955SOL    HW244897   7.500   8.354   6.396
10956SOL     OW44898   8.313   7.796   5.781
10956SOL    HW144899   8.372   7.859   5.732
10956SOL    HW244900   8.332   7.702   5.752
10957SOL     OW44901   7.998   7.644   6.471
10957SOL    HW144902   7.993   7.639   6.571
10957SOL    HW244903   8.000   7.740   6.442
10958SOL     OW44904   8.906   8.183   6.314
10958SOL    HW144905   8.901   8.118   6.389
10958SOL    HW244906   8.986   8.242   6.327
10959SOL     OW44907   7.650   7.733   7.084
10959SOL    HW144908   7.570   7.793   7.071
10959SOL    HW244909   7.640   7.684   7.170
10960SOL     OW44910   8.848   7.555   6.012
10960SOL    HW144911   8.824   7.518   5.922
10960SOL    HW244912   8.947   7.571   6.016
10961SOL     OW44913   7.830   8.148   6.066
10961SOL    HW144914   7.875   8.058   6.063
10961SOL    HW244915   7.736   8.137   6.099
10962SOL     OW44916   8.062   7.570   5.703
10962SOL    HW144917   8.160   7.548   5.710
10962SOL    HW244918   8.031   7.553   5.610
10963SOL     OW44919   8.370   7.951   6.485
10963SOL    HW144920   8.345   7.942   6.389
10963SOL    HW244921   8.418   7.869   6.516
10964SOL     OW44922   7.987   7.512   6.098
10964SOL    HW144923   7.906   7.513   6.156
10964SOL    HW244924   7.990   7.595   6.043
10965SOL     OW44925   7.745   7.483   5.757
10965SOL    HW144926   7.794   7.567   5.736
10965SOL    HW244927   7.807   7.418   5.802
10966SOL     OW44928   8.383   7.684   6.066
10966SOL    HW144929   8.335   7.725   5.988
10966SOL    HW244930   8.482   7.682   6.047
10967SOL     OW44931   8.480   7.997   5.602
10967SOL    HW144932   8.439   8.079   5.563
10967SOL    HW244933   8.544   8.023   5.675
10968SOL     OW44934   7.526   8.004   6.972
10968SOL    HW144935   7.618   8.003   6.931
10968SOL    HW244936   7.520   8.078   7.039
10969SOL     OW44937   8.009   7.670   6.733
10969SOL    HW144938   8.047   7.586   6.770
10969SOL    HW244939   7.921   7.689   6.777
10970SOL     OW44940   8.314   7.902   6.228
10970SOL    HW144941   8.282   7.974   6.166
10970SOL    HW244942   8.338   7.821   6.175
10971SOL     OW44943   8.465   7.487   6.339
10971SOL    HW144944   8.393   7.492   6.270
10971SOL    HW244945   8.441   7.418   6.408
10972SOL     OW44946   8.914   8.038   6.578
10972SOL    HW144947   8.884   7.943   6.585
10972SOL    HW244948   8.987   8.054   6.644
10973SOL     OW44949   9.305   8.281   5.963
10973SOL    HW144950   9.347   8.217   6.027
10973SOL    HW244951   9.267   8.230   5.885
10974SOL     OW44952   7.975   7.704   5.914
10974SOL    HW144953   8.002   7.645   5.839
10974SOL    HW244954   7.975   7.799   5.883
10975SOL     OW44955   9.086   8.547   6.665
10975SOL    HW144956   9.091   8.628   6.724
10975SOL    HW244957   9.000   8.549   6.614
10976SOL     OW44958   8.363   7.537   6.988
10976SOL    HW144959   8.388   7.517   6.893
10976SOL    HW244960   8.435   7.593   7.030
10977SOL     OW44961   7.858   8.261   6.837
10977SOL    HW144962   7.944   8.273   6.887
10977SOL    HW244963   7.816   8.174   6.864
10978SOL     OW44964   8.722   7.834   6.848
10978SOL    HW144965   8.743   7.908   6.912
10978SOL    HW244966   8.633   7.851   6.805
10979SOL     OW44967   8.014   7.985   6.451
10979SOL    HW144968   8.026   8.051   6.377
10979SOL    HW244969   8.060   8.019   6.534
10980SOL     OW44970   9.030   8.087   6.058
10980SOL    HW144971   8.999   8.148   6.131
10980SOL    HW244972   9.080   8.139   5.989
10981SOL     OW44973   7.850   8.199   7.184
10981SOL    HW144974   7.918   8.254   7.137
10981SOL    HW244975   7.890   8.111   7.211
10982SOL     OW44976   9.035   8.227   7.256
10982SOL    HW144977   8.943   8.265   7.251
10982SOL    HW244978   9.095   8.274   7.191
10983SOL     OW44979   8.021   8.318   6.615
10983SOL    HW144980   8.065   8.407   6.606
10983SOL    HW244981   7.958   8.318   6.692
10984SOL     OW44982   8.808   8.310   6.631
10984SOL    HW144983   8.733   8.310   6.565
10984SOL    HW244984   8.845   8.218   6.640
10985SOL     OW44985   8.657   7.973   5.861
10985SOL    HW144986   8.670   7.889   5.915
10985SOL    HW244987   8.628   8.047   5.921
10986SOL     OW44988   7.755   7.661   6.817
10986SOL    HW144989   7.732   7.698   6.907
10986SOL    HW244990   7.725   7.566   6.811
10987SOL     OW44991   8.180   8.082   6.650
10987SOL    HW144992   8.239   8.056   6.574
10987SOL    HW244993   8.152   8.178   6.639
10988SOL     OW44994   7.755   7.511   6.204
10988SOL    HW144995   7.744   7.605   6.237
10988SOL    HW244996   7.750   7.448   6.281
10989SOL     OW44997   9.070   7.815   5.960
10989SOL    HW144998   9.072   7.739   6.024
10989SOL    HW244999   9.022   7.892   6.000
10990SOL     OW45000   8.471   8.214   6.552
10990SOL    HW145001   8.486   8.235   6.648
10990SOL    HW245002   8.441   8.119   6.543
10991SOL     OW45003   8.988   7.722   5.711
10991SOL    HW145004   8.927   7.647   5.734
10991SOL    HW245005   9.010   7.774   5.794
10992SOL     OW45006   7.767   8.258   6.535
10992SOL    HW145007   7.860   8.294   6.540
10992SOL    HW245008   7.761   8.173   6.587
10993SOL     OW45009   7.787   7.957   6.592
10993SOL    HW145010   7.735   7.874   6.575
10993SOL    HW245011   7.864   7.962   6.528
10994SOL     OW45012   8.586   7.828   7.264
10994SOL    HW145013   8.541   7.891   7.328
10994SOL    HW245014   8.679   7.859   7.247
10995SOL     OW45015   8.608   7.655   7.063
10995SOL    HW145016   8.608   7.719   7.140
10995SOL    HW245017   8.636   7.703   6.980
10996SOL     OW45018   8.450   8.244   6.824
10996SOL    HW145019   8.491   8.212   6.910
10996SOL    HW245020   8.354   8.217   6.821
10997SOL     OW45021   7.488   7.992   6.700
10997SOL    HW145022   7.573   7.959   6.659
10997SOL    HW245023   7.501   8.007   6.798
10998SOL     OW45024   8.263   8.020   5.911
10998SOL    HW145025   8.270   7.931   5.865
10998SOL    HW245026   8.169   8.054   5.903
10999SOL     OW45027   9.105   8.052   6.792
10999SOL    HW145028   9.067   7.983   6.854
10999SOL    HW245029   9.187   8.016   6.748
11000SOL     OW45030   8.119   7.912   6.855
11000SOL    HW145031   8.085   7.823   6.825
11000SOL    HW245032   8.145   7.966   6.775
11001SOL     OW45033   7.607   8.585   7.052
11001SOL    HW145034   7.629   8.524   7.128
11001SOL    HW245035   7.617   8.536   6.966
11002SOL     OW45036   8.795   8.507   6.820
11002SOL    HW145037   8.819   8.444   6.746
11002SOL    HW245038   8.705   8.547   6.802
11003SOL     OW45039   8.750   8.303   5.895
11003SOL    HW145040   8.664   8.272   5.937
11003SOL    HW245041   8.746   8.289   5.796
11004SOL     OW45042   9.174   7.583   6.109
11004SOL    HW145043   9.247   7.566   6.042
11004SOL    HW245044   9.143   7.496   6.147
11005SOL     OW45045   8.728   8.375   6.258
11005SOL    HW145046   8.788   8.294   6.260
11005SOL    HW245047   8.768   8.444   6.198
11006SOL     OW45048   9.289   7.623   6.549
11006SOL    HW145049   9.328   7.538   6.513
11006SOL    HW245050   9.191   7.625   6.530
11007SOL     OW45051   7.711   7.774   6.306
11007SOL    HW145052   7.632   7.825   6.272
11007SOL    HW245053   7.702   7.759   6.404
11008SOL     OW45054   8.364   8.358   5.877
11008SOL    HW145055   8.427   8.396   5.809
11008SOL    HW245056   8.404   8.275   5.916
11009SOL     OW45057   8.462   7.684   6.557
11009SOL    HW145058   8.454   7.648   6.464
11009SOL    HW245059   8.460   7.608   6.622
11010SOL     OW45060   9.157   7.833   6.967
11010SOL    HW145061   9.230   7.902   6.971
11010SOL    HW245062   9.185   7.758   6.908
11011SOL     OW45063   7.523   7.793   5.619
11011SOL    HW145064   7.431   7.765   5.590
11011SOL    HW245065   7.554   7.870   5.563
11012SOL     OW45066   8.888   8.304   6.984
11012SOL    HW145067   8.831   8.356   6.921
11012SOL    HW245068   8.984   8.316   6.960
11013SOL     OW45069   7.520   7.614   5.904
11013SOL    HW145070   7.503   7.697   5.850
11013SOL    HW245071   7.610   7.577   5.882
11014SOL     OW45072   8.061   8.290   7.017
11014SOL    HW145073   8.117   8.371   7.000
11014SOL    HW245074   8.120   8.210   7.020
11015SOL     OW45075   9.122   8.331   6.840
11015SOL    HW145076   9.095   8.242   6.803
11015SOL    HW245077   9.123   8.399   6.767
11016SOL     OW45078   8.673   7.773   6.035
11016SOL    HW145079   8.738   7.699   6.024
11016SOL    HW245080   8.693   7.823   6.119
11017SOL     OW45081   8.042   8.193   6.238
11017SOL    HW145082   8.092   8.278   6.219
11017SOL    HW245083   7.954   8.195   6.190
11018SOL     OW45084   9.225   7.790   7.228
11018SOL    HW145085   9.208   7.821   7.134
11018SOL    HW245086   9.141   7.753   7.266
11019SOL     OW45087   9.178   8.382   7.103
11019SOL    HW145088   9.216   8.473   7.118
11019SOL    HW245089   9.170   8.365   7.004
11020SOL     OW45090   8.531   8.432   5.673
11020SOL    HW145091   8.508   8.485   5.591
11020SOL    HW245092   8.612   8.376   5.654
11021SOL     OW45093   9.272   7.640   6.813
11021SOL    HW145094   9.268   7.550   6.857
11021SOL    HW245095   9.275   7.629   6.714
11022SOL     OW45096   7.876   7.872   6.106
11022SOL    HW145097   7.906   7.800   6.044
11022SOL    HW245098   7.837   7.832   6.189
11023SOL     OW45099   7.765   7.995   6.866
11023SOL    HW145100   7.803   7.936   6.938
11023SOL    HW245101   7.805   7.969   6.778
11024SOL     OW45102   8.872   7.662   6.698
11024SOL    HW145103   8.924   7.597   6.753
11024SOL    HW245104   8.823   7.725   6.759
11025SOL     OW45105   8.449   7.482   6.740
11025SOL    HW145106   8.386   7.410   6.709
11025SOL    HW245107   8.542   7.446   6.740
11026SOL     OW45108   8.800   7.500   5.754
11026SOL    HW145109   8.835   7.459   5.670
11026SOL    HW245110   8.710   7.462   5.774
11027SOL     OW45111   8.748   7.901   6.277
11027SOL    HW145112   8.689   7.981   6.281
11027SOL    HW245113   8.763   7.866   6.370
11028SOL     OW45114   9.041   7.669   6.468
11028SOL    HW145115   8.957   7.668   6.522
11028SOL    HW245116   9.043   7.752   6.412
11029SOL     OW45117   9.541   1.713   0.483
11029SOL    HW145118   9.575   1.790   0.537
11029SOL    HW245119   9.585   1.713   0.393
11030SOL     OW45120   9.432   0.643   0.563
11030SOL    HW145121   9.387   0.555   0.580
11030SOL    HW245122   9.431   0.697   0.647
11031SOL     OW45123   9.337   1.596   0.117
11031SOL    HW145124   9.318   1.500   0.138
11031SOL    HW245125   9.304   1.654   0.192
11032SOL     OW45126   9.617   0.063   0.618
11032SOL    HW145127   9.606   0.157   0.651
11032SOL    HW245128   9.612   0.000   0.695
11033SOL     OW45129   9.469   1.137   1.466
11033SOL    HW145130   9.491   1.076   1.542
11033SOL    HW245131   9.479   1.088   1.380
11034SOL     OW45132   9.541   1.713   2.345
11034SOL    HW145133   9.575   1.790   2.399
11034SOL    HW245134   9.585   1.713   2.255
11035SOL     OW45135   9.432   0.643   2.425
11035SOL    HW145136   9.387   0.555   2.442
11035SOL    HW245137   9.431   0.697   2.509
11036SOL     OW45138   9.337   1.596   1.979
11036SOL    HW145139   9.318   1.500   2.000
11036SOL    HW245140   9.304   1.654   2.054
11037SOL     OW45141   9.617   0.063   2.480
11037SOL    HW145142   9.606   0.157   2.513
11037SOL    HW245143   9.612   0.000   2.557
11038SOL     OW45144   9.337   1.596   3.841
11038SOL    HW145145   9.318   1.500   3.862
11038SOL    HW245146   9.304   1.654   3.916
11039SOL     OW45147   9.617   0.063   4.342
11039SOL    HW145148   9.606   0.157   4.375
11039SOL    HW245149   9.612   0.000   4.419
11040SOL     OW45150   9.562   1.564   5.468
11040SOL    HW145151   9.532   1.621   5.544
11040SOL    HW245152   9.555   1.467   5.494
11041SOL     OW45153   9.541   1.713   6.069
11041SOL    HW145154   9.575   1.790   6.123
11041SOL    HW245155   9.585   1.713   5.979
11042SOL     OW45156   9.432   0.643   6.149
11042SOL    HW145157   9.387   0.555   6.166
11042SOL    HW245158   9.431   0.697   6.233
11043SOL     OW45159   9.337   1.596   5.703
11043SOL    HW145160   9.318   1.500   5.724
11043SOL    HW245161   9.304   1.654   5.778
11044SOL     OW45162   9.423   0.737   7.183
11044SOL    HW145163   9.511   0.724   7.228
11044SOL    HW245164   9.410   0.834   7.161
11045SOL     OW45165   9.617   0.063   6.204
11045SOL    HW145166   9.606   0.157   6.237
11045SOL    HW245167   9.612   0.000   6.281
11046SOL     OW45168   9.469   1.137   7.052
11046SOL    HW145169   9.491   1.076   7.128
11046SOL    HW245170   9.479   1.088   6.966
11047SOL     OW45171   9.541   3.575   0.483
11047SOL    HW145172   9.575   3.652   0.537
11047SOL    HW245173   9.585   3.575   0.393
11048SOL     OW45174   9.432   2.505   0.563
11048SOL    HW145175   9.387   2.417   0.580
11048SOL    HW245176   9.431   2.559   0.647
11049SOL     OW45177   9.337   3.458   0.117
11049SOL    HW145178   9.318   3.362   0.138
11049SOL    HW245179   9.304   3.516   0.192
11050SOL     OW45180   9.617   2.075   1.231
11050SOL    HW145181   9.594   2.112   1.321
11050SOL    HW245182   9.587   1.980   1.225
11051SOL     OW45183   9.617   1.925   0.618
11051SOL    HW145184   9.606   2.019   0.651
11051SOL    HW245185   9.612   1.862   0.695
11052SOL     OW45186   9.562   3.426   3.606
11052SOL    HW145187   9.532   3.483   3.682
11052SOL    HW245188   9.555   3.329   3.632
11053SOL     OW45189   9.469   2.999   3.328
11053SOL    HW145190   9.491   2.938   3.404
11053SOL    HW245191   9.479   2.950   3.242
11054SOL     OW45192   9.617   2.075   4.955
11054SOL    HW145193   9.594   2.112   5.045
11054SOL    HW245194   9.587   1.980   4.949
11055SOL     OW45195   9.617   1.925   4.342
11055SOL    HW145196   9.606   2.019   4.375
11055SOL    HW245197   9.612   1.862   4.419
11056SOL     OW45198   9.432   2.505   6.149
11056SOL    HW145199   9.387   2.417   6.166
11056SOL    HW245200   9.431   2.559   6.233
11057SOL     OW45201   9.337   3.458   5.703
11057SOL    HW145202   9.318   3.362   5.724
11057SOL    HW245203   9.304   3.516   5.778
11058SOL     OW45204   9.423   2.599   7.183
11058SOL    HW145205   9.511   2.586   7.228
11058SOL    HW245206   9.410   2.696   7.161
11059SOL     OW45207   9.617   2.075   6.817
11059SOL    HW145208   9.594   2.112   6.907
11059SOL    HW245209   9.587   1.980   6.811
11060SOL     OW45210   9.617   1.925   6.204
11060SOL    HW145211   9.606   2.019   6.237
11060SOL    HW245212   9.612   1.862   6.281
11061SOL     OW45213   9.469   2.999   7.052
11061SOL    HW145214   9.491   2.938   7.128
11061SOL    HW245215   9.479   2.950   6.966
11062SOL     OW45216   9.541   5.437   0.483
11062SOL    HW145217   9.575   5.514   0.537
11062SOL    HW245218   9.585   5.437   0.393
11063SOL     OW45219   9.432   4.367   0.563
11063SOL    HW145220   9.387   4.279   0.580
11063SOL    HW245221   9.431   4.421   0.647
11064SOL     OW45222   9.337   5.320   0.117
11064SOL    HW145223   9.318   5.224   0.138
11064SOL    HW245224   9.304   5.378   0.192
11065SOL     OW45225   9.617   3.937   1.231
11065SOL    HW145226   9.594   3.974   1.321
11065SOL    HW245227   9.587   3.842   1.225
11066SOL     OW45228   9.617   3.787   0.618
11066SOL    HW145229   9.606   3.881   0.651
11066SOL    HW245230   9.612   3.724   0.695
11067SOL     OW45231   9.541   5.437   2.345
11067SOL    HW145232   9.575   5.514   2.399
11067SOL    HW245233   9.585   5.437   2.255
11068SOL     OW45234   9.617   3.937   3.093
11068SOL    HW145235   9.594   3.974   3.183
11068SOL    HW245236   9.587   3.842   3.087
11069SOL     OW45237   9.617   3.787   2.480
11069SOL    HW145238   9.606   3.881   2.513
11069SOL    HW245239   9.612   3.724   2.557
11070SOL     OW45240   9.562   5.288   3.606
11070SOL    HW145241   9.532   5.345   3.682
11070SOL    HW245242   9.555   5.191   3.632
11071SOL     OW45243   9.469   4.861   3.328
11071SOL    HW145244   9.491   4.800   3.404
11071SOL    HW245245   9.479   4.812   3.242
11072SOL     OW45246   9.432   4.367   4.287
11072SOL    HW145247   9.387   4.279   4.304
11072SOL    HW245248   9.431   4.421   4.371
11073SOL     OW45249   9.337   5.320   3.841
11073SOL    HW145250   9.318   5.224   3.862
11073SOL    HW245251   9.304   5.378   3.916
11074SOL     OW45252   9.617   3.937   4.955
11074SOL    HW145253   9.594   3.974   5.045
11074SOL    HW245254   9.587   3.842   4.949
11075SOL     OW45255   9.562   5.288   5.468
11075SOL    HW145256   9.532   5.345   5.544
11075SOL    HW245257   9.555   5.191   5.494
11076SOL     OW45258   9.469   4.861   5.190
11076SOL    HW145259   9.491   4.800   5.266
11076SOL    HW245260   9.479   4.812   5.104
11077SOL     OW45261   9.541   5.437   6.069
11077SOL    HW145262   9.575   5.514   6.123
11077SOL    HW245263   9.585   5.437   5.979
11078SOL     OW45264   9.432   4.367   6.149
11078SOL    HW145265   9.387   4.279   6.166
11078SOL    HW245266   9.431   4.421   6.233
11079SOL     OW45267   9.337   5.320   5.703
11079SOL    HW145268   9.318   5.224   5.724
11079SOL    HW245269   9.304   5.378   5.778
11080SOL     OW45270   9.423   4.461   7.183
11080SOL    HW145271   9.511   4.448   7.228
11080SOL    HW245272   9.410   4.558   7.161
11081SOL     OW45273   9.617   3.937   6.817
11081SOL    HW145274   9.594   3.974   6.907
11081SOL    HW245275   9.587   3.842   6.811
11082SOL     OW45276   9.617   3.787   6.204
11082SOL    HW145277   9.606   3.881   6.237
11082SOL    HW245278   9.612   3.724   6.281
11083SOL     OW45279   9.469   4.861   7.052
11083SOL    HW145280   9.491   4.800   7.128
11083SOL    HW245281   9.479   4.812   6.966
11084SOL     OW45282   9.541   7.299   0.483
11084SOL    HW145283   9.575   7.376   0.537
11084SOL    HW245284   9.585   7.299   0.393
11085SOL     OW45285   9.337   7.182   0.117
11085SOL    HW145286   9.318   7.086   0.138
11085SOL    HW245287   9.304   7.240   0.192
11086SOL     OW45288   9.617   5.799   1.231
11086SOL    HW145289   9.594   5.836   1.321
11086SOL    HW245290   9.587   5.704   1.225
11087SOL     OW45291   9.617   5.649   0.618
11087SOL    HW145292   9.606   5.743   0.651
11087SOL    HW245293   9.612   5.586   0.695
11088SOL     OW45294   9.469   6.723   1.466
11088SOL    HW145295   9.491   6.662   1.542
11088SOL    HW245296   9.479   6.674   1.380
11089SOL     OW45297   9.541   7.299   2.345
11089SOL    HW145298   9.575   7.376   2.399
11089SOL    HW245299   9.585   7.299   2.255
11090SOL     OW45300   9.617   5.649   2.480
11090SOL    HW145301   9.606   5.743   2.513
11090SOL    HW245302   9.612   5.586   2.557
11091SOL     OW45303   9.562   7.150   3.606
11091SOL    HW145304   9.532   7.207   3.682
11091SOL    HW245305   9.555   7.053   3.632
11092SOL     OW45306   9.617   5.799   4.955
11092SOL    HW145307   9.594   5.836   5.045
11092SOL    HW245308   9.587   5.704   4.949
11093SOL     OW45309   9.562   7.150   5.468
11093SOL    HW145310   9.532   7.207   5.544
11093SOL    HW245311   9.555   7.053   5.494
11094SOL     OW45312   9.469   6.723   5.190
11094SOL    HW145313   9.491   6.662   5.266
11094SOL    HW245314   9.479   6.674   5.104
11095SOL     OW45315   9.541   7.299   6.069
11095SOL    HW145316   9.575   7.376   6.123
11095SOL    HW245317   9.585   7.299   5.979
11096SOL     OW45318   9.432   6.229   6.149
11096SOL    HW145319   9.387   6.141   6.166
11096SOL    HW245320   9.431   6.283   6.233
11097SOL     OW45321   9.337   7.182   5.703
11097SOL    HW145322   9.318   7.086   5.724
11097SOL    HW245323   9.304   7.240   5.778
11098SOL     OW45324   9.423   6.323   7.183
11098SOL    HW145325   9.511   6.310   7.228
11098SOL    HW245326   9.410   6.420   7.161
11099SOL     OW45327   9.617   5.799   6.817
11099SOL    HW145328   9.594   5.836   6.907
11099SOL    HW245329   9.587   5.704   6.811
11100SOL     OW45330   9.617   5.649   6.204
11100SOL    HW145331   9.606   5.743   6.237
11100SOL    HW245332   9.612   5.586   6.281
11101SOL     OW45333   9.469   6.723   7.052
11101SOL    HW145334   9.491   6.662   7.128
11101SOL    HW245335   9.479   6.674   6.966
11102SOL     OW45336   9.432   8.091   0.563
11102SOL    HW145337   9.387   8.003   0.580
11102SOL    HW245338   9.431   8.145   0.647
11103SOL     OW45339   9.617   7.661   1.231
11103SOL    HW145340   9.594   7.698   1.321
11103SOL    HW245341   9.587   7.566   1.225
11104SOL     OW45342   9.617   7.511   0.618
11104SOL    HW145343   9.606   7.605   0.651
11104SOL    HW245344   9.612   7.448   0.695
11105SOL     OW45345   9.469   8.585   1.466
11105SOL    HW145346   9.491   8.524   1.542
11105SOL    HW245347   9.479   8.536   1.380
11106SOL     OW45348   9.349   8.525   0.300
11106SOL    HW145349   9.448   8.514   0.291
11106SOL    HW245350   9.309   8.439   0.332
11107SOL     OW45351   9.617   7.661   3.093
11107SOL    HW145352   9.594   7.698   3.183
11107SOL    HW245353   9.587   7.566   3.087
11108SOL     OW45354   9.432   8.091   4.287
11108SOL    HW145355   9.387   8.003   4.304
11108SOL    HW245356   9.431   8.145   4.371
11109SOL     OW45357   9.617   7.661   4.955
11109SOL    HW145358   9.594   7.698   5.045
11109SOL    HW245359   9.587   7.566   4.949
11110SOL     OW45360   9.318   8.774   3.924
11110SOL    HW145361   9.225   8.795   3.893
11110SOL    HW245362   9.328   8.675   3.937
11111SOL     OW45363   9.469   8.585   5.190
11111SOL    HW145364   9.491   8.524   5.266
11111SOL    HW245365   9.479   8.536   5.104
11112SOL     OW45366   9.432   8.091   6.149
11112SOL    HW145367   9.387   8.003   6.166
11112SOL    HW245368   9.431   8.145   6.233
11113SOL     OW45369   9.423   8.185   7.183
11113SOL    HW145370   9.511   8.172   7.228
11113SOL    HW245371   9.410   8.282   7.161
11114SOL     OW45372   9.617   7.661   6.817
11114SOL    HW145373   9.594   7.698   6.907
11114SOL    HW245374   9.587   7.566   6.811
11115SOL     OW45375   9.617   7.511   6.204
11115SOL    HW145376   9.606   7.605   6.237
11115SOL    HW245377   9.612   7.448   6.281
11116SOL     OW45378   9.660   8.346   7.390
11116SOL    HW145379   9.736   8.390   7.438
11116SOL    HW245380   9.695   8.299   7.308
11117SOL     OW45381   9.318   8.774   5.786
11117SOL    HW145382   9.225   8.795   5.755
11117SOL    HW245383   9.328   8.675   5.799
11118SOL     OW45384   9.469   8.585   7.052
11118SOL    HW145385   9.491   8.524   7.128
11118SOL    HW245386   9.479   8.536   6.966
11119SOL     OW45387   9.349   8.525   5.886
11119SOL    HW145388   9.448   8.514   5.877
11119SOL    HW245389   9.309   8.439   5.918
   9.48825   8.49895   7.16157
